INSANE! Membrane UpperLeaflet>loPI:POPI:DPPI:PYPI:ERGO=20.0:5.0:3.0:2.0:10.0 LowerLeaflet>loPI:POPI:DPPI:PYPI:ERGO=20.0:5.0:3.0:2.0:10.0
48566
    1loPI    C1    1  14.881   3.885  10.140 -0.0398  0.0129  0.1692
    1loPI    C2    2  14.523   3.912  10.316 -0.0668 -0.2342  0.1557
    1loPI    C3    3  14.638   3.567  10.150  0.0121 -0.0419 -0.1984
    1loPI   PO4    4  14.943   4.040  10.007 -0.0687  0.3407  0.0837
    1loPI   GL1    5  15.279   4.117   9.819  0.0366 -0.5970  0.0241
    1loPI   GL2    6  15.394   3.812   9.771 -0.0520 -0.3198 -0.1802
    1loPI   C1A    7  15.344   4.300   9.465  0.0590 -0.0297  0.3255
    1loPI   C2A    8  15.474   4.304   9.097 -0.1709  0.1140  0.1118
    1loPI   C3A    9  15.399   4.319   8.670  0.1666  0.0137 -0.0374
    1loPI   C4A   10  15.508   4.336   8.304 -0.0953  0.0323 -0.1022
    1loPI   C5A   11  15.403   4.643   7.995 -0.0258 -0.1220 -0.1240
    1loPI   C6A   12  15.177   5.049   7.854  0.0891  0.0783 -0.0759
    1loPI   C1B   13  15.511   3.803   9.358 -0.0257 -0.0447 -0.0658
    1loPI   C2B   14  15.574   3.730   8.873  0.0365 -0.1031 -0.0256
    1loPI   C3B   15  15.654   3.930   8.580 -0.0740  0.1962  0.1859
    1loPI   C4B   16  15.505   3.820   8.110  0.0547  0.0721  0.0663
    2loPI    C1   17  15.207  15.562  10.841 -0.0665 -0.0654  0.0619
    2loPI    C2   18  14.974  15.271  10.988 -0.1703  0.0544  0.1366
    2loPI    C3   19  15.254  15.440  11.219 -0.0462 -0.0502  0.0642
    2loPI   PO4   20  15.240  15.522  10.580 -0.2495  0.0763 -0.2510
    2loPI   GL1   21  15.246  15.245  10.194  0.1537  0.0278  0.0457
    2loPI   GL2   22  14.859  15.129  10.109  0.1125 -0.1381  0.0797
    2loPI   C1A   23  15.284  15.438   9.716 -0.1539 -0.0077 -0.1307
    2loPI   C2A   24  15.223  15.502   9.197  0.1930 -0.0773  0.0108
    2loPI   C3A   25  15.144  15.497   8.676  0.0063  0.0950 -0.1878
    2loPI   C4A   26  14.896  15.562   8.339 -0.2297 -0.2357 -0.1274
    2loPI   C5A   27  14.838  15.425   7.930 -0.4274 -0.1979 -0.0006
    2loPI   C6A   28  14.884  15.554   7.519 -0.3281  0.0795 -0.1231
    2loPI   C1B   29  14.908  15.043   9.746  0.0915  0.0032 -0.1092
    2loPI   C2B   30  15.136  14.910   9.309 -0.0088 -0.0211  0.1659
    2loPI   C3B   31  15.218  15.037   8.887  0.0910  0.3143 -0.0359
    2loPI   C4B   32  15.232  15.087   8.382  0.0986 -0.2825  0.1435
    3loPI    C1   33   4.538   2.341  10.512  0.2517  0.1989 -0.0091
    3loPI    C2   34   4.871   2.353  10.734  0.1100  0.0984  0.2118
    3loPI    C3   35   4.513   2.322  10.911 -0.0020 -0.0361 -0.0336
    3loPI   PO4   36   4.510   2.445  10.354 -0.1231  0.1562 -0.5603
    3loPI   GL1   37   4.428   2.495   9.845  0.0301  0.0177 -0.0416
    3loPI   GL2   38   4.213   2.293   9.807  0.3408  0.0211  0.0015
    3loPI   C1A   39   4.389   2.577   9.364  0.3242 -0.0564 -0.1384
    3loPI   C2A   40   4.492   2.631   9.002 -0.0397  0.1711 -0.1707
    3loPI   C3A   41   4.678   2.596   8.647 -0.3281  0.1129 -0.0990
    3loPI   C4A   42   4.664   2.882   8.299 -0.1287  0.2827  0.0558
    3loPI   C5A   43   4.943   2.778   7.963  0.0178 -0.2250  0.1030
    3loPI   C6A   44   5.383   2.687   8.026 -0.3367 -0.1213 -0.0941
    3loPI   C1B   45   3.904   2.499   9.570  0.0433  0.0558  0.0118
    3loPI   C2B   46   3.536   2.693   9.372  0.2103 -0.0954  0.0131
    3loPI   C3B   47   3.461   2.738   8.961 -0.1066  0.3045 -0.2783
    3loPI   C4B   48   3.409   2.865   8.500  0.2068  0.1047  0.0207
    4loPI    C1   49   6.102   4.323  10.996  0.0799  0.0530  0.0132
    4loPI    C2   50   6.278   4.572  11.254 -0.0710  0.1162  0.0562
    4loPI    C3   51   6.094   4.243  11.388  0.1756 -0.0492 -0.0053
    4loPI   PO4   52   6.326   4.391  10.805  0.0546 -0.0902 -0.0974
    4loPI   GL1   53   6.310   4.559  10.395  0.0080 -0.0683  0.0691
    4loPI   GL2   54   6.615   4.645  10.408 -0.1952 -0.2845 -0.0089
    4loPI   C1A   55   6.144   4.611   9.913  0.0748  0.2231 -0.3411
    4loPI   C2A   56   6.245   4.477   9.533 -0.2466  0.1936 -0.3284
    4loPI   C3A   57   6.445   4.214   9.242  0.1976 -0.0068 -0.0117
    4loPI   C4A   58   6.713   4.180   8.904  0.0356 -0.1127 -0.0539
    4loPI   C5A   59   7.003   4.296   8.642  0.1158  0.2200 -0.2973
    4loPI   C6A   60   6.896   4.251   8.219  0.1364 -0.1103 -0.1428
    4loPI   C1B   61   6.746   4.734  10.008 -0.0029  0.0985  0.0785
    4loPI   C2B   62   6.747   4.682   9.541 -0.0638 -0.4229  0.1425
    4loPI   C3B   63   6.641   4.650   9.077 -0.1439 -0.2225 -0.4809
    4loPI   C4B   64   6.664   4.580   8.613  0.1803 -0.1477 -0.0109
    5loPI    C1   65  16.558   0.736  10.314  0.1157 -0.0770  0.1616
    5loPI    C2   66  16.220   0.614  10.490 -0.1351  0.1971 -0.1179
    5loPI    C3   67  16.530   0.732  10.713 -0.2768  0.0881  0.1412
    5loPI   PO4   68  16.622   0.947  10.062  0.2597  0.1134  0.1325
    5loPI   GL1   69  16.640   0.969   9.696 -0.6215 -0.1073 -0.0866
    5loPI   GL2   70  16.409   0.642   9.664  0.2083  0.0583  0.0008
    5loPI   C1A   71  16.666   1.016   9.195  0.2538  0.0454  0.2269
    5loPI   C2A   72  16.592   0.843   8.932  0.1603 -0.0789  0.0911
    5loPI   C3A   73  16.481   1.061   8.524 -0.1090  0.0976 -0.0685
    5loPI   C4A   74  16.367   1.299   8.272  0.0508  0.2218 -0.0190
    5loPI   C5A   75  16.128   1.558   8.110  0.4112 -0.1754 -0.0355
    5loPI   C6A   76  16.117   1.935   7.949  0.1114  0.1175 -0.1626
    5loPI   C1B   77  16.150   0.747   9.245  0.0868 -0.4559  0.2709
    5loPI   C2B   78  16.053   0.706   8.843  0.0894  0.4557  0.0307
    5loPI   C3B   79  16.169   0.641   8.410  0.0947  0.0278  0.0701
    5loPI   C4B   80  16.051   0.498   8.091  0.1176  0.3295 -0.3162
    6loPI    C1   81   4.691   9.998  10.682  0.0792 -0.1621  0.1341
    6loPI    C2   82   4.312   9.908  10.771  0.1110 -0.2544  0.1768
    6loPI    C3   83   4.591   9.904  11.057  0.1227 -0.0697  0.1692
    6loPI   PO4   84   4.685   9.767  10.412  0.3619  0.0389 -0.1042
    6loPI   GL1   85   4.592   9.696  10.036  0.0546 -0.1451  0.3990
    6loPI   GL2   86   4.489   9.499   9.950  0.0785 -0.1590 -0.1189
    6loPI   C1A   87   4.425   9.870   9.618  0.2306  0.0375 -0.1228
    6loPI   C2A   88   4.428   9.759   9.297  0.2417  0.3967  0.5241
    6loPI   C3A   89   4.520   9.653   8.869  0.1898  0.1765  0.0437
    6loPI   C4A   90   4.631   9.463   8.410 -0.1510  0.1088  0.2787
    6loPI   C5A   91   4.673   9.357   8.000  0.0971 -0.0390 -0.2215
    6loPI   C6A   92   5.099   9.144   7.855 -0.1734 -0.4560 -0.1447
    6loPI   C1B   93   4.683   9.443   9.611 -0.0667 -0.0953 -0.1443
    6loPI   C2B   94   4.727   9.292   9.199  0.0790  0.1670  0.0370
    6loPI   C3B   95   4.819   9.093   8.764  0.0586 -0.2227 -0.2038
    6loPI   C4B   96   4.887   9.058   8.313  0.0791  0.3195  0.0889
    7loPI    C1   97  14.171  11.437  10.595 -0.0213  0.1529  0.0572
    7loPI    C2   98  14.050  11.605  10.937 -0.0152 -0.1577  0.2152
    7loPI    C3   99  14.438  11.609  10.837 -0.0018 -0.1633  0.2666
    7loPI   PO4  100  13.962  11.402  10.447  0.3116  0.0112 -0.2030
    7loPI   GL1  101  13.977  11.597  10.045  0.2592  0.0018 -0.0050
    7loPI   GL2  102  14.321  11.653  10.184 -0.2165  0.5484 -0.2675
    7loPI   C1A  103  13.886  11.810   9.711 -0.1660  0.0563  0.1263
    7loPI   C2A  104  13.662  12.146   9.587  0.0920  0.0212 -0.0602
    7loPI   C3A  105  13.420  12.370   9.141  0.0540  0.0046 -0.1847
    7loPI   C4A  106  13.045  12.429   9.000 -0.3274 -0.0114  0.0305
    7loPI   C5A  107  12.866  12.508   8.556 -0.3521 -0.2359  0.0878
    7loPI   C6A  108  12.802  12.740   8.246 -0.2621  0.0070  0.1316
    7loPI   C1B  109  14.437  11.914   9.943  0.1248 -0.0568 -0.0714
    7loPI   C2B  110  14.569  11.914   9.584  0.3666 -0.0506 -0.0497
    7loPI   C3B  111  14.152  12.092   9.322  0.1710  0.0315  0.3381
    7loPI   C4B  112  13.861  12.302   8.997 -0.2785  0.3909  0.1458
    8loPI    C1  113  17.308  10.379  10.697  0.1879  0.0116  0.0517
    8loPI    C2  114  17.026  10.655  10.765  0.2178  0.0229  0.1312
    8loPI    C3  115  17.156  10.425  11.065  0.0897 -0.1768  0.0361
    8loPI   PO4  116  17.278  10.235  10.512  0.2943 -0.2145 -0.2020
    8loPI   GL1  117  17.238  10.024  10.156  0.3004  0.0762  0.2828
    8loPI   GL2  118  17.024  10.192   9.893 -0.0892 -0.1794 -0.1371
    8loPI   C1A  119  17.354   9.635  10.004  0.3554  0.1815 -0.0764
    8loPI   C2A  120  17.436   9.395   9.660  0.1357 -0.1122  0.2157
    8loPI   C3A  121  17.573   9.352   9.305  0.2435 -0.2942 -0.2581
    8loPI   C4A  122  17.715   9.224   9.023 -0.2691 -0.3222 -0.5475
    8loPI   C5A  123  17.772   9.092   8.571 -0.1311 -0.0971  0.1427
    8loPI   C6A  124  17.636   8.754   8.369 -0.1159 -0.0811  0.2219
    8loPI   C1B  125  16.732  10.098   9.754 -0.0189  0.1133  0.2628
    8loPI   C2B  126  16.678   9.882   9.352  0.0440 -0.0502  0.0932
    8loPI   C3B  127  16.425   9.991   8.990 -0.2039  0.2513  0.0483
    8loPI   C4B  128  16.405  10.103   8.517 -0.1131 -0.1304 -0.0465
    9loPI    C1  129  13.425  11.049  10.691  0.0756  0.0644 -0.3108
    9loPI    C2  130  13.663  11.325  10.856  0.0782 -0.0624 -0.0976
    9loPI    C3  131  13.639  10.960  11.018 -0.2278 -0.0651 -0.1429
    9loPI   PO4  132  13.423  11.151  10.449 -0.2977 -0.1821  0.2244
    9loPI   GL1  133  13.722  11.168  10.087  0.1001  0.0825  0.0742
    9loPI   GL2  134  13.422  11.068   9.883 -0.3387 -0.1162  0.1929
    9loPI   C1A  135  13.871  11.198   9.705  0.0933  0.1577  0.1105
    9loPI   C2A  136  13.980  11.130   9.274  0.3615  0.3152 -0.1578
    9loPI   C3A  137  13.777  10.952   8.975 -0.0143  0.0568 -0.0733
    9loPI   C4A  138  13.424  11.006   8.615 -0.2773 -0.3601 -0.0159
    9loPI   C5A  139  13.299  10.759   8.324 -0.1733  0.0253  0.3295
    9loPI   C6A  140  12.987  10.512   8.071 -0.3806  0.3240 -0.0681
    9loPI   C1B  141  13.142  11.214   9.551  0.0101  0.0766 -0.0937
    9loPI   C2B  142  13.120  11.460   9.206 -0.1071  0.0400  0.0502
    9loPI   C3B  143  13.043  11.371   8.833  0.0460  0.2002 -0.0606
    9loPI   C4B  144  13.106  11.555   8.427  0.0423  0.1477  0.1606
   10loPI    C1  145  12.627  16.086  10.284  0.3425  0.0291 -0.0336
   10loPI    C2  146  12.708  15.876  10.615 -0.2200  0.1196  0.1723
   10loPI    C3  147  12.779  15.717  10.255  0.0520 -0.1253  0.3294
   10loPI   PO4  148  12.801  16.400  10.391  0.2796 -0.1106  0.1502
   10loPI   GL1  149  13.000  16.684  10.023 -0.0255  0.7282  0.3221
   10loPI   GL2  150  12.675  16.897  10.008  0.0505 -0.1106  0.0205
   10loPI   C1A  151  13.060  16.445   9.696 -0.4429  0.2101  0.0424
   10loPI   C2A  152  12.978  16.110   9.359  0.1195  0.4819 -0.1875
   10loPI   C3A  153  12.838  16.255   8.978 -0.1992 -0.0323  0.0091
   10loPI   C4A  154  12.925  16.397   8.635 -0.0729  0.2206 -0.1334
   10loPI   C5A  155  13.086  16.676   8.259  0.4499 -0.1211  0.2100
   10loPI   C6A  156  13.473  16.707   8.038 -0.1688 -0.0524 -0.2991
   10loPI   C1B  157  12.572  16.776   9.662  0.2695  0.4069  0.3343
   10loPI   C2B  158  12.601  16.577   9.252  0.0784 -0.2409  0.0384
   10loPI   C3B  159  12.460  16.479   8.793  0.0977 -0.3002  0.0338
   10loPI   C4B  160  12.446  16.347   8.448 -0.0246 -0.0361  0.0905
   11loPI    C1  161  17.526   2.760  10.367 -0.1721  0.0704 -0.2357
   11loPI    C2  162  17.389   2.422  10.203  0.0804 -0.0627 -0.1769
   11loPI    C3  163  17.765   2.441  10.338 -0.0706  0.0970  0.2351
   11loPI   PO4  164  17.257   2.907  10.320 -0.1618  0.4254  0.4555
   11loPI   GL1  165  17.014   3.051   9.941 -0.2911  0.0465  0.1439
   11loPI   GL2  166  17.177   2.794   9.817 -0.0989  0.0693 -0.2717
   11loPI   C1A  167  17.147   3.258   9.570 -0.1627 -0.0391  0.0392
   11loPI   C2A  168  17.325   3.345   9.163  0.1764 -0.0480 -0.3979
   11loPI   C3A  169  17.292   3.261   8.697 -0.1485  0.0615  0.0398
   11loPI   C4A  170  17.093   3.271   8.297  0.2127 -0.0579  0.3692
   11loPI   C5A  171  16.928   3.110   7.927  0.1310 -0.2832  0.0583
   11loPI   C6A  172  17.256   2.972   7.661  0.0172 -0.0769  0.1382
   11loPI   C1B  173  17.247   2.736   9.403 -0.3450 -0.2370  0.0097
   11loPI   C2B  174  17.249   2.718   9.030  0.2308  0.4238 -0.1657
   11loPI   C3B  175  17.266   2.801   8.582 -0.0497 -0.1127 -0.1019
   11loPI   C4B  176  17.198   2.741   8.163 -0.0145  0.0441 -0.0180
   12loPI    C1  177  15.819  16.806  10.601 -0.0039 -0.3396  0.1701
   12loPI    C2  178  15.520  17.068  10.562  0.1286 -0.2357 -0.1826
   12loPI    C3  179  15.586  16.893  10.915 -0.0085  0.1472  0.0400
   12loPI   PO4  180  15.853  16.718  10.319  0.0256  0.0109  0.0625
   12loPI   GL1  181  15.779  17.100  10.071 -0.1478  0.0672 -0.1284
   12loPI   GL2  182  15.520  17.034  10.089 -0.3556 -0.1575 -0.2390
   12loPI   C1A  183  15.971  17.175   9.635  0.0959 -0.0129  0.0289
   12loPI   C2A  184  16.330  17.472   9.462  0.2206  0.0802  0.1540
   12loPI   C3A  185  16.410  17.500   9.001  0.1044  0.0472  0.1350
   12loPI   C4A  186  16.480  17.485   8.427  0.0903 -0.0722  0.1326
   12loPI   C5A  187  16.655  17.592   8.079  0.0008 -0.1800 -0.0090
   12loPI   C6A  188  16.898  17.508   7.675 -0.2287  0.1242 -0.0227
   12loPI   C1B  189  15.460  17.326   9.698 -0.2890 -0.2861  0.1111
   12loPI   C2B  190  15.424  17.350   9.352 -0.0286 -0.1825 -0.1659
   12loPI   C3B  191  15.523  17.197   8.846  0.4539 -0.1938 -0.1903
   12loPI   C4B  192  15.750  17.091   8.379  0.0051  0.1458  0.1166
   13loPI    C1  193   0.618  14.981  10.478  0.0807  0.1249  0.0038
   13loPI    C2  194   0.764  14.670  10.273 -0.0595  0.1466 -0.1308
   13loPI    C3  195   0.785  14.674  10.672  0.2002  0.0961 -0.1427
   13loPI   PO4  196   0.702  15.198  10.310  0.2096 -0.5718 -0.1070
   13loPI   GL1  197   0.791  15.027   9.920 -0.2617  0.0070  0.0998
   13loPI   GL2  198   0.596  15.330   9.870 -0.4585  0.2243  0.0797
   13loPI   C1A  199   0.661  14.989   9.458  0.1687  0.1995 -0.4203
   13loPI   C2A  200   0.617  14.815   9.068  0.3271  0.2460 -0.1092
   13loPI   C3A  201   0.640  14.777   8.657  0.1056  0.0431 -0.3822
   13loPI   C4A  202   0.473  14.953   8.251 -0.1351  0.2949  0.0841
   13loPI   C5A  203   0.733  14.975   7.860 -0.0957  0.3378  0.2121
   13loPI   C6A  204   0.807  15.382   7.623  0.0681  0.0057 -0.0580
   13loPI   C1B  205   0.519  15.518   9.498 -0.1973  0.2523 -0.0073
   13loPI   C2B  206   0.419  15.439   9.021 -0.0541 -0.0958  0.1489
   13loPI   C3B  207   0.453  15.459   8.566  0.0005 -0.1186 -0.3906
   13loPI   C4B  208   0.127  15.441   8.329  0.2491  0.0253 -0.0457
   14loPI    C1  209   7.667   0.683  10.335 -0.0062 -0.0563  0.0871
   14loPI    C2  210   7.553   0.439  10.631 -0.1471 -0.0040  0.0766
   14loPI    C3  211   7.510   0.835  10.671 -0.1078  0.0069  0.0115
   14loPI   PO4  212   7.923   0.593  10.320 -0.1712 -0.0526  0.2064
   14loPI   GL1  213   8.124   0.307   9.937 -0.0201 -0.1227  0.0802
   14loPI   GL2  214   8.202  -0.078   9.993  0.1151 -0.0012  0.0780
   14loPI   C1A  215   8.335   0.330   9.571 -0.1582 -0.4902  0.0576
   14loPI   C2A  216   8.261   0.168   9.169  0.0259  0.0855  0.1831
   14loPI   C3A  217   8.313   0.254   8.758  0.1094 -0.1628  0.1674
   14loPI   C4A  218   8.255   0.072   8.410 -0.1600 -0.0198 -0.1129
   14loPI   C5A  219   8.042  -0.224   8.163 -0.3146 -0.2614  0.1730
   14loPI   C6A  220   7.802  -0.511   7.939 -0.1841 -0.4340 -0.0935
   14loPI   C1B  221   8.422  -0.142   9.590  0.3376 -0.1615  0.2561
   14loPI   C2B  222   8.525  -0.238   9.062 -0.0890  0.1440  0.1279
   14loPI   C3B  223   8.675  -0.164   8.691 -0.4404  0.0004  0.4064
   14loPI   C4B  224   8.914  -0.342   8.350 -0.1175  0.0389 -0.3126
   15loPI    C1  225  11.978   7.716  11.116 -0.2962 -0.3381 -0.0067
   15loPI    C2  226  12.142   7.471  11.387  0.0087 -0.0300  0.0945
   15loPI    C3  227  11.936   7.793  11.506 -0.1437 -0.0765 -0.0395
   15loPI   PO4  228  12.166   7.796  10.927  0.0978  0.0896  0.1085
   15loPI   GL1  229  12.073   7.864  10.474  0.0120  0.2014  0.1208
   15loPI   GL2  230  12.351   7.722  10.378  0.1756  0.3234 -0.3171
   15loPI   C1A  231  11.999   7.985  10.042 -0.0306  0.0858 -0.0958
   15loPI   C2A  232  12.019   7.846   9.653 -0.0181 -0.0669 -0.0936
   15loPI   C3A  233  11.929   7.825   9.243  0.0540  0.0653  0.2984
   15loPI   C4A  234  12.016   7.958   8.839  0.0064  0.0814 -0.4457
   15loPI   C5A  235  12.109   7.812   8.496  0.0929 -0.1718  0.3478
   15loPI   C6A  236  12.219   7.413   8.450  0.0116 -0.0297  0.1318
   15loPI   C1B  237  12.242   7.527  10.061  0.0162 -0.0280  0.3203
   15loPI   C2B  238  12.298   7.243   9.655  0.1548  0.1296 -0.0495
   15loPI   C3B  239  12.325   7.220   9.302 -0.3211 -0.2994  0.2043
   15loPI   C4B  240  12.101   7.369   8.943  0.1245 -0.0217 -0.0642
   16loPI    C1  241   5.217  11.227  10.692 -0.2507  0.2399  0.0439
   16loPI    C2  242   5.123  10.886  10.880 -0.1267  0.2207  0.0717
   16loPI    C3  243   4.967  11.233  11.004 -0.3110  0.1651 -0.0027
   16loPI   PO4  244   5.241  11.187  10.451 -0.2414  0.0458  0.0698
   16loPI   GL1  245   5.448  10.949  10.132  0.2656  0.2175 -0.1896
   16loPI   GL2  246   5.673  11.293  10.152 -0.0556  0.2080 -0.0910
   16loPI   C1A  247   5.357  10.788   9.661 -0.1155  0.2384 -0.0733
   16loPI   C2A  248   5.357  10.755   9.251  0.2270  0.0262  0.0351
   16loPI   C3A  249   5.396  10.784   8.838 -0.1055 -0.1259 -0.1161
   16loPI   C4A  250   5.473  10.532   8.456 -0.1587 -0.1979 -0.1188
   16loPI   C5A  251   5.667  10.627   8.027  0.0932  0.5017 -0.0037
   16loPI   C6A  252   5.932  10.915   7.994 -0.0637 -0.2667 -0.1466
   16loPI   C1B  253   5.776  11.123   9.764 -0.0225 -0.0088  0.2708
   16loPI   C2B  254   5.766  10.990   9.355 -0.0139  0.1072 -0.0142
   16loPI   C3B  255   5.848  10.993   8.945  0.1958  0.0725  0.0188
   16loPI   C4B  256   5.812  10.882   8.514 -0.1078  0.2311 -0.0043
   17loPI    C1  257  15.787  10.153  10.489 -0.0400  0.0806 -0.1145
   17loPI    C2  258  15.910  10.341  10.820 -0.0511  0.1008 -0.1218
   17loPI    C3  259  15.985   9.951  10.771  0.0077  0.1125 -0.1251
   17loPI   PO4  260  15.811  10.343  10.295 -0.1427  0.2468 -0.0439
   17loPI   GL1  261  15.955  10.001   9.953  0.1929 -0.2057 -0.3195
   17loPI   GL2  262  16.190  10.285   9.983  0.2516 -0.1882 -0.1864
   17loPI   C1A  263  15.828  10.253   9.637  0.0539  0.0027 -0.0751
   17loPI   C2A  264  15.601  10.188   9.325 -0.1174  0.0972 -0.3082
   17loPI   C3A  265  15.398   9.969   9.041 -0.2457 -0.3764  0.2374
   17loPI   C4A  266  15.330   9.952   8.569  0.0768 -0.1318 -0.0419
   17loPI   C5A  267  15.506   9.493   8.487 -0.2999 -0.0265  0.3067
   17loPI   C6A  268  15.540   9.169   8.054  0.0932 -0.3155  0.0489
   17loPI   C1B  269  16.317  10.369   9.591  0.1182  0.0514  0.0631
   17loPI   C2B  270  16.159  10.382   9.222 -0.0377 -0.0415 -0.2198
   17loPI   C3B  271  16.075  10.288   8.839 -0.0383  0.2398  0.3020
   17loPI   C4B  272  15.615  10.351   8.715 -0.0114 -0.1703  0.1352
   18loPI    C1  273   9.712  11.297  10.593 -0.0674 -0.1668  0.3750
   18loPI    C2  274   9.396  11.052  10.591 -0.0470 -0.1951 -0.0059
   18loPI    C3  275   9.613  11.095  10.924 -0.1542 -0.5598  0.1159
   18loPI   PO4  276   9.846  11.249  10.323 -0.2017 -0.2883  0.2491
   18loPI   GL1  277   9.634  11.350  10.022  0.1328  0.0219  0.2694
   18loPI   GL2  278   9.465  11.522   9.888 -0.2957  0.0031  0.0789
   18loPI   C1A  279   9.813  11.226   9.631  0.2336  0.0469 -0.0264
   18loPI   C2A  280  10.159  11.140   9.380 -0.1809 -0.1557  0.2519
   18loPI   C3A  281  10.136  11.060   8.917 -0.3097  0.0203 -0.0202
   18loPI   C4A  282  10.527  11.185   8.729 -0.2358 -0.1074 -0.0683
   18loPI   C5A  283  10.652  11.480   8.343 -0.0354  0.4677  0.2855
   18loPI   C6A  284  10.825  11.889   8.164 -0.1888  0.1332 -0.0408
   18loPI   C1B  285   9.525  11.703   9.493  0.1388 -0.1217  0.1494
   18loPI   C2B  286   9.685  11.865   9.175  0.4484 -0.0494 -0.0905
   18loPI   C3B  287   9.826  12.075   8.909 -0.2778  0.0123  0.3393
   18loPI   C4B  288   9.797  12.016   8.453 -0.4128  0.1773 -0.1035
   19loPI    C1  289   8.291  15.816  10.438 -0.1176  0.1680 -0.2818
   19loPI    C2  290   8.223  15.432  10.351  0.0779  0.0320  0.1397
   19loPI    C3  291   8.196  15.559  10.729  0.2233  0.3892  0.0338
   19loPI   PO4  292   8.131  15.900  10.307  0.0025  0.0442  0.0099
   19loPI   GL1  293   8.120  16.081   9.904 -0.3211  0.0796  0.0209
   19loPI   GL2  294   8.246  16.402   9.775 -0.0173  0.1509  0.4402
   19loPI   C1A  295   8.083  15.920   9.497 -0.2322 -0.1410  0.0697
   19loPI   C2A  296   8.175  15.930   9.108  0.2785 -0.0565  0.3241
   19loPI   C3A  297   8.209  15.915   8.773  0.0683 -0.2880 -0.0482
   19loPI   C4A  298   8.215  15.905   8.328 -0.3925 -0.0574 -0.2315
   19loPI   C5A  299   8.529  15.929   8.077 -0.3332  0.0805  0.1361
   19loPI   C6A  300   8.921  16.143   7.882  0.0274 -0.0940 -0.4097
   19loPI   C1B  301   8.269  16.494   9.291  0.0409 -0.1803 -0.2371
   19loPI   C2B  302   8.303  16.445   8.856 -0.3158 -0.0690 -0.2724
   19loPI   C3B  303   8.151  16.449   8.454  0.2572  0.1368  0.0198
   19loPI   C4B  304   8.158  16.761   8.110 -0.1081 -0.0183  0.4969
   20loPI    C1  305   3.180   0.103  10.627 -0.0444 -0.5391  0.0103
   20loPI    C2  306   2.910   0.132  10.921  0.0096 -0.0292  0.0184
   20loPI    C3  307   3.215   0.390  10.903  0.0208 -0.0662 -0.4729
   20loPI   PO4  308   2.981   0.073  10.390 -0.2249  0.0482 -0.1133
   20loPI   GL1  309   2.994  -0.206  10.053  0.0735 -0.0809  0.0190
   20loPI   GL2  310   2.736   0.001   9.925 -0.3827 -0.0490 -0.1032
   20loPI   C1A  311   3.141  -0.070   9.610  0.1439 -0.1913 -0.1137
   20loPI   C2A  312   3.215   0.087   9.149  0.2427  0.0700  0.1749
   20loPI   C3A  313   2.999  -0.085   8.780  0.2856  0.0684 -0.3293
   20loPI   C4A  314   2.897  -0.385   8.431  0.2732 -0.1362 -0.0733
   20loPI   C5A  315   2.659  -0.783   8.266 -0.2068  0.1301  0.1911
   20loPI   C6A  316   2.720  -1.210   8.162 -0.1050 -0.1895 -0.2047
   20loPI   C1B  317   2.376  -0.031   9.580 -0.0439 -0.2013 -0.0558
   20loPI   C2B  318   2.214  -0.023   9.210 -0.0164  0.0175  0.0160
   20loPI   C3B  319   2.109  -0.355   8.896  0.0119 -0.0146 -0.0411
   20loPI   C4B  320   1.939  -0.358   8.502 -0.1389 -0.2780  0.3875
   21loPI    C1  321  13.759  10.101  10.596  0.1603  0.0594 -0.1193
   21loPI    C2  322  13.562  10.011  10.932 -0.0220  0.2303 -0.1783
   21loPI    C3  323  13.956  10.076  10.943  0.0394 -0.1375 -0.0630
   21loPI   PO4  324  13.568   9.996  10.461 -0.1034 -0.1403  0.0471
   21loPI   GL1  325  13.497   9.654  10.145 -0.0624 -0.0435 -0.0506
   21loPI   GL2  326  13.413   9.843   9.947 -0.2389  0.4495 -0.4516
   21loPI   C1A  327  13.098   9.484  10.136  0.0284 -0.1304 -0.0093
   21loPI   C2A  328  12.918   9.158   9.875  0.0148 -0.1388 -0.0931
   21loPI   C3A  329  13.145   8.965   9.479 -0.0429 -0.1289 -0.2505
   21loPI   C4A  330  13.172   8.799   9.137  0.4751  0.0516  0.2405
   21loPI   C5A  331  13.131   8.698   8.697  0.1168 -0.1091 -0.1431
   21loPI   C6A  332  13.333   8.994   8.499 -0.1565 -0.0833 -0.2467
   21loPI   C1B  333  13.464   9.812   9.530 -0.1753  0.1463  0.1945
   21loPI   C2B  334  13.447   9.902   9.130  0.3240  0.2400  0.0873
   21loPI   C3B  335  13.460   9.951   8.766  0.1701 -0.0269  0.2691
   21loPI   C4B  336  13.274  10.167   8.434  0.1381  0.1431  0.0656
   22loPI    C1  337  12.094  16.193  10.593  0.1411 -0.0298 -0.0271
   22loPI    C2  338  11.990  16.566  10.693  0.1248 -0.0797  0.1455
   22loPI    C3  339  11.794  16.255  10.850  0.0569 -0.1594 -0.0931
   22loPI   PO4  340  12.170  16.262  10.363 -0.2898  0.0277 -0.1056
   22loPI   GL1  341  12.173  16.241   9.934 -0.2649  0.0060  0.0194
   22loPI   GL2  342  12.122  16.542   9.936  0.3490 -0.0075 -0.0688
   22loPI   C1A  343  12.229  15.813   9.786  0.1332 -0.1644 -0.1070
   22loPI   C2A  344  12.092  15.571   9.405  0.0286 -0.0369  0.1887
   22loPI   C3A  345  12.197  15.400   8.998  0.1503  0.2646 -0.1590
   22loPI   C4A  346  12.356  15.275   8.560  0.2240  0.0924 -0.1415
   22loPI   C5A  347  12.138  15.219   8.155 -0.1062 -0.0372  0.0305
   22loPI   C6A  348  11.777  15.508   7.997 -0.1720  0.1451  0.1398
   22loPI   C1B  349  12.164  16.592   9.534  0.2224 -0.0498 -0.1896
   22loPI   C2B  350  12.063  16.556   9.069  0.3816 -0.0196  0.1542
   22loPI   C3B  351  12.026  16.251   8.685 -0.1283  0.1768  0.1555
   22loPI   C4B  352  11.892  15.896   8.370  0.1031 -0.1921 -0.1997
   23loPI    C1  353   3.619   4.685  10.627  0.1058  0.0568  0.0164
   23loPI    C2  354   3.282   4.505  10.748  0.3945 -0.3664  0.2175
   23loPI    C3  355   3.416   4.829  10.941  0.0479 -0.1255  0.0640
   23loPI   PO4  356   3.589   4.647  10.341 -0.1356 -0.1574  0.3066
   23loPI   GL1  357   3.603   4.413   9.874  0.0066 -0.2902  0.1661
   23loPI   GL2  358   3.939   4.446   9.670 -0.0674  0.0508  0.0730
   23loPI   C1A  359   3.411   4.656   9.463  0.1684  0.0916 -0.3026
   23loPI   C2A  360   3.340   4.649   9.032 -0.0612  0.1935  0.2109
   23loPI   C3A  361   3.272   4.909   8.716  0.0124  0.1750  0.2842
   23loPI   C4A  362   3.418   4.925   8.222  0.1651 -0.0126  0.0862
   23loPI   C5A  363   3.764   4.960   8.014 -0.0165  0.2583  0.0133
   23loPI   C6A  364   4.078   4.754   7.897  0.0204  0.0581  0.3344
   23loPI   C1B  365   3.840   4.447   9.263  0.0828 -0.0530  0.0157
   23loPI   C2B  366   3.738   4.447   8.778  0.0299 -0.1935 -0.1032
   23loPI   C3B  367   3.489   4.361   8.456  0.0242 -0.0347  0.2815
   23loPI   C4B  368   3.218   4.485   8.140  0.2225 -0.2169  0.2947
   24loPI    C1  369   8.551  15.042  10.485 -0.0498 -0.1777 -0.0105
   24loPI    C2  370   8.871  15.084  10.722 -0.1683  0.0117  0.1180
   24loPI    C3  371   8.515  15.224  10.839 -0.2331  0.0891 -0.1633
   24loPI   PO4  372   8.597  15.090  10.314 -0.0955 -0.0644  0.3260
   24loPI   GL1  373   8.468  15.155   9.948 -0.2593 -0.0723 -0.2540
   24loPI   GL2  374   8.112  15.168   9.798  0.1427  0.1296  0.1499
   24loPI   C1A  375   8.501  15.049   9.491 -0.2162  0.0466  0.2471
   24loPI   C2A  376   8.471  15.016   9.042 -0.4943  0.1601  0.2312
   24loPI   C3A  377   8.560  14.843   8.649 -0.0179  0.0544  0.2436
   24loPI   C4A  378   8.701  14.779   8.258 -0.4196 -0.0327 -0.2221
   24loPI   C5A  379   8.470  14.838   7.833 -0.2885  0.0357 -0.0566
   24loPI   C6A  380   8.288  14.923   7.481 -0.0581 -0.0516 -0.0693
   24loPI   C1B  381   8.059  15.174   9.305 -0.3372 -0.1737 -0.4962
   24loPI   C2B  382   8.051  15.154   8.851 -0.1442  0.0209 -0.3610
   24loPI   C3B  383   8.173  15.117   8.430 -0.2326  0.1112 -0.2090
   24loPI   C4B  384   8.070  14.905   8.180 -0.0380  0.1291 -0.0902
   25loPI    C1  385   5.971  14.889  10.327  0.0702 -0.0151 -0.1373
   25loPI    C2  386   5.869  14.680  10.652 -0.0230 -0.0985 -0.2191
   25loPI    C3  387   5.867  15.080  10.662  0.1528 -0.1002 -0.0626
   25loPI   PO4  388   5.891  14.735  10.149 -0.1561 -0.2071  0.1077
   25loPI   GL1  389   5.516  14.922   9.869  0.1696 -0.0667  0.3923
   25loPI   GL2  390   5.279  15.131   9.833 -0.2469  0.1794 -0.0233
   25loPI   C1A  391   5.671  14.762   9.529  0.0895 -0.2361 -0.2620
   25loPI   C2A  392   5.816  15.075   9.186  0.1084  0.1373 -0.0015
   25loPI   C3A  393   5.814  15.088   8.658 -0.2604 -0.2745 -0.1215
   25loPI   C4A  394   5.656  14.848   8.230  0.1358 -0.0831  0.3617
   25loPI   C5A  395   5.336  14.738   7.957  0.2826  0.1779 -0.2891
   25loPI   C6A  396   5.079  14.654   7.617  0.0310 -0.0976 -0.0189
   25loPI   C1B  397   5.409  15.212   9.398  0.4327 -0.0460  0.2067
   25loPI   C2B  398   5.390  15.334   8.933  0.1574  0.2891  0.4244
   25loPI   C3B  399   5.325  15.190   8.494  0.1782 -0.0286 -0.2724
   25loPI   C4B  400   5.050  15.015   8.259  0.1920 -0.3401  0.2649
   26loPI    C1  401   1.926  12.340  10.469  0.0952 -0.1670  0.0198
   26loPI    C2  402   1.927  12.607  10.767  0.0731 -0.1832  0.0343
   26loPI    C3  403   1.777  12.241  10.827  0.0061 -0.1642 -0.0165
   26loPI   PO4  404   2.115  12.426  10.291  0.2209  0.3678 -0.1268
   26loPI   GL1  405   2.349  12.183   9.870 -0.1172 -0.1517  0.1276
   26loPI   GL2  406   2.419  12.013   9.592  0.1741  0.1653  0.3964
   26loPI   C1A  407   2.191  12.449   9.434 -0.2817 -0.0016 -0.2265
   26loPI   C2A  408   2.088  12.338   9.093 -0.0072 -0.0374  0.1566
   26loPI   C3A  409   2.002  12.353   8.647 -0.1256  0.3840 -0.0213
   26loPI   C4A  410   2.030  12.213   8.297  0.0250 -0.0195  0.1976
   26loPI   C5A  411   2.151  12.069   7.881 -0.1693 -0.0683 -0.0161
   26loPI   C6A  412   1.989  11.756   7.533 -0.0859  0.1634  0.1794
   26loPI   C1B  413   2.512  12.131   9.100 -0.4395 -0.2164 -0.0322
   26loPI   C2B  414   2.509  12.212   8.634 -0.1170  0.2122  0.1532
   26loPI   C3B  415   2.590  11.979   8.362  0.0805 -0.1994 -0.0838
   26loPI   C4B  416   2.935  11.976   8.085 -0.1450  0.1064  0.0136
   27loPI    C1  417   6.898   3.783  11.049  0.1602  0.0092 -0.0082
   27loPI    C2  418   7.024   3.479  11.277 -0.1141  0.1924  0.4010
   27loPI    C3  419   6.809   3.774  11.439 -0.0427  0.4951 -0.0367
   27loPI   PO4  420   6.844   3.648  10.757 -0.0984 -0.1205 -0.0263
   27loPI   GL1  421   7.006   3.515  10.397 -0.1504 -0.0118 -0.1200
   27loPI   GL2  422   7.349   3.684  10.332 -0.2772 -0.4236 -0.2846
   27loPI   C1A  423   6.661   3.418  10.132 -0.3621  0.1211  0.0570
   27loPI   C2A  424   6.509   3.347   9.738  0.0851  0.0441  0.2648
   27loPI   C3A  425   6.377   3.269   9.352 -0.3682  0.0481  0.0309
   27loPI   C4A  426   6.523   3.210   8.975  0.1422  0.1986 -0.1655
   27loPI   C5A  427   6.977   3.346   8.852 -0.1364 -0.2227  0.0036
   27loPI   C6A  428   7.329   3.315   8.559  0.1112 -0.0109 -0.0329
   27loPI   C1B  429   7.319   3.930   9.980 -0.2355 -0.0155  0.1283
   27loPI   C2B  430   7.326   3.783   9.569 -0.0432  0.3649  0.3999
   27loPI   C3B  431   7.336   3.584   9.153 -0.4130  0.0457  0.1498
   27loPI   C4B  432   7.551   3.731   8.718  0.1716  0.2940 -0.0665
   28loPI    C1  433   2.304   5.474  10.571  0.1890 -0.0856 -0.2688
   28loPI    C2  434   2.458   5.263  10.874  0.2536 -0.1518 -0.3475
   28loPI    C3  435   2.560   5.647  10.825  0.0005 -0.0502 -0.1004
   28loPI   PO4  436   2.385   5.435  10.393 -0.0299 -0.0997 -0.0687
   28loPI   GL1  437   2.375   5.729  10.056 -0.0866 -0.0886  0.1067
   28loPI   GL2  438   2.096   5.643   9.977 -0.0335  0.3486  0.0501
   28loPI   C1A  439   2.549   5.452   9.710  0.1646 -0.1289 -0.1708
   28loPI   C2A  440   2.488   5.240   9.290 -0.0074 -0.2654  0.0299
   28loPI   C3A  441   2.559   5.426   8.880 -0.1933 -0.4526 -0.0204
   28loPI   C4A  442   2.570   5.628   8.502  0.0899  0.1866  0.1106
   28loPI   C5A  443   2.384   5.555   8.271  0.2967  0.2950  0.1111
   28loPI   C6A  444   2.024   5.221   8.213  0.0004 -0.3152  0.1401
   28loPI   C1B  445   2.029   5.539   9.585  0.1568 -0.3364  0.0746
   28loPI   C2B  446   2.063   5.503   9.128 -0.1263 -0.1690  0.3114
   28loPI   C3B  447   2.089   5.486   8.693  0.2174 -0.0341  0.0125
   28loPI   C4B  448   1.737   5.619   8.502  0.1546 -0.2590  0.0573
   29loPI    C1  449   8.511   5.022  10.746 -0.3869  0.1641 -0.0420
   29loPI    C2  450   8.659   4.712  10.951  0.2526  0.2888 -0.2925
   29loPI    C3  451   8.321   4.670  10.742  0.2581 -0.1974 -0.2143
   29loPI   PO4  452   8.724   5.145  10.658 -0.3566  0.1175 -0.3537
   29loPI   GL1  453   8.993   5.185  10.357 -0.1957  0.0619  0.1806
   29loPI   GL2  454   9.048   5.486  10.248 -0.2219 -0.0533  0.3499
   29loPI   C1A  455   8.937   4.975  10.035 -0.0009  0.1415 -0.2255
   29loPI   C2A  456   8.998   5.001   9.592  0.0223 -0.2880  0.3238
   29loPI   C3A  457   9.032   5.116   9.205 -0.1618 -0.0418 -0.3195
   29loPI   C4A  458   9.078   4.947   8.877 -0.1357  0.3166 -0.0822
   29loPI   C5A  459   8.832   4.966   8.545 -0.1072  0.0527 -0.0673
   29loPI   C6A  460   8.692   4.890   8.057  0.2096  0.1591 -0.1906
   29loPI   C1B  461   9.120   5.785  10.078  0.0367 -0.0182  0.0460
   29loPI   C2B  462   9.133   6.037   9.769 -0.1066 -0.0127  0.2578
   29loPI   C3B  463   8.894   6.314   9.544  0.1548 -0.1211  0.0871
   29loPI   C4B  464   8.751   6.368   9.129 -0.1192 -0.2013  0.0547
   30loPI    C1  465  14.128  12.090  10.931 -0.1683  0.0171  0.0625
   30loPI    C2  466  14.449  12.321  10.992 -0.0429 -0.1218 -0.0607
   30loPI    C3  467  14.378  12.010  11.233 -0.3504  0.1881  0.2618
   30loPI   PO4  468  14.021  12.299  10.644  0.2816  0.0776  0.2745
   30loPI   GL1  469  13.901  12.632  10.269 -0.0280  0.1414  0.0614
   30loPI   GL2  470  14.153  12.590  10.168 -0.1150  0.0065 -0.1411
   30loPI   C1A  471  13.671  12.566   9.909  0.3490 -0.2163  0.1691
   30loPI   C2A  472  13.367  12.564   9.610 -0.1301 -0.1635 -0.1929
   30loPI   C3A  473  13.207  12.818   9.257  0.1811  0.0347  0.1304
   30loPI   C4A  474  13.265  13.149   8.878 -0.2011  0.0397  0.0278
   30loPI   C5A  475  13.644  13.235   8.705 -0.0752  0.3310 -0.0459
   30loPI   C6A  476  13.864  13.035   8.499  0.2070  0.1053 -0.0752
   30loPI   C1B  477  14.050  12.909   9.790  0.1736  0.2815  0.0062
   30loPI   C2B  478  14.136  13.034   9.449 -0.0064  0.1309 -0.0643
   30loPI   C3B  479  14.153  13.151   9.003  0.0067  0.0086 -0.1630
   30loPI   C4B  480  14.334  13.404   8.703 -0.3022  0.5020 -0.1114
   31loPI    C1  481  14.592  13.755  10.491  0.1157 -0.0867 -0.0416
   31loPI    C2  482  14.495  14.101  10.315  0.0912 -0.0966 -0.0476
   31loPI    C3  483  14.455  14.060  10.711 -0.1302 -0.1702 -0.0763
   31loPI   PO4  484  14.790  13.695  10.389 -0.1084 -0.1714  0.1024
   31loPI   GL1  485  14.835  13.513   9.955 -0.0101 -0.1295  0.0155
   31loPI   GL2  486  15.226  13.517  10.015  0.0283 -0.0465  0.0532
   31loPI   C1A  487  14.954  13.151   9.682 -0.0545  0.3682  0.1081
   31loPI   C2A  488  15.064  12.763   9.625  0.1344  0.1597 -0.1201
   31loPI   C3A  489  14.864  12.400   9.473 -0.0648  0.1208  0.1450
   31loPI   C4A  490  14.626  12.315   9.213 -0.0714  0.0556  0.0178
   31loPI   C5A  491  14.358  12.639   9.083 -0.0349  0.0460 -0.2185
   31loPI   C6A  492  14.091  12.661   8.710 -0.0066 -0.0947 -0.2686
   31loPI   C1B  493  15.272  13.526   9.607  0.1981  0.1817  0.0506
   31loPI   C2B  494  15.363  13.397   9.139  0.0064  0.2355 -0.2932
   31loPI   C3B  495  15.380  13.556   8.688 -0.2727  0.2763 -0.0416
   31loPI   C4B  496  15.152  13.682   8.405  0.0323 -0.0457  0.0048
   32loPI    C1  497  15.884   4.831  10.232 -0.0218 -0.0954 -0.1073
   32loPI    C2  498  15.841   4.502  10.456  0.1254  0.0010  0.0646
   32loPI    C3  499  16.200   4.676  10.422  0.0902  0.0276 -0.1912
   32loPI   PO4  500  15.691   4.948  10.245 -0.1069 -0.1140 -0.1298
   32loPI   GL1  501  15.358   5.196  10.087  0.0291  0.5261 -0.2981
   32loPI   GL2  502  15.239   5.035   9.817 -0.0659  0.0078 -0.3280
   32loPI   C1A  503  15.427   5.508   9.685  0.0105  0.1054 -0.1789
   32loPI   C2A  504  15.277   5.668   9.295 -0.2624 -0.0724 -0.2342
   32loPI   C3A  505  15.060   5.915   9.028  0.0577 -0.1871  0.3384
   32loPI   C4A  506  15.082   6.079   8.560  0.1612  0.1926 -0.3696
   32loPI   C5A  507  15.029   6.436   8.237  0.3715  0.0348  0.3069
   32loPI   C6A  508  15.145   6.921   8.155 -0.0456  0.0407 -0.3241
   32loPI   C1B  509  15.278   5.114   9.435 -0.1561  0.1326  0.0125
   32loPI   C2B  510  15.104   5.277   9.020  0.1518  0.1210  0.2172
   32loPI   C3B  511  15.026   5.297   8.549  0.0378 -0.2099 -0.1048
   32loPI   C4B  512  15.177   5.016   8.358 -0.0954 -0.2107  0.1037
   33loPI    C1  513  15.090   5.823  10.786 -0.0067  0.1469  0.0024
   33loPI    C2  514  15.478   5.815  10.690 -0.0677  0.0935 -0.2447
   33loPI    C3  515  15.352   6.049  10.988  0.1777 -0.0156 -0.0515
   33loPI   PO4  516  14.961   5.845  10.457 -0.1154 -0.1735  0.0625
   33loPI   GL1  517  14.880   5.916  10.169  0.2239  0.3970  0.0004
   33loPI   GL2  518  14.937   6.227  10.099 -0.0009  0.0528  0.3052
   33loPI   C1A  519  14.724   5.938   9.749 -0.0169  0.2503 -0.0312
   33loPI   C2A  520  14.673   6.065   9.367  0.0120 -0.0585 -0.1133
   33loPI   C3A  521  14.683   6.172   8.962 -0.1248  0.1559 -0.1066
   33loPI   C4A  522  14.628   6.284   8.449  0.0562  0.0929 -0.4571
   33loPI   C5A  523  14.565   6.641   8.214  0.2930  0.5015 -0.1912
   33loPI   C6A  524  14.749   6.827   7.854  0.0880 -0.0642  0.1656
   33loPI   C1B  525  14.603   6.379   9.886 -0.0273  0.2305  0.2853
   33loPI   C2B  526  14.648   6.577   9.517 -0.0298  0.0744 -0.1095
   33loPI   C3B  527  14.733   6.637   9.165 -0.4073  0.1519 -0.0072
   33loPI   C4B  528  14.498   6.730   8.717  0.1203  0.0676  0.1666
   34loPI    C1  529   5.603  16.678  10.387 -0.0887  0.0064  0.0865
   34loPI    C2  530   5.608  17.077  10.366  0.1381  0.0027  0.0561
   34loPI    C3  531   5.316  16.892  10.566  0.1174  0.1899  0.2022
   34loPI   PO4  532   5.749  16.684  10.079 -0.0769  0.0412  0.0114
   34loPI   GL1  533   5.684  16.322   9.717 -0.0559  0.0473 -0.3107
   34loPI   GL2  534   5.667  16.043   9.529 -0.0634  0.0592 -0.0758
   34loPI   C1A  535   5.556  16.736   9.448 -0.1550 -0.2777  0.0722
   34loPI   C2A  536   5.430  16.861   9.007 -0.1003  0.0375  0.2454
   34loPI   C3A  537   5.789  16.894   8.695  0.0858 -0.1923  0.0351
   34loPI   C4A  538   6.056  16.583   8.484  0.1780 -0.2182 -0.1234
   34loPI   C5A  539   6.380  16.628   8.194 -0.2569  0.0679 -0.1453
   34loPI   C6A  540   6.304  16.598   7.784  0.3670  0.1190  0.0273
   34loPI   C1B  541   6.090  16.007   9.226 -0.1192  0.0433  0.0398
   34loPI   C2B  542   6.114  15.953   8.799 -0.1378  0.1527  0.0160
   34loPI   C3B  543   5.809  16.042   8.459 -0.0500 -0.0954 -0.0092
   34loPI   C4B  544   5.731  15.844   8.042  0.1435 -0.1126 -0.1516
   35loPI    C1  545  13.342   9.001  11.145 -0.1776 -0.0111  0.0126
   35loPI    C2  546  13.547   9.172  11.442 -0.1638 -0.1420  0.0790
   35loPI    C3  547  13.315   8.855  11.516 -0.0126 -0.2931 -0.0833
   35loPI   PO4  548  13.477   9.054  10.969 -0.0981 -0.2114 -0.3333
   35loPI   GL1  549  13.491   9.009  10.521  0.1744 -0.1095 -0.2053
   35loPI   GL2  550  13.190   9.161  10.529 -0.1196  0.0738 -0.0363
   35loPI   C1A  551  13.374   9.127  10.104  0.1051  0.0569  0.1085
   35loPI   C2A  552  13.329   9.369   9.714  0.1001 -0.1135  0.0267
   35loPI   C3A  553  13.409   9.352   9.298 -0.5156 -0.0252 -0.1985
   35loPI   C4A  554  13.312   9.384   8.817  0.2307 -0.0905 -0.2690
   35loPI   C5A  555  13.040   9.676   8.626  0.0336 -0.1725  0.0029
   35loPI   C6A  556  12.869   9.745   8.323  0.2485  0.0517  0.1914
   35loPI   C1B  557  13.004   8.852  10.291 -0.0983 -0.1390  0.1373
   35loPI   C2B  558  12.920   8.524   9.956  0.0330 -0.2313  0.1353
   35loPI   C3B  559  12.922   8.532   9.529 -0.0445  0.0949 -0.1691
   35loPI   C4B  560  12.841   8.432   9.082  0.0434  0.2245  0.0479
   36loPI    C1  561   5.780   9.525  10.678  0.0447  0.0013  0.0367
   36loPI    C2  562   6.138   9.555  10.501  0.0330  0.0295  0.0178
   36loPI    C3  563   6.049   9.233  10.720  0.0084 -0.0550 -0.1155
   36loPI   PO4  564   5.635   9.550  10.517  0.0379  0.3181  0.2273
   36loPI   GL1  565   5.860   9.534  10.073 -0.0071  0.1618 -0.2199
   36loPI   GL2  566   5.751   9.169  10.002  0.0596 -0.1161  0.0853
   36loPI   C1A  567   5.938   9.628   9.654  0.5256  0.0392  0.1306
   36loPI   C2A  568   6.026   9.619   9.235 -0.2453  0.4221  0.2416
   36loPI   C3A  569   6.221   9.524   8.880  0.1744  0.0243  0.0226
   36loPI   C4A  570   6.269   9.303   8.598  0.0130  0.0614 -0.1447
   36loPI   C5A  571   6.389   8.882   8.569 -0.0264 -0.2645 -0.1465
   36loPI   C6A  572   6.536   8.422   8.578 -0.1523 -0.1779  0.3389
   36loPI   C1B  573   5.717   9.154   9.558  0.0467  0.0803  0.0518
   36loPI   C2B  574   5.794   9.125   9.085 -0.0544  0.2748 -0.1267
   36loPI   C3B  575   5.827   9.032   8.664  0.1931  0.0890  0.2675
   36loPI   C4B  576   5.827   9.374   8.360  0.0022 -0.0729 -0.3727
   37loPI    C1  577   6.675  15.158  10.652 -0.0369  0.1056  0.1305
   37loPI    C2  578   6.379  14.895  10.592  0.0523  0.0934 -0.2895
   37loPI    C3  579   6.328  15.200  10.847 -0.1029 -0.2446  0.0963
   37loPI   PO4  580   6.834  15.151  10.390  0.1493 -0.1504  0.0584
   37loPI   GL1  581   6.891  15.311  10.016  0.2124  0.0820  0.0731
   37loPI   GL2  582   6.865  15.508   9.739  0.1391 -0.0255 -0.1412
   37loPI   C1A  583   6.746  15.008   9.648  0.1392 -0.2098 -0.2427
   37loPI   C2A  584   6.489  14.868   9.290 -0.0121 -0.0220  0.0248
   37loPI   C3A  585   6.223  14.802   8.907 -0.1167  0.2381 -0.1240
   37loPI   C4A  586   6.209  14.804   8.532  0.1525 -0.0625  0.2899
   37loPI   C5A  587   6.173  14.868   8.100 -0.0176 -0.1991  0.0247
   37loPI   C6A  588   6.226  14.923   7.609  0.1551 -0.1868 -0.1662
   37loPI   C1B  589   6.748  15.329   9.294  0.0334 -0.1632 -0.3920
   37loPI   C2B  590   6.680  15.179   8.790  0.6536 -0.1810  0.1274
   37loPI   C3B  591   6.622  15.188   8.318  0.0435 -0.0833  0.1022
   37loPI   C4B  592   6.630  15.180   7.846  0.3023 -0.0234 -0.0038
   38loPI    C1  593   0.201  14.574  10.457 -0.1198 -0.0167  0.0419
   38loPI    C2  594   0.011  14.234  10.548 -0.1752  0.0115  0.0317
   38loPI    C3  595  -0.062  14.567  10.759  0.0949 -0.0527  0.2311
   38loPI   PO4  596   0.317  14.539  10.172 -0.0371  0.1145 -0.4339
   38loPI   GL1  597   0.260  14.521   9.712  0.2517  0.1936  0.1176
   38loPI   GL2  598   0.329  14.211   9.838 -0.1496  0.2249  0.0218
   38loPI   C1A  599   0.468  14.516   9.411 -0.1118  0.3320  0.0806
   38loPI   C2A  600   0.814  14.425   9.285 -0.1442 -0.3904 -0.0541
   38loPI   C3A  601   0.930  14.454   8.851 -0.1309 -0.0930  0.1781
   38loPI   C4A  602   1.011  14.594   8.444 -0.3021  0.0788 -0.1292
   38loPI   C5A  603   1.258  14.619   8.062 -0.0539 -0.4990 -0.2131
   38loPI   C6A  604   1.560  14.643   7.731 -0.1369  0.3933  0.0183
   38loPI   C1B  605   0.449  14.047   9.419  0.1331  0.2450  0.1427
   38loPI   C2B  606   0.506  14.151   9.001 -0.2129  0.1536 -0.3114
   38loPI   C3B  607   0.581  14.163   8.638  0.0888  0.2007 -0.0276
   38loPI   C4B  608   0.767  14.111   8.203  0.0577  0.2524  0.1668
   39loPI    C1  609  12.317  12.862  10.979  0.2353 -0.1077 -0.2545
   39loPI    C2  610  12.280  12.489  11.118 -0.0153  0.0978  0.2579
   39loPI    C3  611  11.955  12.717  11.069  0.1625  0.3542  0.2521
   39loPI   PO4  612  12.421  12.831  10.804  0.0447 -0.0651  0.1901
   39loPI   GL1  613  12.306  12.859  10.369 -0.0643 -0.2360 -0.0645
   39loPI   GL2  614  12.201  12.694  10.188 -0.2850 -0.1735 -0.0932
   39loPI   C1A  615  12.456  13.148  10.044  0.0335  0.0898  0.1918
   39loPI   C2A  616  12.479  13.282   9.551  0.1279  0.1747  0.0071
   39loPI   C3A  617  12.492  13.207   9.104 -0.4318 -0.1278  0.0211
   39loPI   C4A  618  12.789  13.390   8.789 -0.1024  0.0360  0.0199
   39loPI   C5A  619  13.099  13.233   8.447 -0.0937 -0.3968  0.2728
   39loPI   C6A  620  13.500  13.250   8.198  0.2381  0.3817  0.0180
   39loPI   C1B  621  11.964  12.419   9.844  0.1180  0.4361  0.2099
   39loPI   C2B  622  11.800  12.423   9.507 -0.0899 -0.2179 -0.0049
   39loPI   C3B  623  11.590  12.560   9.039 -0.2860 -0.1111  0.1414
   39loPI   C4B  624  11.495  12.675   8.728 -0.1050  0.3325 -0.1264
   40loPI    C1  625   3.368   7.311  10.241  0.1657 -0.4353 -0.1545
   40loPI    C2  626   3.116   7.143  10.503 -0.1697  0.2121 -0.0426
   40loPI    C3  627   2.975   7.375  10.209  0.2655  0.1637 -0.2991
   40loPI   PO4  628   3.607   7.282  10.396  0.0100  0.3104  0.0455
   40loPI   GL1  629   4.007   7.209  10.073  0.0562  0.0931  0.1454
   40loPI   GL2  630   4.135   6.972   9.901 -0.1524 -0.1925 -0.1698
   40loPI   C1A  631   3.703   7.116   9.683 -0.0209  0.0671  0.0289
   40loPI   C2A  632   3.563   7.124   9.172  0.0876 -0.0261 -0.2481
   40loPI   C3A  633   3.401   7.343   8.773 -0.2885  0.1911 -0.2284
   40loPI   C4A  634   3.347   7.662   8.640 -0.1227 -0.0567 -0.1212
   40loPI   C5A  635   2.934   7.889   8.605  0.0630  0.5939 -0.1345
   40loPI   C6A  636   2.738   7.804   8.227  0.0853  0.3741  0.1113
   40loPI   C1B  637   4.282   6.821   9.560  0.1290  0.1043 -0.1284
   40loPI   C2B  638   4.380   6.766   9.187 -0.4307 -0.2119  0.3870
   40loPI   C3B  639   4.384   6.588   8.698  0.1945 -0.0413  0.0383
   40loPI   C4B  640   4.552   6.589   8.246  0.8241 -0.1364  0.1210
   41loPI    C1  641   1.267  10.780  10.573  0.0132 -0.0195 -0.0983
   41loPI    C2  642   1.338  11.017  10.888  0.1321 -0.0116 -0.1306
   41loPI    C3  643   1.363  10.620  10.927 -0.0352 -0.0185 -0.0846
   41loPI   PO4  644   1.258  10.967  10.341  0.2170  0.0658 -0.1352
   41loPI   GL1  645   1.006  10.882   9.873  0.0413  0.0206 -0.1187
   41loPI   GL2  646   0.954  11.145   9.699  0.0019  0.1736 -0.0491
   41loPI   C1A  647   0.828  10.426   9.815  0.0182  0.0154  0.1829
   41loPI   C2A  648   0.685  10.118   9.409  0.1337  0.2301  0.1300
   41loPI   C3A  649   0.714   9.876   9.019  0.0998 -0.2405 -0.2380
   41loPI   C4A  650   0.631   9.906   8.593  0.0275 -0.2663 -0.1949
   41loPI   C5A  651   0.633  10.078   8.195 -0.0798 -0.1251 -0.1356
   41loPI   C6A  652   0.647  10.567   8.177  0.1231  0.2597  0.1156
   41loPI   C1B  653   0.949  11.038   9.212  0.1656 -0.1777  0.2658
   41loPI   C2B  654   0.960  10.912   8.823  0.2270 -0.0492  0.0356
   41loPI   C3B  655   1.126  10.944   8.446  0.3090  0.0594 -0.3670
   41loPI   C4B  656   1.280  10.853   8.029  0.3081 -0.2666  0.0066
   42loPI    C1  657   7.459   6.843  10.958 -0.0706 -0.0588 -0.0317
   42loPI    C2  658   7.180   6.744  11.227 -0.0855  0.0601 -0.0026
   42loPI    C3  659   7.542   6.575  11.243 -0.2040 -0.2117 -0.1352
   42loPI   PO4  660   7.228   6.876  10.715 -0.0978 -0.1041  0.0862
   42loPI   GL1  661   7.149   6.930  10.326  0.1600 -0.0561 -0.1995
   42loPI   GL2  662   7.080   6.582  10.318  0.2835  0.0164  0.0863
   42loPI   C1A  663   7.361   6.863   9.934  0.1649  0.1748 -0.3183
   42loPI   C2A  664   7.221   6.723   9.552 -0.4251 -0.2335 -0.0096
   42loPI   C3A  665   7.002   6.608   9.094  0.2001 -0.2832 -0.1500
   42loPI   C4A  666   6.803   6.831   8.719  0.2628  0.0924  0.1422
   42loPI   C5A  667   6.819   7.130   8.429  0.1134  0.1452 -0.1344
   42loPI   C6A  668   6.551   7.536   8.320 -0.1718  0.0242  0.0096
   42loPI   C1B  669   6.751   6.495   9.947 -0.0135 -0.3382 -0.2035
   42loPI   C2B  670   6.587   6.596   9.564 -0.2116  0.0638 -0.0109
   42loPI   C3B  671   6.474   6.801   9.323  0.1766 -0.0945  0.0781
   42loPI   C4B  672   6.329   7.101   8.998 -0.0334 -0.2435 -0.0027
   43loPI    C1  673  12.860   3.062  10.315  0.1471  0.1494  0.0259
   43loPI    C2  674  12.513   3.211  10.448  0.1523  0.1785  0.0070
   43loPI    C3  675  12.850   3.420  10.494  0.1906  0.0851  0.1584
   43loPI   PO4  676  12.786   2.951  10.009 -0.0785  0.0609  0.1935
   43loPI   GL1  677  12.988   3.041   9.637 -0.0741 -0.3186  0.1241
   43loPI   GL2  678  13.272   2.876   9.608 -0.1116 -0.0201  0.0157
   43loPI   C1A  679  13.372   3.338   9.447 -0.1444 -0.3192 -0.2356
   43loPI   C2A  680  13.510   3.741   9.399 -0.4361 -0.0098  0.3732
   43loPI   C3A  681  13.570   4.178   9.195  0.1495 -0.2326  0.0492
   43loPI   C4A  682  13.539   4.284   8.771  0.0377 -0.0036 -0.1127
   43loPI   C5A  683  13.287   4.479   8.496 -0.2489 -0.1926  0.0192
   43loPI   C6A  684  12.838   4.530   8.435  0.1584  0.0582  0.1019
   43loPI   C1B  685  13.183   3.109   9.111 -0.1235  0.3965  0.1084
   43loPI   C2B  686  13.224   3.249   8.768  0.1670 -0.0117  0.1397
   43loPI   C3B  687  13.017   3.451   8.442  0.0568 -0.2046  0.1986
   43loPI   C4B  688  12.865   3.717   8.056 -0.0968  0.0120  0.3509
   44loPI    C1  689  11.648  14.160  10.623 -0.2900 -0.2770 -0.1989
   44loPI    C2  690  11.371  14.281  10.884 -0.3145 -0.1427 -0.2861
   44loPI    C3  691  11.708  14.112  11.016 -0.1950  0.1933 -0.1496
   44loPI   PO4  692  11.550  14.258  10.387 -0.2208 -0.0817  0.0299
   44loPI   GL1  693  11.468  14.124  10.090  0.0400 -0.2373  0.0790
   44loPI   GL2  694  11.308  13.790   9.993 -0.1100 -0.1946  0.1676
   44loPI   C1A  695  11.639  14.242   9.705 -0.1861  0.0559 -0.2310
   44loPI   C2A  696  11.739  14.293   9.292  0.2485 -0.2734  0.2237
   44loPI   C3A  697  12.015  14.464   8.957 -0.2501 -0.0201 -0.3401
   44loPI   C4A  698  11.866  14.393   8.529  0.0025  0.1097 -0.0596
   44loPI   C5A  699  11.465  14.288   8.340 -0.2829 -0.1135 -0.1012
   44loPI   C6A  700  11.171  14.012   8.501  0.1809 -0.1748  0.0526
   44loPI   C1B  701  11.480  13.785   9.550 -0.0650  0.4966  0.3065
   44loPI   C2B  702  11.704  13.837   9.176 -0.1741  0.0073  0.0432
   44loPI   C3B  703  11.792  13.805   8.691 -0.0406  0.0730 -0.0059
   44loPI   C4B  704  11.995  13.864   8.254  0.1900  0.0637 -0.0480
   45loPI    C1  705  14.179   1.899  10.402 -0.1200 -0.0320  0.1565
   45loPI    C2  706  14.288   2.059  10.752 -0.0816  0.0255  0.1183
   45loPI    C3  707  14.102   2.284  10.478 -0.1621 -0.0340  0.1240
   45loPI   PO4  708  14.430   1.690  10.280  0.1195  0.1043 -0.1848
   45loPI   GL1  709  14.838   1.671  10.000  0.0349  0.0341 -0.0312
   45loPI   GL2  710  14.735   1.325   9.819  0.0695  0.1635 -0.1914
   45loPI   C1A  711  15.129   1.741   9.622  0.4276 -0.0600 -0.0959
   45loPI   C2A  712  15.370   1.491   9.240 -0.0885  0.1969  0.1272
   45loPI   C3A  713  15.319   1.427   8.829  0.0655  0.1418 -0.0088
   45loPI   C4A  714  15.000   1.605   8.564 -0.0031 -0.0410 -0.1664
   45loPI   C5A  715  14.910   1.631   8.194 -0.2406  0.1497  0.1755
   45loPI   C6A  716  15.155   1.918   8.001 -0.0445 -0.1155 -0.2806
   45loPI   C1B  717  14.868   1.338   9.373  0.1778  0.0828 -0.2782
   45loPI   C2B  718  14.743   1.318   8.934 -0.1639 -0.1325 -0.0672
   45loPI   C3B  719  14.599   1.240   8.538  0.2112  0.0042  0.2747
   45loPI   C4B  720  14.223   0.842   8.385 -0.0569  0.1366 -0.1253
   46loPI    C1  721  14.361   8.767  11.137  0.0310  0.0940 -0.0063
   46loPI    C2  722  14.072   8.491  11.116  0.1057  0.0385 -0.3521
   46loPI    C3  723  14.256   8.561  11.464 -0.3654  0.1205 -0.1122
   46loPI   PO4  724  14.271   8.854  10.810 -0.1381  0.2227  0.2416
   46loPI   GL1  725  14.184   8.589  10.497 -0.0101  0.2458  0.2168
   46loPI   GL2  726  13.964   8.209  10.520  0.4853 -0.1816  0.0403
   46loPI   C1A  727  14.350   8.637  10.003  0.0799  0.0009 -0.2509
   46loPI   C2A  728  14.707   8.697   9.695 -0.2897  0.2197 -0.0451
   46loPI   C3A  729  14.834   8.766   9.281 -0.2120 -0.3219 -0.0332
   46loPI   C4A  730  14.683   8.692   8.855  0.4422  0.0526  0.1633
   46loPI   C5A  731  14.511   8.966   8.551  0.4729 -0.1861  0.0483
   46loPI   C6A  732  14.620   9.092   8.173  0.1547 -0.0659  0.2266
   46loPI   C1B  733  13.900   8.455  10.066 -0.0255  0.1751  0.1701
   46loPI   C2B  734  13.974   8.478   9.723  0.0674 -0.2515 -0.0332
   46loPI   C3B  735  14.129   8.192   9.463  0.3824 -0.0915 -0.3469
   46loPI   C4B  736  14.316   7.777   9.424  0.2229  0.0450  0.1979
   47loPI    C1  737  12.577  17.843  10.852  0.3790  0.0815  0.0221
   47loPI    C2  738  12.290  18.086  10.988 -0.0230 -0.2695 -0.1764
   47loPI    C3  739  12.670  18.146  11.096 -0.1191  0.3994 -0.1660
   47loPI   PO4  740  12.426  17.711  10.527 -0.1466 -0.3702  0.0389
   47loPI   GL1  741  12.499  17.890  10.137  0.1739 -0.1794 -0.0557
   47loPI   GL2  742  12.600  18.295  10.107  0.0077 -0.1086 -0.0511
   47loPI   C1A  743  12.670  17.873   9.813  0.1216  0.1565 -0.0006
   47loPI   C2A  744  12.740  17.929   9.398  0.0271 -0.0569 -0.0824
   47loPI   C3A  745  12.829  18.055   9.044 -0.0739  0.0730 -0.3539
   47loPI   C4A  746  12.854  17.963   8.638 -0.2598  0.1006  0.0289
   47loPI   C5A  747  12.568  17.985   8.285 -0.3482  0.1315  0.0976
   47loPI   C6A  748  12.387  18.340   8.143 -0.0058  0.1271 -0.2917
   47loPI   C1B  749  12.368  18.315   9.788  0.1129  0.1756  0.0489
   47loPI   C2B  750  12.016  18.226   9.574 -0.0913  0.0832  0.1644
   47loPI   C3B  751  11.743  17.923   9.496  0.1212 -0.0730  0.0569
   47loPI   C4B  752  11.598  17.759   9.777  0.1238 -0.0707  0.2097
   48loPI    C1  753  11.520   5.274  10.847 -0.1280 -0.3362  0.0388
   48loPI    C2  754  11.129   5.342  10.899 -0.0094  0.2664  0.2282
   48loPI    C3  755  11.336   5.142  11.177 -0.1702 -0.0273  0.1417
   48loPI   PO4  756  11.555   5.434  10.607  0.0290  0.2836  0.0007
   48loPI   GL1  757  11.586   5.394  10.172 -0.0663 -0.0413 -0.1732
   48loPI   GL2  758  11.828   5.454   9.980  0.1083 -0.0098  0.1386
   48loPI   C1A  759  11.317   5.327   9.855 -0.0612 -0.0717  0.2086
   48loPI   C2A  760  11.207   5.302   9.502  0.0388  0.1635 -0.1485
   48loPI   C3A  761  11.228   5.233   9.089 -0.0187  0.2387  0.0839
   48loPI   C4A  762  11.214   5.347   8.734 -0.0925 -0.0401 -0.1680
   48loPI   C5A  763  11.031   5.541   8.404  0.0097  0.2027  0.3866
   48loPI   C6A  764  10.902   5.750   8.008 -0.0265 -0.5237 -0.0389
   48loPI   C1B  765  11.720   5.428   9.527 -0.0835 -0.1520 -0.4140
   48loPI   C2B  766  11.694   5.443   9.103  0.1820 -0.1556 -0.1805
   48loPI   C3B  767  11.808   5.506   8.710  0.3097  0.0182 -0.0680
   48loPI   C4B  768  11.829   5.433   8.251  0.0522  0.0054 -0.1540
   49loPI    C1  769   0.954   5.336  10.543  0.2351 -0.1030 -0.2547
   49loPI    C2  770   0.850   5.039  10.790 -0.0603  0.0603 -0.1772
   49loPI    C3  771   1.229   5.168  10.780 -0.0680  0.1354  0.2857
   49loPI   PO4  772   0.637   5.305  10.418  0.1360 -0.0204  0.0458
   49loPI   GL1  773   0.634   5.528  10.129 -0.0663  0.0868  0.4872
   49loPI   GL2  774   0.605   5.132   9.947 -0.0917 -0.2285 -0.0400
   49loPI   C1A  775   0.798   5.628   9.782  0.0377  0.0692  0.0143
   49loPI   C2A  776   0.911   5.533   9.295 -0.3086  0.3981  0.1700
   49loPI   C3A  777   1.018   5.345   8.906 -0.0221 -0.0169 -0.0275
   49loPI   C4A  778   1.255   5.190   8.493  0.1961  0.0282 -0.4765
   49loPI   C5A  779   1.537   5.169   8.223  0.1594 -0.5078 -0.3007
   49loPI   C6A  780   1.738   4.801   8.340  0.4208  0.0542 -0.1482
   49loPI   C1B  781   0.682   5.086   9.596 -0.1158  0.0949 -0.1806
   49loPI   C2B  782   0.646   5.015   9.111  0.3915 -0.0189 -0.2182
   49loPI   C3B  783   0.276   5.002   8.816 -0.3539  0.1974  0.2374
   49loPI   C4B  784  -0.201   5.160   8.746 -0.4888  0.1196 -0.0146
   50loPI    C1  785   1.736  15.383  10.256  0.0699 -0.0056  0.1609
   50loPI    C2  786   1.901  15.293  10.609  0.0013 -0.1562  0.1549
   50loPI    C3  787   1.519  15.198  10.536 -0.0226 -0.0095  0.0870
   50loPI   PO4  788   1.987  15.281  10.077  0.0656  0.1617 -0.1571
   50loPI   GL1  789   1.987  15.101   9.714  0.0839 -0.2948 -0.0229
   50loPI   GL2  790   2.189  14.917   9.677  0.0150 -0.1949 -0.0424
   50loPI   C1A  791   1.995  15.194   9.312  0.0050  0.1641  0.1726
   50loPI   C2A  792   2.072  15.283   8.906  0.2880 -0.3644  0.0586
   50loPI   C3A  793   2.095  15.230   8.463 -0.0631  0.0420  0.0356
   50loPI   C4A  794   2.311  15.495   8.279 -0.1353  0.1918 -0.0304
   50loPI   C5A  795   2.373  15.938   8.165  0.1828 -0.0207  0.1299
   50loPI   C6A  796   2.137  16.421   8.034 -0.0454  0.0316 -0.0924
   50loPI   C1B  797   2.449  15.032   9.543 -0.2929 -0.0778  0.0115
   50loPI   C2B  798   2.835  15.272   9.623  0.1607 -0.2557 -0.0230
   50loPI   C3B  799   2.992  15.664   9.356  0.1258 -0.0095  0.1757
   50loPI   C4B  800   2.734  15.873   9.128 -0.3546  0.0298 -0.2167
   51loPI    C1  801   2.322   2.903   9.995  0.0404 -0.2245 -0.1484
   51loPI    C2  802   2.208   3.131  10.303 -0.1310 -0.1999 -0.2286
   51loPI    C3  803   2.438   3.285  10.015 -0.0037 -0.2117 -0.1341
   51loPI   PO4  804   2.144   2.742   9.929  0.1856  0.1310 -0.2186
   51loPI   GL1  805   1.955   2.477   9.690 -0.1122  0.1029  0.0180
   51loPI   GL2  806   1.707   2.768   9.695  0.0021  0.0662 -0.1560
   51loPI   C1A  807   2.138   2.488   9.331 -0.0062 -0.1141  0.3498
   51loPI   C2A  808   1.989   2.637   8.883 -0.2250  0.0211  0.0805
   51loPI   C3A  809   1.923   2.715   8.338  0.2418  0.1048  0.2904
   51loPI   C4A  810   1.684   2.722   8.018  0.1279  0.0798 -0.2017
   51loPI   C5A  811   1.420   2.804   7.742  0.0810 -0.1533  0.0331
   51loPI   C6A  812   1.262   3.016   7.468  0.0374  0.1925 -0.5022
   51loPI   C1B  813   1.849   2.911   9.312  0.0643  0.1343  0.0258
   51loPI   C2B  814   1.643   3.067   8.960  0.1940 -0.5071 -0.0340
   51loPI   C3B  815   1.293   3.198   8.759 -0.3791 -0.2106  0.2934
   51loPI   C4B  816   1.109   3.424   8.438 -0.2710  0.0182 -0.0566
   52loPI    C1  817   7.521   8.909  11.031  0.2092  0.5471  0.3180
   52loPI    C2  818   7.243   8.922  11.318 -0.0648 -0.0461  0.0957
   52loPI    C3  819   7.554   8.673  11.352  0.2412  0.3347  0.1607
   52loPI   PO4  820   7.381   8.744  10.758 -0.0445 -0.1736  0.2476
   52loPI   GL1  821   7.279   8.376  10.605 -0.0751 -0.2809  0.1139
   52loPI   GL2  822   7.109   8.509  10.358  0.1045  0.2220  0.0274
   52loPI   C1A  823   7.516   8.332  10.163 -0.0586 -0.2679 -0.1145
   52loPI   C2A  824   7.471   8.228   9.823 -0.0711  0.0412 -0.0295
   52loPI   C3A  825   7.639   8.272   9.385  0.0248  0.1599  0.1202
   52loPI   C4A  826   7.684   8.232   8.931  0.0355  0.1475  0.1320
   52loPI   C5A  827   7.543   7.893   8.708 -0.0561 -0.0091 -0.2552
   52loPI   C6A  828   7.449   7.682   8.222 -0.0894  0.2091 -0.2630
   52loPI   C1B  829   6.881   8.287   9.943  0.3587  0.1726 -0.3155
   52loPI   C2B  830   7.009   8.145   9.597 -0.0571  0.1323  0.0124
   52loPI   C3B  831   7.183   8.101   9.183  0.1941  0.2234 -0.2992
   52loPI   C4B  832   7.165   8.295   8.799  0.2062  0.1239  0.0966
   53loPI    C1  833   2.000   9.402  10.499 -0.2128  0.2689 -0.0612
   53loPI    C2  834   2.209   9.216  10.785 -0.0509  0.1467 -0.2554
   53loPI    C3  835   1.819   9.290  10.837 -0.1271 -0.2766 -0.1857
   53loPI   PO4  836   2.219   9.449  10.294  0.3043 -0.0455 -0.1977
   53loPI   GL1  837   2.343   9.337   9.902  0.3115 -0.1810  0.2456
   53loPI   GL2  838   2.064   9.146   9.955 -0.4366  0.1199 -0.3447
   53loPI   C1A  839   2.401   9.078   9.564  0.2300  0.0912  0.1594
   53loPI   C2A  840   2.460   9.074   9.148  0.0867 -0.2184 -0.0321
   53loPI   C3A  841   2.370   9.128   8.758  0.0864  0.0888  0.1393
   53loPI   C4A  842   2.239   9.483   8.486  0.0958  0.0501  0.0125
   53loPI   C5A  843   1.854   9.676   8.300 -0.0226  0.2288 -0.0202
   53loPI   C6A  844   1.600  10.076   8.304  0.0597 -0.0928  0.1697
   53loPI   C1B  845   1.805   9.224   9.684  0.3387 -0.2877 -0.0060
   53loPI   C2B  846   1.453   9.282   9.404  0.2648 -0.4398  0.0393
   53loPI   C3B  847   1.239   9.568   9.110  0.1343  0.0540  0.1198
   53loPI   C4B  848   1.075   9.592   8.702 -0.0162 -0.2413  0.0272
   54loPI    C1  849   5.339   4.980  11.029 -0.4085  0.0811 -0.1013
   54loPI    C2  850   5.129   4.835  11.337 -0.0475  0.0440  0.1326
   54loPI    C3  851   5.005   5.165  11.148 -0.2464  0.0967  0.3501
   54loPI   PO4  852   5.371   4.719  10.780  0.3649 -0.0342  0.0782
   54loPI   GL1  853   5.501   4.694  10.339 -0.1299 -0.0618  0.0916
   54loPI   GL2  854   5.773   4.461  10.349 -0.0314  0.2186 -0.1889
   54loPI   C1A  855   5.346   4.818   9.959  0.0566 -0.0956 -0.0676
   54loPI   C2A  856   5.316   4.821   9.570 -0.3008  0.0133 -0.1597
   54loPI   C3A  857   5.361   4.909   9.140 -0.1347  0.1823  0.1257
   54loPI   C4A  858   5.469   5.111   8.746  0.1761 -0.1374 -0.1132
   54loPI   C5A  859   5.769   5.320   8.628  0.0145  0.0998 -0.1547
   54loPI   C6A  860   6.131   5.422   8.482  0.0477  0.2582 -0.0831
   54loPI   C1B  861   5.624   4.402   9.929  0.0515 -0.0839 -0.0679
   54loPI   C2B  862   5.711   4.559   9.589  0.2117  0.1689 -0.1469
   54loPI   C3B  863   5.860   4.684   9.201  0.1769 -0.2316  0.0156
   54loPI   C4B  864   5.801   4.705   8.801  0.0109  0.1741 -0.4664
   55loPI    C1  865   0.589  16.183  10.475 -0.3316 -0.3146  0.2941
   55loPI    C2  866   0.738  15.846  10.630  0.1092 -0.1523  0.2397
   55loPI    C3  867   0.860  16.201  10.769 -0.0939 -0.0112  0.0643
   55loPI   PO4  868   0.633  16.145  10.223  0.0307 -0.3821 -0.2192
   55loPI   GL1  869   0.847  16.291   9.899  0.1064  0.1215 -0.0421
   55loPI   GL2  870   0.940  16.037   9.839 -0.1502 -0.2316 -0.2548
   55loPI   C1A  871   1.127  16.459   9.518 -0.1259  0.2016  0.3112
   55loPI   C2A  872   1.136  16.347   9.067  0.1556  0.1611 -0.0573
   55loPI   C3A  873   1.092  16.313   8.624  0.0365 -0.0009 -0.0328
   55loPI   C4A  874   0.942  16.189   8.228 -0.0829  0.0503 -0.1900
   55loPI   C5A  875   0.501  16.280   8.000 -0.1994  0.1133 -0.2635
   55loPI   C6A  876   0.189  16.257   7.628  0.2831 -0.3264  0.1651
   55loPI   C1B  877   0.876  16.004   9.381  0.1168 -0.1106  0.0521
   55loPI   C2B  878   0.725  15.885   8.887 -0.0536  0.4749 -0.1910
   55loPI   C3B  879   0.841  15.762   8.470 -0.0184 -0.3318  0.1470
   55loPI   C4B  880   0.760  15.450   8.207 -0.1234  0.2390  0.2543
   56loPI    C1  881  14.973   1.952  10.601  0.0398 -0.1685  0.0488
   56loPI    C2  882  14.670   1.743  10.758  0.0182 -0.0438  0.1755
   56loPI    C3  883  15.042   1.689  10.895  0.0724 -0.2792 -0.0574
   56loPI   PO4  884  14.809   2.025  10.397  0.1666  0.1547 -0.3995
   56loPI   GL1  885  14.527   2.011   9.914  0.0381 -0.3892 -0.1091
   56loPI   GL2  886  14.496   2.200  10.047 -0.2452 -0.0796 -0.0723
   56loPI   C1A  887  14.638   1.856   9.511 -0.0557 -0.0083 -0.3857
   56loPI   C2A  888  14.835   1.754   9.082 -0.1672 -0.3510 -0.4160
   56loPI   C3A  889  14.758   2.062   8.752 -0.0045 -0.0674 -0.0751
   56loPI   C4A  890  14.704   2.232   8.372 -0.0942 -0.0774 -0.4017
   56loPI   C5A  891  14.764   2.664   8.229  0.4515  0.0431  0.1441
   56loPI   C6A  892  14.660   2.848   7.799  0.2385 -0.2088 -0.1264
   56loPI   C1B  893  14.353   2.347   9.656 -0.1472  0.1547  0.1451
   56loPI   C2B  894  14.386   2.174   9.156 -0.1828 -0.0270  0.0927
   56loPI   C3B  895  14.207   2.149   8.808 -0.0152  0.1904  0.1298
   56loPI   C4B  896  14.143   2.111   8.382  0.2394 -0.0688  0.0092
   57loPI    C1  897  17.645  14.566  10.556  0.0286 -0.0089 -0.1033
   57loPI    C2  898  17.539  14.859  10.304 -0.1851  0.1243  0.1361
   57loPI    C3  899  17.378  14.842  10.670 -0.0337 -0.1868  0.1918
   57loPI   PO4  900  17.677  14.336  10.373  0.0528 -0.2549  0.0894
   57loPI   GL1  901  17.674  14.490   9.922  0.2700  0.0617 -0.1312
   57loPI   GL2  902  17.641  14.742   9.726  0.1909 -0.0319 -0.0176
   57loPI   C1A  903  18.004  14.536   9.576  0.2206  0.3044  0.1991
   57loPI   C2A  904  18.229  14.545   9.280 -0.0590 -0.1805 -0.2592
   57loPI   C3A  905  18.451  14.545   8.896 -0.1720  0.0456 -0.2392
   57loPI   C4A  906  18.484  14.559   8.518 -0.1478  0.2504 -0.2565
   57loPI   C5A  907  18.380  14.589   8.136  0.2242 -0.0743  0.1557
   57loPI   C6A  908  18.273  15.045   7.976 -0.4196  0.0564  0.1292
   57loPI   C1B  909  17.554  14.624   9.374  0.1492  0.0996  0.2894
   57loPI   C2B  910  17.468  14.658   8.988  0.1459 -0.1576 -0.0529
   57loPI   C3B  911  17.483  14.473   8.640 -0.0664  0.5370 -0.0938
   57loPI   C4B  912  17.542  14.385   8.265 -0.0697  0.2277 -0.1396
   58loPI    C1  913  10.508   2.523  10.522 -0.1253  0.0889 -0.1671
   58loPI    C2  914  10.817   2.415  10.751 -0.3166 -0.0868  0.0129
   58loPI    C3  915  10.688   2.794  10.754  0.0950  0.0640 -0.3064
   58loPI   PO4  916  10.561   2.244  10.361 -0.2088 -0.2085 -0.1139
   58loPI   GL1  917  10.818   2.225  10.104  0.1766 -0.2139  0.0156
   58loPI   GL2  918  11.068   2.076   9.858  0.3522  0.0462 -0.1876
   58loPI   C1A  919  10.689   2.448   9.651 -0.1199  0.0129  0.0345
   58loPI   C2A  920  10.703   2.439   9.229 -0.4146 -0.2302  0.1521
   58loPI   C3A  921  10.624   2.491   8.860  0.0423  0.0487  0.1993
   58loPI   C4A  922  10.666   2.672   8.383 -0.1042 -0.1895 -0.0915
   58loPI   C5A  923  10.617   2.997   8.136  0.1738 -0.1694  0.1606
   58loPI   C6A  924  10.456   3.322   8.025  0.3089  0.2848 -0.0211
   58loPI   C1B  925  11.055   2.120   9.436  0.0677  0.2027 -0.1059
   58loPI   C2B  926  11.024   2.184   8.935  0.0541 -0.1078  0.0535
   58loPI   C3B  927  10.846   2.154   8.542 -0.0007 -0.2840 -0.4275
   58loPI   C4B  928  10.700   2.333   8.081 -0.1370 -0.1074 -0.0139
   59loPI    C1  929   6.264  13.674  10.164 -0.0336  0.1202 -0.0733
   59loPI    C2  930   6.521  13.840  10.422  0.2299 -0.1355 -0.1662
   59loPI    C3  931   6.511  13.964  10.042 -0.1064  0.1896 -0.0563
   59loPI   PO4  932   6.294  13.361  10.225  0.1089  0.0041 -0.0351
   59loPI   GL1  933   6.299  13.061  10.038 -0.0716  0.2127  0.1596
   59loPI   GL2  934   6.585  12.927  10.063  0.0140  0.1032 -0.1715
   59loPI   C1A  935   6.400  13.045   9.597  0.2045 -0.1992  0.2273
   59loPI   C2A  936   6.322  12.986   9.069 -0.0866  0.3365 -0.3274
   59loPI   C3A  937   6.524  12.784   8.679  0.0485 -0.0060 -0.1641
   59loPI   C4A  938   6.725  12.540   8.530  0.0171  0.2702  0.1283
   59loPI   C5A  939   6.876  12.064   8.390  0.1588 -0.0027 -0.1319
   59loPI   C6A  940   7.270  11.878   8.420 -0.1015  0.0474 -0.4003
   59loPI   C1B  941   6.857  12.826   9.713  0.0504 -0.1622  0.0299
   59loPI   C2B  942   6.870  12.711   9.322  0.3000  0.1186 -0.4911
   59loPI   C3B  943   6.918  12.644   8.968  0.3562  0.2766 -0.1970
   59loPI   C4B  944   7.256  12.403   8.678  0.1915 -0.1384  0.3078
   60loPI    C1  945   2.360   6.880  10.543  0.1345 -0.1128 -0.0449
   60loPI    C2  946   2.553   7.085  10.260  0.1384 -0.0917 -0.0270
   60loPI    C3  947   2.694   6.732  10.382  0.0499 -0.1757 -0.1645
   60loPI   PO4  948   2.068   6.905  10.528 -0.2861  0.1077  0.1485
   60loPI   GL1  949   1.698   7.049  10.218  0.1810  0.0134 -0.1937
   60loPI   GL2  950   2.000   7.167  10.086 -0.1165  0.0525  0.2898
   60loPI   C1A  951   1.582   6.735   9.878  0.1059  0.0972 -0.4079
   60loPI   C2A  952   1.340   6.532   9.665  0.0414 -0.0924 -0.0967
   60loPI   C3A  953   1.465   6.204   9.366 -0.0445 -0.1003  0.3502
   60loPI   C4A  954   1.390   6.337   8.951  0.1700 -0.1275 -0.2088
   60loPI   C5A  955   1.236   6.368   8.540  0.2276 -0.0762 -0.2798
   60loPI   C6A  956   1.149   6.617   8.251  0.0476  0.1253  0.2209
   60loPI   C1B  957   1.839   7.109   9.569 -0.1807 -0.0512 -0.1632
   60loPI   C2B  958   2.019   7.387   9.247  0.1645  0.1522  0.2086
   60loPI   C3B  959   2.302   7.506   8.897  0.2745  0.3372 -0.1927
   60loPI   C4B  960   2.447   7.824   8.668 -0.1586  0.2475 -0.0823
   61loPI    C1  961  18.037  10.636  10.484 -0.0947 -0.0993 -0.0051
   61loPI    C2  962  17.758  10.582  10.765 -0.1678 -0.2317 -0.1019
   61loPI    C3  963  18.126  10.433  10.817 -0.1288 -0.1005  0.0032
   61loPI   PO4  964  17.972  10.480  10.156  0.1306 -0.1952  0.0441
   61loPI   GL1  965  18.216  10.185  10.002 -0.1509 -0.0794  0.1214
   61loPI   GL2  966  18.045   9.930  10.087  0.2151  0.1032 -0.3658
   61loPI   C1A  967  18.104  10.241   9.530 -0.0472  0.1049  0.0431
   61loPI   C2A  968  18.019  10.238   9.073 -0.0799 -0.0679 -0.2813
   61loPI   C3A  969  18.024  10.413   8.746 -0.0808 -0.0795 -0.2178
   61loPI   C4A  970  17.833  10.459   8.311 -0.3597 -0.0297  0.1580
   61loPI   C5A  971  17.422  10.279   8.167 -0.1284 -0.0375  0.3855
   61loPI   C6A  972  17.063  10.345   8.111 -0.1135 -0.1874  0.1648
   61loPI   C1B  973  17.718   9.917   9.839 -0.0557 -0.2149  0.1396
   61loPI   C2B  974  17.517   9.912   9.500 -0.3292 -0.5583  0.1662
   61loPI   C3B  975  17.370   9.943   9.024 -0.1494 -0.1424 -0.2643
   61loPI   C4B  976  17.488  10.255   8.638  0.1119  0.2334 -0.2608
   62loPI    C1  977  14.083   3.480  10.433  0.1096  0.1665  0.1515
   62loPI    C2  978  14.436   3.496  10.620  0.2376  0.0404 -0.0742
   62loPI    C3  979  14.149   3.253  10.756  0.3413 -0.0758 -0.0607
   62loPI   PO4  980  14.129   3.527  10.202 -0.3408  0.0998  0.0335
   62loPI   GL1  981  14.256   3.791   9.923 -0.0231 -0.0899  0.2558
   62loPI   GL2  982  14.414   4.040   9.810  0.0993  0.0716 -0.1136
   62loPI   C1A  983  13.954   3.640   9.576  0.0555  0.0085  0.3071
   62loPI   C2A  984  13.773   3.410   9.169 -0.0802  0.2570  0.0358
   62loPI   C3A  985  13.672   3.673   8.803  0.0891 -0.0191  0.3460
   62loPI   C4A  986  13.788   3.582   8.500 -0.1879 -0.0678  0.1252
   62loPI   C5A  987  13.930   3.451   8.158  0.2849  0.0129  0.1040
   62loPI   C6A  988  14.132   3.547   7.791 -0.6152 -0.2303 -0.3343
   62loPI   C1B  989  14.518   4.192   9.525  0.1179 -0.0010 -0.1418
   62loPI   C2B  990  14.498   4.092   9.002  0.1700 -0.1466  0.1705
   62loPI   C3B  991  14.581   3.892   8.673  0.1938 -0.3403  0.1099
   62loPI   C4B  992  14.793   3.557   8.516 -0.0425 -0.0920 -0.3119
   63loPI    C1  993  14.135   9.682  10.690 -0.1219  0.0366 -0.0765
   63loPI    C2  994  14.373   9.372  10.602 -0.1093  0.0843 -0.2128
   63loPI    C3  995  14.532   9.723  10.709 -0.1255 -0.0045  0.1139
   63loPI   PO4  996  13.953   9.652  10.540  0.0919 -0.3847  0.2325
   63loPI   GL1  997  13.871   9.339  10.243 -0.0438  0.0209  0.0337
   63loPI   GL2  998  13.903   8.907  10.281 -0.2067 -0.1080 -0.1290
   63loPI   C1A  999  13.887   9.395   9.787  0.1370 -0.2218  0.0386
   63loPI   C2A 1000  13.901   9.504   9.269 -0.0770  0.0008 -0.1236
   63loPI   C3A 1001  13.799   9.564   8.853 -0.3973 -0.1129 -0.1166
   63loPI   C4A 1002  13.684   9.638   8.425 -0.2540  0.3529  0.0913
   63loPI   C5A 1003  13.377   9.685   8.126  0.2190  0.2245  0.0678
   63loPI   C6A 1004  13.088   9.350   8.166  0.1167  0.0498 -0.0125
   63loPI   C1B 1005  13.781   8.899   9.915 -0.2163 -0.0189 -0.0314
   63loPI   C2B 1006  13.699   8.979   9.500  0.4235 -0.1306  0.2351
   63loPI   C3B 1007  13.750   9.029   9.098 -0.2483 -0.0782 -0.1330
   63loPI   C4B 1008  13.766   9.061   8.694 -0.2553  0.3657  0.3320
   64loPI    C1 1009  15.997   7.077  10.942 -0.1473  0.0529  0.0903
   64loPI    C2 1010  15.905   6.727  10.771 -0.1600  0.0080  0.1885
   64loPI    C3 1011  16.052   6.736  11.143  0.0855  0.0895  0.0917
   64loPI   PO4 1012  16.138   7.205  10.717 -0.0089  0.1638  0.0965
   64loPI   GL1 1013  16.047   7.461  10.336 -0.0934 -0.2009 -0.1325
   64loPI   GL2 1014  16.261   7.669  10.157  0.1736  0.1849 -0.0852
   64loPI   C1A 1015  15.813   7.386   9.906  0.2994 -0.1012 -0.1778
   64loPI   C2A 1016  15.675   7.328   9.510  0.0668  0.0240 -0.2469
   64loPI   C3A 1017  15.698   7.465   9.108  0.2326  0.1544  0.2644
   64loPI   C4A 1018  15.733   7.224   8.723 -0.2087  0.0007  0.2667
   64loPI   C5A 1019  15.624   6.913   8.421 -0.0634  0.2101  0.0985
   64loPI   C6A 1020  15.497   6.602   8.151 -0.1587  0.1166  0.0108
   64loPI   C1B 1021  16.567   7.850   9.970  0.0953  0.1863  0.0326
   64loPI   C2B 1022  16.593   7.937   9.537 -0.0510 -0.0969 -0.1970
   64loPI   C3B 1023  16.496   8.338   9.194 -0.1679 -0.0490 -0.2252
   64loPI   C4B 1024  16.363   8.602   8.809 -0.0560 -0.0245 -0.1951
   65loPI    C1 1025   0.934   6.991  10.990  0.2011  0.1350  0.2547
   65loPI    C2 1026   0.619   6.825  11.172 -0.0133 -0.0013 -0.2244
   65loPI    C3 1027   0.643   7.223  11.136  0.0230  0.0262  0.0767
   65loPI   PO4 1028   0.990   6.855  10.765 -0.0526  0.2652  0.0867
   65loPI   GL1 1029   0.951   6.881  10.373 -0.2874 -0.0118 -0.0719
   65loPI   GL2 1030   0.883   7.161  10.322 -0.0036  0.3691  0.3829
   65loPI   C1A 1031   1.183   7.017   9.975  0.2236  0.2064 -0.0766
   65loPI   C2A 1032   1.220   7.030   9.591 -0.2438  0.0275 -0.2730
   65loPI   C3A 1033   1.301   6.854   9.146  0.2055  0.5040  0.1945
   65loPI   C4A 1034   1.504   6.762   8.683 -0.0103 -0.2496  0.1048
   65loPI   C5A 1035   1.736   6.674   8.313 -0.2095 -0.1220 -0.1324
   65loPI   C6A 1036   1.959   6.962   8.070  0.1396 -0.0526 -0.2223
   65loPI   C1B 1037   0.900   7.420   9.852 -0.0116  0.2437  0.1068
   65loPI   C2B 1038   0.914   7.446   9.457 -0.0803  0.1930  0.0107
   65loPI   C3B 1039   1.048   7.248   9.085  0.3030  0.0288  0.1026
   65loPI   C4B 1040   1.076   7.008   8.665  0.0129  0.0814 -0.3581
   66loPI    C1 1041   8.634   9.520  11.030  0.1424 -0.0233 -0.0825
   66loPI    C2 1042   8.446   9.210  11.200 -0.1720  0.0816 -0.2310
   66loPI    C3 1043   8.631   9.481  11.428  0.0337 -0.1675 -0.0964
   66loPI   PO4 1044   8.462   9.718  10.859 -0.0661 -0.0878  0.1380
   66loPI   GL1 1045   8.444   9.654  10.409  0.1410 -0.0650 -0.2885
   66loPI   GL2 1046   8.278   9.947  10.374 -0.0743  0.0593  0.2411
   66loPI   C1A 1047   8.929   9.510  10.145 -0.2415  0.2402  0.2236
   66loPI   C2A 1048   8.987   9.623   9.756 -0.3020  0.0434  0.2453
   66loPI   C3A 1049   8.917   9.635   9.306  0.3055  0.1808 -0.5690
   66loPI   C4A 1050   9.083   9.852   8.983  0.1940  0.0247 -0.3439
   66loPI   C5A 1051   9.090   9.899   8.489 -0.1559 -0.4927 -0.1764
   66loPI   C6A 1052   9.286  10.244   8.283  0.2446 -0.1192 -0.2660
   66loPI   C1B 1053   8.683   9.943  10.093 -0.0403  0.0726  0.0506
   66loPI   C2B 1054   8.847  10.071   9.655  0.0800 -0.0386  0.2098
   66loPI   C3B 1055   8.975  10.228   9.267 -0.1396 -0.1440  0.0231
   66loPI   C4B 1056   9.060  10.279   8.820 -0.0974 -0.4417  0.0289
   67loPI    C1 1057   8.114   8.915  10.580 -0.4359  0.2431 -0.3193
   67loPI    C2 1058   8.350   9.214  10.702  0.0350 -0.2195 -0.0532
   67loPI    C3 1059   8.013   9.132  10.901  0.0486 -0.0455  0.0438
   67loPI   PO4 1060   8.190   8.611  10.469  0.1642 -0.1066 -0.3014
   67loPI   GL1 1061   8.002   8.376  10.107 -0.2255 -0.2324 -0.1944
   67loPI   GL2 1062   8.295   8.276  10.091 -0.1167  0.2497 -0.0689
   67loPI   C1A 1063   8.060   8.436   9.695 -0.1166  0.0368  0.1818
   67loPI   C2A 1064   8.098   8.405   9.192 -0.2067 -0.4728 -0.2530
   67loPI   C3A 1065   8.026   8.611   8.763  0.0135  0.0464 -0.1179
   67loPI   C4A 1066   7.831   8.898   8.438 -0.1661 -0.0911  0.0590
   67loPI   C5A 1067   7.576   8.940   8.143  0.2456  0.2033 -0.1840
   67loPI   C6A 1068   7.123   8.882   7.911 -0.0395  0.0108  0.1832
   67loPI   C1B 1069   8.425   8.084   9.769  0.0961 -0.2363 -0.1686
   67loPI   C2B 1070   8.427   8.029   9.272 -0.0020 -0.0541 -0.0887
   67loPI   C3B 1071   8.642   8.120   8.936 -0.5933 -0.1878  0.3680
   67loPI   C4B 1072   9.009   8.199   8.589 -0.0784 -0.3105  0.1223
   68loPI    C1 1073   5.082   4.334  11.049  0.2718  0.0042  0.1369
   68loPI    C2 1074   4.877   4.667  10.964  0.3145  0.0643  0.2662
   68loPI    C3 1075   4.771   4.442  11.277  0.1235 -0.1851  0.0277
   68loPI   PO4 1076   5.064   4.256  10.732 -0.0442 -0.0505 -0.0386
   68loPI   GL1 1077   4.906   4.144  10.276 -0.0017  0.1225  0.1426
   68loPI   GL2 1078   5.238   4.196  10.294 -0.3776  0.4027 -0.3116
   68loPI   C1A 1079   5.131   4.011   9.894 -0.0325 -0.2087  0.3350
   68loPI   C2A 1080   5.216   4.265   9.537  0.0868  0.0559 -0.0681
   68loPI   C3A 1081   5.583   4.241   9.187  0.2690 -0.0663 -0.1061
   68loPI   C4A 1082   5.607   4.165   8.703 -0.3341 -0.1419 -0.0491
   68loPI   C5A 1083   5.923   4.387   8.502 -0.1527  0.0475 -0.2503
   68loPI   C6A 1084   5.970   4.729   8.292 -0.2097  0.0179  0.1272
   68loPI   C1B 1085   4.945   4.539   9.890  0.0279  0.0038 -0.4178
   68loPI   C2B 1086   4.883   4.537   9.441 -0.2452 -0.1242  0.1479
   68loPI   C3B 1087   4.946   4.685   8.922 -0.2444 -0.0413 -0.0078
   68loPI   C4B 1088   4.852   4.794   8.479  0.1173  0.2260 -0.5715
   69loPI    C1 1089  12.348  12.000  10.992  0.0470  0.4160  0.0960
   69loPI    C2 1090  12.653  11.857  11.209  0.0398 -0.0033 -0.1580
   69loPI    C3 1091  12.277  11.813  11.339  0.0599  0.1309 -0.0518
   69loPI   PO4 1092  12.545  12.182  10.841  0.1126  0.0081 -0.0123
   69loPI   GL1 1093  12.836  12.158  10.475  0.1495 -0.0223 -0.0053
   69loPI   GL2 1094  12.482  12.258  10.280  0.2528  0.0180  0.0592
   69loPI   C1A 1095  12.701  11.801  10.239  0.2077 -0.0089  0.0467
   69loPI   C2A 1096  12.465  11.656   9.917 -0.1293 -0.1585  0.0532
   69loPI   C3A 1097  12.330  11.373   9.658  0.0634  0.0398  0.0903
   69loPI   C4A 1098  12.209  11.366   9.196 -0.0315 -0.0077  0.2390
   69loPI   C5A 1099  11.961  11.084   8.868 -0.0708  0.0635  0.1922
   69loPI   C6A 1100  11.740  10.924   8.586  0.0160 -0.2225 -0.1523
   69loPI   C1B 1101  12.556  12.128   9.869 -0.0865 -0.2803 -0.3481
   69loPI   C2B 1102  12.364  12.406   9.507 -0.0438  0.3314  0.0537
   69loPI   C3B 1103  12.667  12.706   9.259  0.0461 -0.1953  0.0909
   69loPI   C4B 1104  12.827  12.880   8.917  0.1011 -0.1540  0.1337
   70loPI    C1 1105   2.778   8.567  10.498  0.0925 -0.0651 -0.0458
   70loPI    C2 1106   2.782   8.369  10.151  0.0813  0.1399 -0.1644
   70loPI    C3 1107   3.063   8.644  10.228  0.0003  0.1973 -0.0721
   70loPI   PO4 1108   2.426   8.543  10.515  0.2478 -0.2119 -0.1075
   70loPI   GL1 1109   2.294   8.639  10.083  0.1065  0.3333  0.3239
   70loPI   GL2 1110   2.008   8.582   9.989  0.1736  0.3143 -0.4658
   70loPI   C1A 1111   2.660   8.735   9.883 -0.0140 -0.2981 -0.2282
   70loPI   C2A 1112   3.020   8.476   9.744 -0.0957  0.0653 -0.0704
   70loPI   C3A 1113   3.027   8.365   9.267  0.1243  0.0313  0.3076
   70loPI   C4A 1114   3.094   8.535   9.022 -0.1531 -0.0483 -0.1214
   70loPI   C5A 1115   3.043   8.354   8.567 -0.1305 -0.0091  0.0325
   70loPI   C6A 1116   3.000   8.205   8.150 -0.2374 -0.1842  0.1407
   70loPI   C1B 1117   2.020   8.790   9.557 -0.0756  0.1932 -0.1944
   70loPI   C2B 1118   1.774   8.946   9.179  0.1872 -0.0783  0.1218
   70loPI   C3B 1119   1.683   8.722   8.744  0.0025  0.0072 -0.0258
   70loPI   C4B 1120   1.742   8.619   8.323  0.1014 -0.0823  0.1143
   71loPI    C1 1121  17.145   4.693  10.563  0.0450 -0.1688 -0.1310
   71loPI    C2 1122  17.093   4.592  10.947 -0.1867  0.0235 -0.1096
   71loPI    C3 1123  17.345   4.888  10.850 -0.1152 -0.0363 -0.1076
   71loPI   PO4 1124  16.970   4.733  10.437  0.2447  0.1781  0.0028
   71loPI   GL1 1125  16.999   4.658   9.985  0.0036 -0.2731  0.1568
   71loPI   GL2 1126  16.724   4.885  10.036  0.2297 -0.0221 -0.2174
   71loPI   C1A 1127  17.161   4.657   9.559 -0.2169  0.1037  0.3114
   71loPI   C2A 1128  17.347   4.523   9.263  0.1781 -0.1630 -0.3620
   71loPI   C3A 1129  17.604   4.730   9.052  0.0561  0.1414  0.1840
   71loPI   C4A 1130  17.700   4.733   8.569 -0.2231  0.2864  0.3078
   71loPI   C5A 1131  17.942   4.803   8.194  0.0683 -0.0060  0.0839
   71loPI   C6A 1132  17.899   4.712   7.780 -0.2922  0.0311 -0.0565
   71loPI   C1B 1133  16.676   4.861   9.653  0.0665 -0.0398  0.1821
   71loPI   C2B 1134  16.876   4.859   9.260 -0.0477 -0.0391 -0.0917
   71loPI   C3B 1135  17.140   4.860   8.920 -0.3197  0.0325  0.0316
   71loPI   C4B 1136  17.212   4.776   8.461  0.2209  0.1843 -0.2837
   72loPI    C1 1137   1.084  11.895  10.629 -0.0335  0.1211 -0.0004
   72loPI    C2 1138   0.838  11.844  10.941  0.0733  0.2817  0.1118
   72loPI    C3 1139   1.111  12.137  10.947  0.1667  0.2006 -0.0762
   72loPI   PO4 1140   0.947  11.948  10.366  0.1633  0.0815 -0.1800
   72loPI   GL1 1141   0.913  11.832   9.989  0.1310  0.2161 -0.0509
   72loPI   GL2 1142   0.626  11.976   9.933  0.1527  0.1794 -0.1156
   72loPI   C1A 1143   0.814  11.773   9.460  0.1048 -0.4139 -0.0645
   72loPI   C2A 1144   0.815  11.791   9.099  0.6079 -0.1792 -0.0356
   72loPI   C3A 1145   1.045  11.845   8.813 -0.0417 -0.2988 -0.0707
   72loPI   C4A 1146   1.154  11.984   8.447 -0.1478  0.2218 -0.5093
   72loPI   C5A 1147   0.939  11.789   8.048  0.0678 -0.0172  0.1061
   72loPI   C6A 1148   0.886  11.947   7.686  0.3281 -0.3606 -0.0207
   72loPI   C1B 1149   0.464  12.185   9.636  0.0502 -0.3627  0.0261
   72loPI   C2B 1150   0.530  12.176   9.216  0.0979 -0.1945  0.0991
   72loPI   C3B 1151   0.587  12.266   8.858 -0.4208  0.0556 -0.1935
   72loPI   C4B 1152   0.442  12.448   8.537 -0.1484 -0.0134  0.1645
   73loPI    C1 1153  15.398   3.016  10.308 -0.0733  0.2840  0.0047
   73loPI    C2 1154  15.525   3.297  10.563  0.1843  0.0629  0.1252
   73loPI    C3 1155  15.359   2.961  10.702  0.5354 -0.1608  0.0174
   73loPI   PO4 1156  15.591   3.047  10.109  0.1599 -0.1148 -0.6319
   73loPI   GL1 1157  15.688   3.179   9.811 -0.3568  0.1356  0.3359
   73loPI   GL2 1158  15.321   3.202   9.722 -0.1667  0.2283 -0.1954
   73loPI   C1A 1159  15.853   3.481   9.468  0.0803  0.2497 -0.0176
   73loPI   C2A 1160  16.017   3.457   8.964  0.3141 -0.1514 -0.2026
   73loPI   C3A 1161  15.793   3.424   8.536  0.1099 -0.0403  0.1565
   73loPI   C4A 1162  15.585   3.304   8.096 -0.2227 -0.2866 -0.1802
   73loPI   C5A 1163  15.269   3.228   7.850  0.4054 -0.0359  0.0365
   73loPI   C6A 1164  14.922   3.163   8.151  0.1040  0.0863 -0.2442
   73loPI   C1B 1165  15.377   3.237   9.269  0.0351 -0.1819  0.0491
   73loPI   C2B 1166  15.188   3.362   8.830 -0.1785  0.3039 -0.0835
   73loPI   C3B 1167  15.285   3.468   8.433  0.1897 -0.2536  0.1685
   73loPI   C4B 1168  15.049   3.611   8.029 -0.6472  0.0535  0.0409
   74loPI    C1 1169  10.522   0.894  10.709 -0.2155 -0.0382  0.0687
   74loPI    C2 1170  10.768   1.147  10.898  0.0733 -0.1472 -0.1529
   74loPI    C3 1171  10.533   0.900  11.109 -0.0382  0.1371  0.0626
   74loPI   PO4 1172  10.630   0.811  10.517  0.1476  0.1084 -0.3072
   74loPI   GL1 1173  10.909   0.706  10.294 -0.0178 -0.1503  0.0747
   74loPI   GL2 1174  11.059   0.942  10.088  0.1040  0.1075 -0.2329
   74loPI   C1A 1175  10.800   0.601   9.774 -0.3973  0.1403 -0.2128
   74loPI   C2A 1176  10.801   0.607   9.303 -0.1828  0.0506 -0.4589
   74loPI   C3A 1177  10.756   0.634   8.831 -0.1134 -0.2854  0.2334
   74loPI   C4A 1178  10.593   0.732   8.479  0.2352 -0.2780  0.0066
   74loPI   C5A 1179  10.628   0.924   8.193  0.1932 -0.0913  0.0243
   74loPI   C6A 1180  10.634   1.019   7.850  0.2944 -0.3912  0.1620
   74loPI   C1B 1181  11.163   0.829   9.582  0.1344  0.1213  0.1270
   74loPI   C2B 1182  11.151   0.942   9.159 -0.0454  0.3151  0.2417
   74loPI   C3B 1183  11.362   0.818   8.747  0.0190 -0.0297 -0.2177
   74loPI   C4B 1184  11.101   0.719   8.388  0.0486 -0.0636 -0.2732
   75loPI    C1 1185   4.139   9.149  10.554 -0.1753 -0.1768 -0.0370
   75loPI    C2 1186   4.149   8.750  10.546  0.0790 -0.1753  0.1242
   75loPI    C3 1187   4.009   8.940  10.869 -0.0141 -0.1333  0.0594
   75loPI   PO4 1188   3.994   9.172  10.365 -0.0527 -0.2119  0.3168
   75loPI   GL1 1189   4.159   9.136   9.905 -0.3142 -0.1271 -0.0095
   75loPI   GL2 1190   4.117   8.802  10.004  0.1043  0.2683 -0.0863
   75loPI   C1A 1191   4.221   9.298   9.437 -0.0696 -0.1951  0.0614
   75loPI   C2A 1192   4.285   9.210   8.993 -0.0040  0.0391  0.3980
   75loPI   C3A 1193   4.336   9.068   8.673 -0.2025 -0.1014 -0.2576
   75loPI   C4A 1194   4.418   8.931   8.232  0.0435  0.0386  0.1487
   75loPI   C5A 1195   4.322   8.747   7.870 -0.1569 -0.1265  0.2339
   75loPI   C6A 1196   4.268   8.330   7.830 -0.1814  0.5446 -0.3187
   75loPI   C1B 1197   4.095   8.584   9.632  0.0818  0.1382  0.1891
   75loPI   C2B 1198   4.052   8.799   9.179 -0.1475  0.0362 -0.0983
   75loPI   C3B 1199   3.990   8.618   8.686 -0.1092 -0.1675 -0.0277
   75loPI   C4B 1200   3.997   8.529   8.250 -0.2558  0.2709  0.3205
   76loPI    C1 1201   1.427  17.589  10.274  0.1705  0.0324  0.0976
   76loPI    C2 1202   1.310  17.662   9.899  0.2823 -0.0287  0.0504
   76loPI    C3 1203   1.037  17.598  10.185  0.1991 -0.1287 -0.0501
   76loPI   PO4 1204   1.633  17.388  10.185 -0.1450 -0.7481 -0.2876
   76loPI   GL1 1205   1.809  17.025   9.863 -0.0961  0.2193 -0.2719
   76loPI   GL2 1206   1.476  16.828   9.767  0.0062  0.0189  0.0997
   76loPI   C1A 1207   1.697  17.171   9.491 -0.1958 -0.4885  0.2251
   76loPI   C2A 1208   1.636  17.245   9.016  0.0455  0.2491  0.0741
   76loPI   C3A 1209   1.745  17.297   8.542  0.0816  0.1745 -0.2812
   76loPI   C4A 1210   2.075  17.464   8.206 -0.3392  0.4854 -0.1297
   76loPI   C5A 1211   2.303  17.905   8.100  0.0684  0.0645  0.0985
   76loPI   C6A 1212   2.241  18.211   7.823 -0.2877 -0.2123 -0.0596
   76loPI   C1B 1213   1.709  16.639   9.507  0.1335  0.5093 -0.1450
   76loPI   C2B 1214   2.112  16.500   9.293  0.0236  0.0350  0.0640
   76loPI   C3B 1215   2.070  16.340   8.856  0.2437 -0.0687  0.2417
   76loPI   C4B 1216   2.156  16.183   8.529 -0.0244  0.0497 -0.1183
   77loPI    C1 1217   3.571  17.197  10.834  0.1338  0.0507  0.0104
   77loPI    C2 1218   3.362  17.077  11.153  0.2210 -0.2272 -0.0344
   77loPI    C3 1219   3.739  17.202  11.198  0.1163  0.0782  0.0181
   77loPI   PO4 1220   3.324  17.417  10.730 -0.1074 -0.0682  0.3433
   77loPI   GL1 1221   3.399  17.650  10.382  0.0358  0.0633  0.0376
   77loPI   GL2 1222   3.500  17.985  10.334  0.4297 -0.0636 -0.0469
   77loPI   C1A 1223   3.280  17.648   9.995  0.0154  0.1931 -0.0152
   77loPI   C2A 1224   3.382  17.624   9.578  0.4062 -0.4836 -0.1097
   77loPI   C3A 1225   3.413  17.887   9.189  0.1142  0.1634  0.2104
   77loPI   C4A 1226   3.604  17.822   8.820  0.1241  0.0360 -0.1084
   77loPI   C5A 1227   3.485  17.793   8.341  0.0161  0.2141  0.3246
   77loPI   C6A 1228   3.590  17.892   7.853  0.2768  0.2531 -0.0228
   77loPI   C1B 1229   3.568  18.036   9.862  0.1089 -0.2311 -0.1341
   77loPI   C2B 1230   3.814  17.946   9.575 -0.2376  0.0874 -0.1048
   77loPI   C3B 1231   3.908  17.548   9.396  0.0707 -0.2278 -0.2434
   77loPI   C4B 1232   4.186  17.289   9.233  0.2499  0.3158  0.0264
   78loPI    C1 1233  14.921  16.512  10.670  0.4394  0.1506  0.0083
   78loPI    C2 1234  14.854  16.619  11.050 -0.0720 -0.2423  0.0397
   78loPI    C3 1235  15.098  16.838  10.821  0.0438  0.1440  0.5151
   78loPI   PO4 1236  14.647  16.460  10.572 -0.1932 -0.0107  0.0481
   78loPI   GL1 1237  14.453  16.270  10.217  0.0038  0.0262  0.3330
   78loPI   GL2 1238  14.129  16.069  10.152 -0.0870 -0.0457  0.2609
   78loPI   C1A 1239  14.427  16.404   9.855 -0.1008  0.0936  0.0860
   78loPI   C2A 1240  14.428  16.546   9.493 -0.0537 -0.0613 -0.1111
   78loPI   C3A 1241  14.642  16.542   9.151  0.1580 -0.3362  0.3887
   78loPI   C4A 1242  14.814  16.320   8.877  0.2796 -0.0824  0.1153
   78loPI   C5A 1243  14.784  15.901   8.673 -0.1165 -0.1637 -0.5720
   78loPI   C6A 1244  14.434  15.835   8.565 -0.1465  0.1926 -0.1397
   78loPI   C1B 1245  14.111  15.999   9.775  0.0030  0.1504  0.0496
   78loPI   C2B 1246  14.292  15.714   9.418  0.4474 -0.0751  0.0508
   78loPI   C3B 1247  14.055  15.516   9.102 -0.0134  0.0127  0.0376
   78loPI   C4B 1248  13.974  15.496   8.571  0.0137 -0.0366  0.0853
   79loPI    C1 1249  14.088  10.664  10.854  0.4064 -0.1794 -0.2147
   79loPI    C2 1250  14.432  10.763  11.032  0.1638  0.1338  0.0964
   79loPI    C3 1251  14.144  11.037  10.987 -0.0616 -0.1326 -0.1291
   79loPI   PO4 1252  14.148  10.514  10.677  0.1080 -0.2207  0.1753
   79loPI   GL1 1253  14.094  10.378  10.193  0.0159 -0.0131  0.1115
   79loPI   GL2 1254  13.840  10.411  10.250 -0.1033 -0.2264  0.0890
   79loPI   C1A 1255  14.241  10.460   9.715  0.1250 -0.0598  0.2456
   79loPI   C2A 1256  13.994  10.644   9.293  0.5056  0.1563 -0.0530
   79loPI   C3A 1257  14.098  10.605   8.849 -0.2163  0.2261 -0.1292
   79loPI   C4A 1258  13.960  10.427   8.329  0.0689 -0.0812  0.0494
   79loPI   C5A 1259  13.577  10.315   8.119  0.4147  0.2235  0.1523
   79loPI   C6A 1260  13.312  10.106   7.920  0.1175 -0.2068  0.3813
   79loPI   C1B 1261  13.660  10.272   9.896 -0.0464 -0.2413  0.2905
   79loPI   C2B 1262  13.596  10.402   9.481  0.2629 -0.1641  0.0822
   79loPI   C3B 1263  13.505  10.472   9.047 -0.0674 -0.0218  0.0356
   79loPI   C4B 1264  13.593  10.506   8.606 -0.1408  0.2983  0.0489
   80loPI    C1 1265   8.875  15.620  10.783 -0.2329  0.0054 -0.0263
   80loPI    C2 1266   8.541  15.723  10.977 -0.0664  0.2764  0.1235
   80loPI    C3 1267   8.897  15.770  11.153  0.0486 -0.0921 -0.0011
   80loPI   PO4 1268   8.773  15.603  10.543 -0.3035 -0.0555 -0.0414
   80loPI   GL1 1269   8.646  15.594  10.104 -0.0160 -0.3654 -0.1451
   80loPI   GL2 1270   8.271  15.628   9.909  0.2913  0.1556  0.0908
   80loPI   C1A 1271   8.735  15.450   9.698 -0.0711  0.3303 -0.1448
   80loPI   C2A 1272   8.883  15.387   9.195 -0.1095 -0.0951 -0.0842
   80loPI   C3A 1273   8.872  15.278   8.678 -0.3804  0.0078  0.1425
   80loPI   C4A 1274   8.922  15.176   8.258 -0.1209 -0.3162  0.0296
   80loPI   C5A 1275   8.969  15.017   7.873  0.2018  0.1233  0.2447
   80loPI   C6A 1276   9.105  15.060   7.383  0.0955 -0.1905  0.1483
   80loPI   C1B 1277   8.331  15.519   9.525  0.0138  0.1419 -0.1518
   80loPI   C2B 1278   8.455  15.521   9.020 -0.1430 -0.5412 -0.1246
   80loPI   C3B 1279   8.424  15.488   8.563 -0.0554 -0.1758  0.1409
   80loPI   C4B 1280   8.472  15.412   8.096  0.1190  0.0085  0.1958
   81loPI    C1 1281  15.200   4.937  10.471 -0.0449 -0.1370  0.0605
   81loPI    C2 1282  15.377   4.653  10.690  0.2280  0.0947  0.1463
   81loPI    C3 1283  15.186   4.955  10.871  0.2032  0.1305  0.0605
   81loPI   PO4 1284  15.059   4.804  10.240 -0.0753 -0.2476  0.1363
   81loPI   GL1 1285  14.612   4.898  10.031 -0.1132 -0.0138 -0.2708
   81loPI   GL2 1286  14.686   5.097   9.768  0.0059  0.1282  0.4071
   81loPI   C1A 1287  14.358   4.677   9.678  0.3011  0.1361 -0.0248
   81loPI   C2A 1288  14.277   4.546   9.310 -0.3761 -0.0276 -0.1149
   81loPI   C3A 1289  14.300   4.471   8.777 -0.1131 -0.0297 -0.0355
   81loPI   C4A 1290  14.436   4.402   8.322  0.1642 -0.0771  0.1136
   81loPI   C5A 1291  14.699   4.096   8.110 -0.3522  0.0556 -0.1311
   81loPI   C6A 1292  15.165   4.184   7.924 -0.3535  0.2084  0.0073
   81loPI   C1B 1293  14.718   5.029   9.322 -0.3413  0.0387  0.1796
   81loPI   C2B 1294  14.688   4.996   8.834 -0.1286 -0.1888 -0.0147
   81loPI   C3B 1295  14.672   4.933   8.451 -0.0451  0.0960 -0.2559
   81loPI   C4B 1296  14.700   5.253   8.058 -0.3514 -0.0264  0.1026
   82loPI    C1 1297  16.995   8.165  10.763  0.0769  0.3046  0.0944
   82loPI    C2 1298  17.157   8.013  11.096  0.0382  0.0880  0.0155
   82loPI    C3 1299  16.831   8.243  11.120  0.0998  0.1635  0.1365
   82loPI   PO4 1300  17.118   7.993  10.578 -0.2100  0.1295 -0.2273
   82loPI   GL1 1301  17.186   8.031  10.180  0.0139 -0.1321 -0.1349
   82loPI   GL2 1302  16.909   8.227  10.131 -0.1611 -0.0350 -0.0713
   82loPI   C1A 1303  17.457   7.879   9.944  0.0829  0.0987 -0.2949
   82loPI   C2A 1304  17.723   7.655   9.669  0.1236 -0.0245  0.1625
   82loPI   C3A 1305  17.824   7.827   9.226 -0.3278 -0.1592 -0.1685
   82loPI   C4A 1306  17.753   7.893   8.799 -0.1720  0.0316 -0.0246
   82loPI   C5A 1307  17.818   8.234   8.458 -0.1749 -0.1661  0.3474
   82loPI   C6A 1308  17.741   8.419   8.011 -0.1361  0.0029  0.0026
   82loPI   C1B 1309  17.045   8.187   9.705 -0.3904  0.2055 -0.0980
   82loPI   C2B 1310  16.939   8.220   9.209 -0.1567  0.0038  0.2506
   82loPI   C3B 1311  16.850   8.341   8.823 -0.0507  0.1356 -0.1542
   82loPI   C4B 1312  16.769   8.085   8.412 -0.0698  0.0109  0.1863
   83loPI    C1 1313   7.390  18.146  10.618  0.0186 -0.1183 -0.1346
   83loPI    C2 1314   7.077  18.177  10.865  0.1083 -0.1922 -0.0099
   83loPI    C3 1315   7.442  18.278  10.992  0.1671 -0.3046 -0.0881
   83loPI   PO4 1316   7.277  18.274  10.394 -0.0906 -0.2539  0.0086
   83loPI   GL1 1317   7.528  18.467  10.077 -0.1675 -0.2095  0.0625
   83loPI   GL2 1318   7.378  18.729   9.890  0.2531  0.0346 -0.1999
   83loPI   C1A 1319   7.383  18.229   9.675  0.2929  0.1094  0.1997
   83loPI   C2A 1320   7.354  18.279   9.211 -0.2487 -0.2645  0.1074
   83loPI   C3A 1321   7.389  18.140   8.879  0.0616 -0.0874  0.3139
   83loPI   C4A 1322   7.262  18.060   8.484  0.0412 -0.3389  0.0802
   83loPI   C5A 1323   7.069  18.435   8.273 -0.1229 -0.1316 -0.2896
   83loPI   C6A 1324   6.794  18.719   8.438 -0.1171 -0.0401  0.0740
   83loPI   C1B 1325   7.684  18.669   9.655 -0.0835 -0.1959 -0.2702
   83loPI   C2B 1326   7.762  18.672   9.294  0.0505 -0.2123 -0.1248
   83loPI   C3B 1327   7.810  18.533   8.936  0.1217  0.1977  0.2589
   83loPI   C4B 1328   7.920  18.657   8.479 -0.0015  0.0951 -0.0081
   84loPI    C1 1329   1.538  11.909  10.042  0.0984  0.0822  0.0112
   84loPI    C2 1330   1.372  11.700  10.340 -0.0086  0.1233 -0.0191
   84loPI    C3 1331   1.670  11.955  10.417 -0.2531  0.3769  0.1042
   84loPI   PO4 1332   1.337  12.096   9.940 -0.1865 -0.2121 -0.0614
   84loPI   GL1 1333   1.492  12.373   9.629  0.2415  0.1985 -0.0841
   84loPI   GL2 1334   1.050  12.292   9.547  0.0993  0.1782  0.0368
   84loPI   C1A 1335   1.606  12.358   9.193  0.0340  0.2065  0.1766
   84loPI   C2A 1336   1.615  12.510   8.831 -0.2192  0.0585 -0.1792
   84loPI   C3A 1337   1.534  12.388   8.512 -0.1097 -0.1980  0.0626
   84loPI   C4A 1338   1.556  12.539   8.129 -0.0620  0.2800 -0.2263
   84loPI   C5A 1339   1.850  12.464   7.889 -0.2802 -0.1720 -0.0594
   84loPI   C6A 1340   2.132  12.494   7.526 -0.2549 -0.2241 -0.0603
   84loPI   C1B 1341   1.070  12.302   9.169  0.0970 -0.0495  0.2976
   84loPI   C2B 1342   1.086  12.461   8.731 -0.0466  0.0684 -0.0127
   84loPI   C3B 1343   0.969  12.369   8.260 -0.0577 -0.0853  0.1988
   84loPI   C4B 1344   1.058  12.370   7.819 -0.0412 -0.0060 -0.2649
   85loPI    C1 1345  15.514   4.092  10.459 -0.0939 -0.0026  0.2952
   85loPI    C2 1346  15.276   3.771  10.472 -0.0831 -0.0210  0.0795
   85loPI    C3 1347  15.568   3.815  10.742 -0.0436 -0.2248  0.0716
   85loPI   PO4 1348  15.659   4.080  10.125 -0.0606  0.2652 -0.2443
   85loPI   GL1 1349  15.897   3.973   9.742  0.0534  0.1807 -0.1854
   85loPI   GL2 1350  16.139   3.802   9.889 -0.0078 -0.0242 -0.0099
   85loPI   C1A 1351  15.976   3.926   9.306  0.0719  0.2437 -0.1748
   85loPI   C2A 1352  15.931   4.075   8.954  0.0448  0.0231 -0.1103
   85loPI   C3A 1353  15.885   4.402   8.609 -0.2310 -0.2125  0.0492
   85loPI   C4A 1354  15.661   4.853   8.433  0.3587 -0.0237 -0.1093
   85loPI   C5A 1355  15.960   5.106   8.306 -0.1468 -0.0424  0.2871
   85loPI   C6A 1356  16.161   5.457   8.178 -0.3885 -0.1017 -0.0169
   85loPI   C1B 1357  16.465   3.923   9.682  0.0256 -0.1843  0.0539
   85loPI   C2B 1358  16.513   3.921   9.243  0.0874  0.1780  0.0465
   85loPI   C3B 1359  16.393   3.890   8.883  0.0522  0.1600  0.0504
   85loPI   C4B 1360  16.149   3.758   8.619 -0.1646  0.2993  0.0130
   86loPI    C1 1361  14.310   0.037  10.312 -0.1314  0.0171 -0.0559
   86loPI    C2 1362  14.336  -0.325  10.479 -0.0210  0.1566  0.2379
   86loPI    C3 1363  14.603  -0.043  10.573  0.1873  0.1725 -0.3582
   86loPI   PO4 1364  14.294  -0.033  10.037 -0.3473 -0.0161 -0.0537
   86loPI   GL1 1365  14.508  -0.202   9.724 -0.0732  0.2820 -0.0787
   86loPI   GL2 1366  14.526  -0.478   9.945 -0.1150  0.1413  0.1198
   86loPI   C1A 1367  14.470  -0.451   9.409  0.1390 -0.3194 -0.0054
   86loPI   C2A 1368  14.557  -0.631   8.950  0.0164  0.1533  0.1565
   86loPI   C3A 1369  14.571  -0.858   8.618 -0.1073 -0.2384 -0.0382
   86loPI   C4A 1370  14.714  -1.246   8.235  0.2911 -0.1654 -0.1411
   86loPI   C5A 1371  14.879  -1.638   7.980 -0.1997 -0.1051  0.1207
   86loPI   C6A 1372  15.202  -1.804   7.757  0.0204 -0.2549 -0.0958
   86loPI   C1B 1373  14.393  -0.831   9.762  0.2005 -0.0426  0.1160
   86loPI   C2B 1374  14.245  -0.955   9.297 -0.4056  0.0151  0.1313
   86loPI   C3B 1375  13.878  -0.980   9.071  0.0395  0.2570  0.1368
   86loPI   C4B 1376  13.607  -1.108   8.820 -0.1132 -0.2120  0.0423
   87loPI    C1 1377  15.441   1.322  10.315 -0.1416 -0.0411  0.0993
   87loPI    C2 1378  15.663   1.010  10.197 -0.2449 -0.0740 -0.0103
   87loPI    C3 1379  15.510   1.020  10.567  0.1383  0.0613  0.1494
   87loPI   PO4 1380  15.228   1.223  10.107 -0.0964 -0.0678 -0.0923
   87loPI   GL1 1381  15.277   0.889   9.894 -0.0639  0.0261 -0.2135
   87loPI   GL2 1382  15.222   1.018   9.666 -0.1942 -0.0553  0.1973
   87loPI   C1A 1383  14.924   0.709   9.641 -0.2446 -0.3061 -0.0463
   87loPI   C2A 1384  14.719   0.507   9.503 -0.0259  0.1847  0.0904
   87loPI   C3A 1385  14.690   0.373   9.078 -0.0498  0.1448  0.0033
   87loPI   C4A 1386  14.731   0.222   8.697  0.4064  0.0861 -0.0475
   87loPI   C5A 1387  14.781   0.148   8.306  0.2020 -0.0607  0.2334
   87loPI   C6A 1388  14.951   0.219   7.809  0.1500 -0.1048 -0.1546
   87loPI   C1B 1389  15.101   0.984   9.190 -0.2170  0.3149  0.2222
   87loPI   C2B 1390  15.026   0.994   8.740 -0.0592 -0.0845 -0.0548
   87loPI   C3B 1391  15.152   0.945   8.342 -0.0193 -0.1258  0.3029
   87loPI   C4B 1392  14.903   1.124   8.095 -0.0288 -0.2130 -0.0791
   88loPI    C1 1393   7.606   2.341  10.898  0.0269  0.1427 -0.0312
   88loPI    C2 1394   7.886   2.118  11.077 -0.0755 -0.1883 -0.2731
   88loPI    C3 1395   7.528   2.165  11.249 -0.0152 -0.1149 -0.1668
   88loPI   PO4 1396   7.658   2.586  10.837  0.0401 -0.1220 -0.1010
   88loPI   GL1 1397   7.474   2.561  10.446 -0.1384 -0.5812  0.1339
   88loPI   GL2 1398   7.374   2.890  10.497  0.4218 -0.0993  0.0730
   88loPI   C1A 1399   7.703   2.308  10.044 -0.3467 -0.0702  0.2662
   88loPI   C2A 1400   7.606   2.387   9.571 -0.0558  0.3714 -0.1620
   88loPI   C3A 1401   7.490   2.656   9.206 -0.1029  0.2742  0.1625
   88loPI   C4A 1402   7.108   2.850   8.992  0.0498  0.4701 -0.1702
   88loPI   C5A 1403   6.874   2.998   8.561 -0.3577 -0.1804  0.0813
   88loPI   C6A 1404   6.588   2.979   8.230  0.0969 -0.1530  0.1427
   88loPI   C1B 1405   7.335   3.190  10.283 -0.1189  0.0032  0.2234
   88loPI   C2B 1406   7.447   3.285   9.907  0.3892 -0.0179  0.0923
   88loPI   C3B 1407   7.729   3.454   9.623  0.0484  0.1776  0.0245
   88loPI   C4B 1408   7.917   3.592   9.338 -0.0198 -0.0805 -0.0283
   89loPI    C1 1409  18.018  17.299  10.288  0.1803  0.0617 -0.1120
   89loPI    C2 1410  17.819  17.574  10.500 -0.1698  0.0110 -0.3669
   89loPI    C3 1411  18.215  17.604  10.457 -0.1537  0.2641 -0.0770
   89loPI   PO4 1412  17.967  17.225  10.089  0.0773 -0.2357  0.3287
   89loPI   GL1 1413  18.155  17.221   9.739  0.0504 -0.0571  0.1784
   89loPI   GL2 1414  17.929  17.035   9.622 -0.0199 -0.0443 -0.4412
   89loPI   C1A 1415  18.276  17.280   9.276 -0.3400  0.2499  0.0147
   89loPI   C2A 1416  18.334  17.339   8.876 -0.2030 -0.0936 -0.1727
   89loPI   C3A 1417  18.477  17.473   8.412  0.0603  0.0083  0.2987
   89loPI   C4A 1418  18.469  17.611   7.959  0.1266  0.2528 -0.2046
   89loPI   C5A 1419  18.655  18.020   7.813 -0.2606  0.4010 -0.0682
   89loPI   C6A 1420  19.045  18.212   8.068  0.1299 -0.0260 -0.0190
   89loPI   C1B 1421  17.845  16.672   9.294 -0.3656  0.1828  0.1041
   89loPI   C2B 1422  18.068  16.342   9.077  0.1472 -0.3109  0.1734
   89loPI   C3B 1423  18.197  16.331   8.763 -0.2504  0.0194 -0.0448
   89loPI   C4B 1424  18.135  16.351   8.330  0.0337 -0.1763 -0.1135
   90loPI    C1 1425   5.689   1.694  10.870  0.1044 -0.1333 -0.0580
   90loPI    C2 1426   5.485   1.354  10.813  0.0012 -0.1135  0.1801
   90loPI    C3 1427   5.583   1.468  11.183  0.1555  0.0476  0.0912
   90loPI   PO4 1428   5.532   1.935  10.691  0.0913  0.2972  0.1847
   90loPI   GL1 1429   5.640   1.961  10.187 -0.1769  0.0611 -0.0489
   90loPI   GL2 1430   5.468   1.765  10.040  0.1290  0.0199  0.1695
   90loPI   C1A 1431   5.560   2.293   9.979 -0.1668 -0.3533 -0.1282
   90loPI   C2A 1432   5.639   2.352   9.549  0.0675 -0.0378  0.2766
   90loPI   C3A 1433   5.695   2.318   9.099  0.1201  0.1290 -0.3309
   90loPI   C4A 1434   5.455   2.054   8.689  0.0729 -0.1265 -0.4429
   90loPI   C5A 1435   5.221   1.968   8.377 -0.4711  0.1449 -0.1461
   90loPI   C6A 1436   4.957   1.902   8.110 -0.2634 -0.1769 -0.0526
   90loPI   C1B 1437   5.290   1.946   9.706 -0.1514 -0.2408 -0.4073
   90loPI   C2B 1438   5.240   2.161   9.149 -0.1903  0.1641 -0.2312
   90loPI   C3B 1439   5.126   2.391   8.846 -0.1929 -0.0151 -0.0456
   90loPI   C4B 1440   5.118   2.439   8.407 -0.0932 -0.2613  0.0144
   91loPI    C1 1441  14.071  13.384  10.843 -0.1170 -0.0617 -0.0369
   91loPI    C2 1442  14.418  13.305  10.658 -0.1036 -0.0900  0.0003
   91loPI    C3 1443  14.404  13.579  10.950 -0.1096 -0.0985  0.0080
   91loPI   PO4 1444  13.924  13.300  10.662 -0.1030  0.4279 -0.0253
   91loPI   GL1 1445  13.877  13.366  10.251 -0.1511 -0.0909  0.2173
   91loPI   GL2 1446  14.113  13.126  10.269  0.1168 -0.1718  0.0316
   91loPI   C1A 1447  13.829  13.402   9.826  0.1239  0.1624 -0.0121
   91loPI   C2A 1448  13.931  13.486   9.384  0.2430 -0.3157  0.3571
   91loPI   C3A 1449  13.880  13.598   8.917  0.1690  0.1617 -0.1348
   91loPI   C4A 1450  13.904  13.515   8.336 -0.0351 -0.0667 -0.0816
   91loPI   C5A 1451  14.070  13.879   8.138  0.0119  0.3358 -0.1023
   91loPI   C6A 1452  13.991  14.302   8.206 -0.0052 -0.1227  0.1623
   91loPI   C1B 1453  14.338  13.367   9.962  0.3029 -0.1342  0.0340
   91loPI   C2B 1454  14.465  13.517   9.583 -0.1895 -0.5461 -0.2005
   91loPI   C3B 1455  14.674  13.519   9.241  0.0004 -0.1621  0.0940
   91loPI   C4B 1456  14.962  13.440   8.872 -0.1882 -0.3141  0.0995
   92loPI    C1 1457  11.299  16.553  11.001 -0.1483  0.1777 -0.1370
   92loPI    C2 1458  10.990  16.301  10.971  0.0338 -0.0450 -0.1726
   92loPI    C3 1459  11.000  16.571  11.266 -0.1473 -0.0999 -0.1146
   92loPI   PO4 1460  11.365  16.729  10.633 -0.1965  0.0425  0.0680
   92loPI   GL1 1461  11.184  16.865  10.209  0.0074  0.0376  0.0871
   92loPI   GL2 1462  11.226  16.518  10.090  0.1985  0.4531 -0.1570
   92loPI   C1A 1463  10.870  17.045   9.913  0.4430 -0.0281  0.1817
   92loPI   C2A 1464  10.794  16.983   9.577 -0.1801 -0.4298 -0.2287
   92loPI   C3A 1465  10.785  17.098   9.139  0.0561 -0.3129  0.3584
   92loPI   C4A 1466  10.945  16.971   8.777 -0.0749  0.0345 -0.2944
   92loPI   C5A 1467  11.017  16.837   8.374 -0.0835  0.1226 -0.2563
   92loPI   C6A 1468  11.055  16.504   8.096  0.0540  0.0081 -0.0919
   92loPI   C1B 1469  11.178  16.657   9.693 -0.3680  0.1774 -0.3290
   92loPI   C2B 1470  11.079  16.669   9.144 -0.0648 -0.2873 -0.0401
   92loPI   C3B 1471  10.839  16.453   8.951  0.3361 -0.1363 -0.0948
   92loPI   C4B 1472  10.628  16.293   8.554  0.1799 -0.0340 -0.0339
   93loPI    C1 1473  10.308   4.447  10.771  0.1739 -0.2181  0.1791
   93loPI    C2 1474  10.690   4.446  10.654  0.1350  0.2704  0.0254
   93loPI    C3 1475  10.576   4.223  10.966  0.4933 -0.0654 -0.0755
   93loPI   PO4 1476  10.159   4.406  10.534 -0.1484  0.0912 -0.0210
   93loPI   GL1 1477  10.127   4.480  10.087  0.2405 -0.0599  0.1833
   93loPI   GL2 1478   9.888   4.619   9.962 -0.1052  0.1173  0.0751
   93loPI   C1A 1479  10.253   4.352   9.714 -0.1114 -0.0578  0.0626
   93loPI   C2A 1480  10.480   4.532   9.453  0.2433 -0.4055  0.0263
   93loPI   C3A 1481  10.623   4.675   9.021 -0.0117 -0.2230  0.0421
   93loPI   C4A 1482  10.861   4.989   8.816  0.1077  0.1221 -0.0033
   93loPI   C5A 1483  11.005   4.962   8.383 -0.1747 -0.1111  0.0552
   93loPI   C6A 1484  10.789   5.287   8.012  0.2303 -0.5580 -0.1672
   93loPI   C1B 1485   9.904   4.619   9.515  0.0092  0.3267 -0.1260
   93loPI   C2B 1486  10.079   4.517   9.136 -0.3523  0.2046 -0.0998
   93loPI   C3B 1487  10.116   4.398   8.733  0.0894 -0.1012  0.0888
   93loPI   C4B 1488  10.508   4.627   8.519 -0.1046 -0.3657 -0.0939
   94loPI    C1 1489  12.739  11.076  11.069 -0.0015  0.2157  0.1657
   94loPI    C2 1490  13.132  11.060  11.142  0.0317  0.0325 -0.0424
   94loPI    C3 1491  12.894  10.759  11.256 -0.0078  0.0234 -0.1472
   94loPI   PO4 1492  12.707  11.181  10.796 -0.3136  0.1298  0.1447
   94loPI   GL1 1493  12.969  11.355  10.482  0.0230  0.2842 -0.0892
   94loPI   GL2 1494  12.928  11.076  10.342 -0.0246  0.0879 -0.2676
   94loPI   C1A 1495  13.007  11.464   9.981 -0.1821  0.4468 -0.0159
   94loPI   C2A 1496  12.802  11.578   9.560  0.0403 -0.0956 -0.0791
   94loPI   C3A 1497  12.586  11.687   9.259 -0.3073 -0.0456  0.2137
   94loPI   C4A 1498  12.404  11.458   8.746  0.1616  0.2209  0.0396
   94loPI   C5A 1499  12.568  11.429   8.338  0.0527  0.1877  0.1331
   94loPI   C6A 1500  12.604  11.343   7.970  0.0676  0.0832 -0.1851
   94loPI   C1B 1501  12.647  11.104  10.071  0.3041  0.1059 -0.0649
   94loPI   C2B 1502  12.595  10.991   9.711  0.0989  0.0475  0.1189
   94loPI   C3B 1503  12.686  11.135   9.270 -0.1353 -0.7766 -0.0222
   94loPI   C4B 1504  12.635  11.057   8.903  0.1405 -0.3573  0.1138
   95loPI    C1 1505  10.358  17.585  10.715  0.2665 -0.2452 -0.1094
   95loPI    C2 1506  10.517  17.274  10.910  0.2170 -0.0564  0.2404
   95loPI    C3 1507  10.548  17.643  11.062  0.0762  0.0810 -0.0551
   95loPI   PO4 1508  10.361  17.508  10.458  0.2881  0.2364 -0.1130
   95loPI   GL1 1509  10.114  17.748  10.113 -0.4977  0.2597 -0.0479
   95loPI   GL2 1510  10.284  17.906   9.912 -0.1593 -0.3568  0.1187
   95loPI   C1A 1511   9.847  17.689   9.682 -0.0303  0.2209  0.2121
   95loPI   C2A 1512   9.864  17.677   9.234  0.2645  0.0422 -0.1605
   95loPI   C3A 1513   9.718  17.694   8.742 -0.1459  0.1871 -0.1323
   95loPI   C4A 1514   9.430  17.745   8.447  0.1653  0.0714  0.1498
   95loPI   C5A 1515   9.183  17.510   8.015 -0.2674  0.1345  0.0772
   95loPI   C6A 1516   9.068  17.418   7.613 -0.1872 -0.0242  0.0397
   95loPI   C1B 1517  10.651  17.843   9.601  0.0775 -0.0099 -0.0219
   95loPI   C2B 1518  10.738  17.588   9.274  0.0178  0.0994 -0.1678
   95loPI   C3B 1519  11.017  17.550   8.922  0.0202 -0.0831 -0.1408
   95loPI   C4B 1520  11.312  17.296   8.543  0.1613 -0.0173  0.0651
   96loPI    C1 1521  11.570   6.135  10.707  0.0051  0.0438 -0.0140
   96loPI    C2 1522  11.839   6.381  10.871  0.0205  0.0043  0.0205
   96loPI    C3 1523  11.518   6.267  11.080 -0.0331  0.0664 -0.0273
   96loPI   PO4 1524  11.670   5.961  10.552  0.2941 -0.0924 -0.4088
   96loPI   GL1 1525  11.724   5.906  10.163 -0.2309 -0.0220  0.0284
   96loPI   GL2 1526  11.493   5.860  10.086 -0.1639 -0.0285 -0.0616
   96loPI   C1A 1527  11.875   5.842   9.705 -0.1369 -0.0904 -0.1014
   96loPI   C2A 1528  12.079   5.858   9.313 -0.1242  0.0984 -0.1064
   96loPI   C3A 1529  12.164   5.953   8.845  0.0150  0.2881  0.1670
   96loPI   C4A 1530  11.977   5.907   8.442 -0.0842  0.1092 -0.2205
   96loPI   C5A 1531  11.896   6.196   8.006 -0.2976 -0.1869 -0.0024
   96loPI   C6A 1532  11.936   6.108   7.539  0.2580 -0.1335  0.1225
   96loPI   C1B 1533  11.327   5.827   9.649  0.0987 -0.2616  0.1537
   96loPI   C2B 1534  11.543   5.917   9.287 -0.0294 -0.1007 -0.0666
   96loPI   C3B 1535  11.631   5.978   8.932 -0.0239  0.0942  0.0595
   96loPI   C4B 1536  11.464   5.874   8.544  0.1395 -0.2356  0.1320
   97loPI    C1 1537   0.958   0.693  10.320  0.2996 -0.0743 -0.1915
   97loPI    C2 1538   1.070   0.564  10.681 -0.0694 -0.3043 -0.1533
   97loPI    C3 1539   0.840   0.889  10.647  0.0222 -0.2425 -0.1876
   97loPI   PO4 1540   1.227   0.631  10.200  0.2003  0.1482 -0.2465
   97loPI   GL1 1541   1.290   0.381   9.895 -0.0538 -0.1805 -0.0817
   97loPI   GL2 1542   1.558   0.349   9.950  0.0413  0.0906  0.1086
   97loPI   C1A 1543   1.153   0.430   9.539  0.2092 -0.0003 -0.2767
   97loPI   C2A 1544   1.246   0.493   9.204  0.0202 -0.2751 -0.0082
   97loPI   C3A 1545   1.298   0.405   8.733  0.0163  0.3675 -0.0176
   97loPI   C4A 1546   1.683   0.329   8.411  0.1879  0.3470 -0.0397
   97loPI   C5A 1547   1.795   0.426   7.956  0.0027  0.2802 -0.2026
   97loPI   C6A 1548   1.729   0.247   7.641  0.1049  0.1370  0.2073
   97loPI   C1B 1549   1.552   0.140   9.570 -0.1373  0.0072 -0.2779
   97loPI   C2B 1550   1.725   0.075   9.183 -0.0906  0.2745  0.0648
   97loPI   C3B 1551   2.016   0.170   8.776 -0.1040  0.2635  0.1463
   97loPI   C4B 1552   2.122   0.155   8.286  0.1926 -0.1611  0.3482
   98loPI    C1 1553   1.470   7.854  10.986 -0.0798  0.0235  0.1195
   98loPI    C2 1554   1.636   8.212  10.921  0.3205 -0.2013 -0.1421
   98loPI    C3 1555   1.679   8.033  11.277  0.1042  0.0140 -0.0047
   98loPI   PO4 1556   1.390   7.734  10.739  0.0541  0.2428 -0.0440
   98loPI   GL1 1557   1.217   7.662  10.338 -0.1160  0.0588  0.4897
   98loPI   GL2 1558   0.817   7.643  10.277 -0.3091 -0.2420  0.0494
   98loPI   C1A 1559   1.381   7.474  10.028 -0.1076 -0.1520  0.2077
   98loPI   C2A 1560   1.409   7.493   9.641  0.2093  0.0235  0.0693
   98loPI   C3A 1561   1.500   7.405   9.244 -0.0330 -0.1100  0.0887
   98loPI   C4A 1562   1.462   7.279   8.798 -0.1502 -0.3802  0.1760
   98loPI   C5A 1563   1.795   7.284   8.454  0.1175  0.2130 -0.0780
   98loPI   C6A 1564   2.252   7.380   8.361  0.2741 -0.1570 -0.0922
   98loPI   C1B 1565   0.728   7.958  10.035  0.1119  0.2031  0.0537
   98loPI   C2B 1566   0.737   7.891   9.527 -0.1798  0.0940 -0.2510
   98loPI   C3B 1567   0.782   7.771   9.086 -0.0003  0.1440 -0.0911
   98loPI   C4B 1568   1.239   7.705   8.934 -0.2573 -0.1159  0.0754
   99loPI    C1 1569   0.526   7.437  10.590 -0.0223 -0.0580 -0.0611
   99loPI    C2 1570   0.404   7.815  10.548  0.2254  0.0067 -0.2261
   99loPI    C3 1571   0.485   7.670  10.912  0.1119  0.1055 -0.1604
   99loPI   PO4 1572   0.419   7.280  10.393 -0.0325 -0.2227 -0.2759
   99loPI   GL1 1573   0.154   7.208  10.169  0.0594  0.1026 -0.1261
   99loPI   GL2 1574   0.063   6.824  10.252  0.0514  0.1930 -0.0613
   99loPI   C1A 1575   0.331   7.314   9.717  0.0829 -0.1006 -0.0006
   99loPI   C2A 1576   0.418   7.322   9.216 -0.2393 -0.2051 -0.0730
   99loPI   C3A 1577   0.726   7.409   8.771  0.1118 -0.3675 -0.0613
   99loPI   C4A 1578   1.108   7.473   8.517  0.0921  0.0096  0.1516
   99loPI   C5A 1579   1.501   7.679   8.385 -0.0886  0.1753 -0.0498
   99loPI   C6A 1580   1.720   7.480   7.997 -0.3317 -0.1573 -0.0185
   99loPI   C1B 1581   0.054   6.875   9.795  0.2176  0.2578 -0.0428
   99loPI   C2B 1582   0.156   6.917   9.284  0.0213  0.0041  0.0144
   99loPI   C3B 1583   0.075   6.993   8.923  0.3422  0.1825  0.0597
   99loPI   C4B 1584  -0.055   7.102   8.433  0.0570  0.3995 -0.2192
  100loPI    C1 1585   4.442  12.161  10.362  0.1047 -0.0281 -0.3600
  100loPI    C2 1586   4.609  12.413  10.625  0.2720 -0.1818 -0.3172
  100loPI    C3 1587   4.211  12.390  10.595  0.2506 -0.1903 -0.0497
  100loPI   PO4 1588   4.619  12.120  10.090  0.0990  0.0623 -0.0685
  100loPI   GL1 1589   5.036  11.951   9.971  0.1177  0.3324 -0.1365
  100loPI   GL2 1590   5.267  12.137   9.865 -0.3509  0.1434  0.0553
  100loPI   C1A 1591   4.864  11.834   9.553  0.1465 -0.2724 -0.1412
  100loPI   C2A 1592   5.015  11.878   9.142 -0.0641  0.0391  0.1969
  100loPI   C3A 1593   4.953  11.796   8.713 -0.2862 -0.4676  0.2574
  100loPI   C4A 1594   5.279  11.611   8.473  0.0643 -0.1866 -0.1680
  100loPI   C5A 1595   5.631  11.549   8.263 -0.2496  0.1473  0.0561
  100loPI   C6A 1596   5.967  11.722   8.086 -0.2513  0.2285 -0.0490
  100loPI   C1B 1597   5.327  11.908   9.541  0.0720 -0.0968 -0.0924
  100loPI   C2B 1598   5.548  11.933   9.182 -0.2317  0.0260 -0.0978
  100loPI   C3B 1599   5.494  11.778   8.830  0.0856 -0.1873  0.0956
  100loPI   C4B 1600   5.571  11.322   8.737  0.0433  0.0297 -0.1334
  101loPI    C1 1601   0.314  10.762  10.698  0.0807 -0.0088  0.0042
  101loPI    C2 1602   0.374  10.526  11.015  0.1845 -0.0070 -0.0136
  101loPI    C3 1603   0.144  10.851  11.049  0.1882 -0.0117  0.0577
  101loPI   PO4 1604   0.329  10.543  10.479 -0.2018 -0.1981 -0.0345
  101loPI   GL1 1605   0.379  10.605  10.021  0.0538  0.0645 -0.1110
  101loPI   GL2 1606   0.445  10.860   9.815 -0.2955 -0.4025 -0.1569
  101loPI   C1A 1607   0.322  10.423   9.552  0.1385  0.0542 -0.0273
  101loPI   C2A 1608   0.310  10.309   9.094  0.1078  0.1961  0.2411
  101loPI   C3A 1609   0.289  10.325   8.584  0.0873 -0.2665 -0.2767
  101loPI   C4A 1610   0.132  10.384   8.196  0.2766  0.0673  0.0057
  101loPI   C5A 1611  -0.041  10.668   7.810 -0.0108  0.1488 -0.3513
  101loPI   C6A 1612  -0.253  11.086   7.954  0.0407 -0.0985  0.0740
  101loPI   C1B 1613   0.545  10.806   9.417  0.0406  0.1025 -0.0661
  101loPI   C2B 1614   0.409  10.953   8.956 -0.0558 -0.1897  0.0352
  101loPI   C3B 1615   0.460  10.847   8.524 -0.1029 -0.1267  0.0644
  101loPI   C4B 1616   0.290  10.936   8.038 -0.2211  0.3084  0.0736
  102loPI    C1 1617  17.354   0.014  10.041  0.0694 -0.0207  0.1224
  102loPI    C2 1618  17.079  -0.063  10.321  0.1267  0.0556  0.2001
  102loPI    C3 1619  17.170   0.316  10.230 -0.0301  0.0333 -0.0584
  102loPI   PO4 1620  17.242  -0.249   9.871  0.3689  0.0634  0.2042
  102loPI   GL1 1621  17.148  -0.117   9.521  0.1825  0.0782  0.0714
  102loPI   GL2 1622  17.009   0.118   9.575  0.1770 -0.4780 -0.1422
  102loPI   C1A 1623  17.067  -0.124   9.072  0.2945 -0.2682 -0.2319
  102loPI   C2A 1624  17.206  -0.163   8.741 -0.1128  0.1337  0.0459
  102loPI   C3A 1625  17.491  -0.268   8.506  0.0685 -0.0595 -0.4304
  102loPI   C4A 1626  17.508  -0.613   8.137  0.0640  0.0995 -0.3020
  102loPI   C5A 1627  17.640  -0.944   8.002  0.2644  0.0472 -0.0133
  102loPI   C6A 1628  17.717  -1.384   7.785 -0.1185 -0.0408  0.0118
  102loPI   C1B 1629  16.835   0.369   9.250 -0.0261  0.0832  0.2793
  102loPI   C2B 1630  16.829   0.325   8.768 -0.0460 -0.1352  0.0653
  102loPI   C3B 1631  16.631   0.411   8.373 -0.0754  0.0159  0.0214
  102loPI   C4B 1632  16.504   0.420   7.893 -0.2163 -0.0187  0.0427
  103loPI    C1 1633   4.500   0.549  10.839  0.0134 -0.0890  0.1945
  103loPI    C2 1634   4.135   0.700  10.778  0.1212  0.1305  0.0822
  103loPI    C3 1635   4.383   0.874  11.040  0.2684  0.1871 -0.0925
  103loPI   PO4 1636   4.598   0.539  10.594  0.0749 -0.0795  0.4432
  103loPI   GL1 1637   4.650   0.568  10.218 -0.0056  0.2463 -0.1100
  103loPI   GL2 1638   4.662   0.901  10.049  0.0154  0.2295 -0.0429
  103loPI   C1A 1639   4.548   0.478   9.790  0.0928  0.1736  0.0066
  103loPI   C2A 1640   4.822   0.534   9.459  0.0372  0.3082 -0.3028
  103loPI   C3A 1641   5.156   0.641   9.077 -0.1996 -0.0894  0.0655
  103loPI   C4A 1642   5.424   0.428   8.737  0.1873 -0.1123 -0.1209
  103loPI   C5A 1643   5.785   0.273   8.431 -0.2008  0.0891 -0.0895
  103loPI   C6A 1644   5.997   0.140   8.050  0.3040  0.0718  0.1530
  103loPI   C1B 1645   4.867   1.014   9.654 -0.1026 -0.1231 -0.2155
  103loPI   C2B 1646   4.787   1.055   9.119 -0.0083 -0.0454 -0.0286
  103loPI   C3B 1647   4.628   1.071   8.694  0.1838 -0.0029 -0.0890
  103loPI   C4B 1648   4.663   0.991   8.249  0.0491 -0.0638  0.2506
  104loPI    C1 1649   2.038  10.803  10.047  0.3028 -0.1425  0.0358
  104loPI    C2 1650   2.128  11.193  10.030 -0.0255 -0.0590  0.1389
  104loPI    C3 1651   2.179  10.990  10.371  0.0338 -0.0790  0.1184
  104loPI   PO4 1652   2.055  10.676   9.910 -0.0149  0.0604  0.0208
  104loPI   GL1 1653   2.195  10.205   9.830 -0.1844 -0.1097  0.1428
  104loPI   GL2 1654   2.502  10.410   9.730  0.0715 -0.2625 -0.0528
  104loPI   C1A 1655   2.086  10.061   9.292  0.1585  0.1579 -0.1440
  104loPI   C2A 1656   1.981  10.146   8.936  0.2626  0.1582 -0.2481
  104loPI   C3A 1657   2.027   9.944   8.646  0.2462  0.2951 -0.1848
  104loPI   C4A 1658   2.259   9.948   8.273 -0.2273  0.3311 -0.0312
  104loPI   C5A 1659   2.199  10.131   7.946  0.0263 -0.0557 -0.2486
  104loPI   C6A 1660   2.346  10.524   7.753 -0.1136  0.2501  0.3646
  104loPI   C1B 1661   2.372  10.465   9.333 -0.0856  0.1509 -0.0890
  104loPI   C2B 1662   2.590  10.294   8.971 -0.0970  0.2762 -0.0486
  104loPI   C3B 1663   2.933  10.398   8.844  0.1693  0.0028  0.2164
  104loPI   C4B 1664   3.117  10.446   8.450  0.3587 -0.0144  0.2275
  105loPI    C1 1665  14.705  14.494  10.777 -0.1147 -0.0675  0.0310
  105loPI    C2 1666  14.639  14.840  10.967 -0.2342  0.0477 -0.2155
  105loPI    C3 1667  14.640  14.496  11.172  0.0492  0.2068  0.0590
  105loPI   PO4 1668  14.676  14.567  10.459  0.1719  0.0106  0.3091
  105loPI   GL1 1669  14.606  14.512  10.006  0.1746 -0.1385 -0.1411
  105loPI   GL2 1670  14.543  14.766  10.084  0.1314  0.0280  0.2970
  105loPI   C1A 1671  15.044  14.536   9.683 -0.0561 -0.0469  0.1172
  105loPI   C2A 1672  14.865  14.339   9.301 -0.1168  0.1276  0.2459
  105loPI   C3A 1673  14.652  14.618   9.148  0.2642  0.0500  0.2860
  105loPI   C4A 1674  14.709  14.946   8.832 -0.1719 -0.1311  0.0270
  105loPI   C5A 1675  14.684  15.130   8.366 -0.1850  0.0753 -0.0007
  105loPI   C6A 1676  14.395  15.416   8.112  0.0379  0.0344  0.0704
  105loPI   C1B 1677  14.287  14.789   9.700 -0.1576  0.0471 -0.1292
  105loPI   C2B 1678  13.912  14.984   9.475 -0.1046 -0.1260 -0.1683
  105loPI   C3B 1679  13.739  15.146   9.145 -0.0220 -0.0965  0.0350
  105loPI   C4B 1680  13.754  15.063   8.732  0.0731  0.2064 -0.1466
  106loPI    C1 1681   4.790  17.331  10.566  0.0812 -0.0089  0.0662
  106loPI    C2 1682   5.171  17.425  10.488  0.1325 -0.1628  0.1281
  106loPI    C3 1683   5.076  17.238  10.829 -0.0436  0.1816  0.2728
  106loPI   PO4 1684   4.717  17.432  10.282 -0.1278 -0.0395 -0.1615
  106loPI   GL1 1685   5.046  17.284   9.940 -0.1081  0.2287  0.0195
  106loPI   GL2 1686   4.685  17.372   9.821  0.3121  0.4893  0.2450
  106loPI   C1A 1687   5.165  17.231   9.514  0.1633 -0.0800 -0.2959
  106loPI   C2A 1688   5.118  17.265   9.122  0.3608  0.5526  0.2758
  106loPI   C3A 1689   4.941  17.509   8.595  0.0638  0.1288 -0.3297
  106loPI   C4A 1690   4.609  17.350   8.472  0.0231 -0.1626 -0.0741
  106loPI   C5A 1691   4.222  17.215   8.249 -0.0779 -0.0741 -0.0483
  106loPI   C6A 1692   3.784  17.127   8.297  0.0326 -0.0870 -0.2581
  106loPI   C1B 1693   4.721  17.510   9.391 -0.1986  0.0372  0.0125
  106loPI   C2B 1694   4.717  17.761   9.075  0.1106  0.1920 -0.4301
  106loPI   C3B 1695   4.615  17.898   8.617  0.3376 -0.1995 -0.5568
  106loPI   C4B 1696   4.615  17.756   8.128  0.0355 -0.1233 -0.1038
  107loPI    C1 1697   1.296   3.118  10.790  0.0874 -0.2960  0.0059
  107loPI    C2 1698   1.584   2.948  11.010  0.1971  0.0513  0.1364
  107loPI    C3 1699   1.476   3.327  11.079  0.1427  0.1262 -0.3251
  107loPI   PO4 1700   1.343   3.065  10.507  0.1576  0.1578 -0.2910
  107loPI   GL1 1701   1.291   3.102  10.180  0.0898 -0.1281 -0.3439
  107loPI   GL2 1702   1.411   3.133   9.950 -0.0318  0.1267 -0.0497
  107loPI   C1A 1703   1.003   2.958   9.789 -0.0834 -0.0830  0.0067
  107loPI   C2A 1704   0.789   2.845   9.418  0.1338  0.0167 -0.1122
  107loPI   C3A 1705   0.471   2.632   9.097  0.0442 -0.1654  0.0896
  107loPI   C4A 1706   0.387   2.656   8.673 -0.1807  0.0724 -0.1315
  107loPI   C5A 1707   0.438   2.840   8.262  0.1892 -0.2986 -0.5069
  107loPI   C6A 1708   0.063   2.978   8.013 -0.1321  0.2260  0.0949
  107loPI   C1B 1709   1.405   3.112   9.481 -0.2863  0.1161  0.0593
  107loPI   C2B 1710   1.221   2.938   9.192  0.0323  0.2066  0.2357
  107loPI   C3B 1711   0.846   3.054   8.947 -0.1112 -0.3650  0.0728
  107loPI   C4B 1712   0.643   3.330   8.666 -0.3452  0.0069  0.1086
  108loPI    C1 1713   1.641   6.120  10.802 -0.2435 -0.1372  0.5039
  108loPI    C2 1714   1.855   6.451  10.874  0.0364 -0.1998  0.0065
  108loPI    C3 1715   1.460   6.450  10.937  0.0565  0.1777  0.1621
  108loPI   PO4 1716   1.689   6.017  10.536  0.0557  0.4547 -0.1633
  108loPI   GL1 1717   1.397   6.105  10.153 -0.0900 -0.1204  0.0864
  108loPI   GL2 1718   1.678   6.251  10.006  0.4954 -0.0829 -0.1415
  108loPI   C1A 1719   1.231   6.107   9.804  0.1934  0.3183 -0.1659
  108loPI   C2A 1720   1.062   5.988   9.530  0.2543  0.2306  0.1999
  108loPI   C3A 1721   1.061   5.953   9.150 -0.2015  0.2709 -0.1048
  108loPI   C4A 1722   1.251   5.777   8.815 -0.0347  0.2430  0.1505
  108loPI   C5A 1723   1.233   5.716   8.344 -0.1702  0.0053  0.2149
  108loPI   C6A 1724   1.124   5.415   8.005 -0.2333 -0.2839 -0.0370
  108loPI   C1B 1725   1.868   6.078   9.635  0.0022  0.0149 -0.1403
  108loPI   C2B 1726   1.854   6.124   9.024 -0.1448  0.0750 -0.2085
  108loPI   C3B 1727   1.743   6.112   8.610  0.1557  0.1692  0.1228
  108loPI   C4B 1728   1.970   6.286   8.209  0.0859  0.0783 -0.0207
  109loPI    C1 1729   9.555   1.134  10.437  0.0305  0.0168  0.1404
  109loPI    C2 1730   9.884   1.357  10.392 -0.1395  0.2161 -0.1437
  109loPI    C3 1731   9.607   1.461  10.661  0.0072  0.0714  0.0665
  109loPI   PO4 1732   9.520   1.091  10.191 -0.0442 -0.2532 -0.2644
  109loPI   GL1 1733   9.594   1.282   9.830 -0.0757 -0.2225  0.0191
  109loPI   GL2 1734   9.300   1.197   9.710  0.1442  0.0243  0.1807
  109loPI   C1A 1735   9.958   1.263   9.426  0.2197 -0.3868 -0.0831
  109loPI   C2A 1736  10.105   1.173   9.049 -0.4072 -0.2021 -0.0149
  109loPI   C3A 1737  10.267   0.966   8.740 -0.1533  0.0351 -0.2399
  109loPI   C4A 1738  10.179   0.853   8.266  0.2865  0.1384  0.3704
  109loPI   C5A 1739   9.889   0.640   8.053 -0.0716 -0.0470 -0.1421
  109loPI   C6A 1740   9.661   0.256   8.146  0.1256  0.0658  0.0661
  109loPI   C1B 1741   9.433   1.216   9.267 -0.0736  0.1862  0.3959
  109loPI   C2B 1742   9.661   1.331   8.889 -0.3072 -0.0066 -0.1552
  109loPI   C3B 1743   9.892   1.184   8.484  0.2419 -0.1626  0.1283
  109loPI   C4B 1744   9.682   1.075   8.103 -0.1212 -0.1234 -0.0874
  110loPI    C1 1745   2.721   7.997  10.502  0.1227 -0.3548 -0.1401
  110loPI    C2 1746   2.321   7.987  10.491  0.1131 -0.0555 -0.1390
  110loPI    C3 1747   2.513   7.949  10.840  0.0827 -0.1194 -0.1294
  110loPI   PO4 1748   2.754   7.809  10.267  0.1222  0.1023  0.1816
  110loPI   GL1 1749   2.447   8.014  10.002 -0.1651  0.2198  0.0242
  110loPI   GL2 1750   2.110   8.055  10.039  0.0739 -0.0015 -0.2791
  110loPI   C1A 1751   2.698   8.041   9.609 -0.0850 -0.1963  0.0925
  110loPI   C2A 1752   2.622   8.144   9.267  0.0015  0.1492 -0.0934
  110loPI   C3A 1753   2.578   8.286   8.780 -0.0708 -0.0778 -0.1304
  110loPI   C4A 1754   2.487   8.271   8.306 -0.2952 -0.2343  0.1816
  110loPI   C5A 1755   2.530   8.181   7.878 -0.1476  0.1922  0.0796
  110loPI   C6A 1756   2.716   8.129   7.477 -0.0596 -0.0139  0.2817
  110loPI   C1B 1757   2.219   8.288   9.653 -0.4037  0.3491  0.3424
  110loPI   C2B 1758   2.577   8.636   9.382  0.0536 -0.1331  0.1714
  110loPI   C3B 1759   2.673   8.741   8.901  0.2541  0.1606 -0.1311
  110loPI   C4B 1760   2.846   8.869   8.546 -0.0102 -0.2004  0.0937
  111loPI    C1 1761   9.739  10.381  10.527  0.0616  0.2590 -0.0233
  111loPI    C2 1762   9.884  10.752  10.564 -0.0919  0.3049  0.1308
  111loPI    C3 1763   9.743  10.560  10.885 -0.1018  0.1494  0.0344
  111loPI   PO4 1764   9.977  10.321  10.383  0.1361 -0.0701 -0.0652
  111loPI   GL1 1765  10.379  10.628  10.146  0.0545 -0.0414 -0.0080
  111loPI   GL2 1766  10.244  10.938  10.165 -0.1788  0.3275 -0.0975
  111loPI   C1A 1767  10.381  10.756   9.657  0.0221  0.2264  0.1560
  111loPI   C2A 1768  10.345  10.654   9.215  0.0138  0.0214  0.3236
  111loPI   C3A 1769  10.487  10.710   8.805 -0.0242  0.1543  0.1716
  111loPI   C4A 1770  10.735  10.628   8.456  0.1684  0.3508 -0.0728
  111loPI   C5A 1771  11.112  10.610   8.194 -0.0273 -0.0083 -0.1324
  111loPI   C6A 1772  11.366  10.194   8.100  0.1425 -0.0575 -0.1022
  111loPI   C1B 1773  10.251  11.257   9.840 -0.0675  0.1932 -0.0828
  111loPI   C2B 1774  10.543  11.401   9.597  0.0512 -0.1054 -0.4066
  111loPI   C3B 1775  10.919  11.540   9.575  0.1650  0.1553  0.0659
  111loPI   C4B 1776  11.264  11.230   9.457 -0.0128 -0.0213 -0.2123
  112loPI    C1 1777  18.217   3.965  10.561  0.0865 -0.0990  0.0622
  112loPI    C2 1778  18.590   4.105  10.530  0.1187 -0.1768  0.0936
  112loPI    C3 1779  18.425   4.052  10.890 -0.0310  0.1393  0.0752
  112loPI   PO4 1780  18.161   3.976  10.295 -0.0126 -0.1868  0.2072
  112loPI   GL1 1781  17.875   4.349   9.988 -0.1075 -0.1145 -0.1263
  112loPI   GL2 1782  18.182   4.433   9.934 -0.2181 -0.0229 -0.0432
  112loPI   C1A 1783  17.794   4.309   9.616  0.0252 -0.0574 -0.1407
  112loPI   C2A 1784  17.981   4.473   9.305 -0.1005 -0.0908  0.2115
  112loPI   C3A 1785  18.085   4.620   8.990  0.1170  0.2003 -0.0989
  112loPI   C4A 1786  18.184   4.716   8.600 -0.1166 -0.1526 -0.0107
  112loPI   C5A 1787  18.217   4.446   8.138 -0.0396  0.2175  0.0329
  112loPI   C6A 1788  18.297   4.095   7.845  0.0558 -0.3514  0.2694
  112loPI   C1B 1789  18.367   4.239   9.579  0.1924  0.1796 -0.0391
  112loPI   C2B 1790  18.440   4.437   9.230 -0.2607 -0.3330  0.2247
  112loPI   C3B 1791  18.697   4.565   8.907 -0.6607  0.0041  0.0060
  112loPI   C4B 1792  18.706   4.622   8.431  0.0394 -0.0295 -0.0863
  113loPI    C1 1793  12.458  13.456  10.820  0.0435  0.0312 -0.0150
  113loPI    C2 1794  12.706  13.592  11.102  0.1592  0.0773 -0.1377
  113loPI    C3 1795  12.735  13.214  10.976  0.0716  0.0407 -0.0500
  113loPI   PO4 1796  12.460  13.734  10.647  0.0963  0.1875  0.1292
  113loPI   GL1 1797  12.305  13.910  10.348  0.2092 -0.1588 -0.1848
  113loPI   GL2 1798  12.026  14.083  10.234 -0.2851 -0.1890 -0.2089
  113loPI   C1A 1799  12.315  13.667   9.969 -0.2872  0.1008 -0.0419
  113loPI   C2A 1800  12.458  13.749   9.469 -0.0843 -0.0684 -0.0088
  113loPI   C3A 1801  12.423  13.671   8.990  0.1232 -0.0694  0.0629
  113loPI   C4A 1802  12.325  13.467   8.606 -0.1931 -0.1271 -0.0502
  113loPI   C5A 1803  12.184  13.168   8.354  0.4895 -0.0200  0.3986
  113loPI   C6A 1804  11.901  12.864   8.431  0.3022  0.2593 -0.2379
  113loPI   C1B 1805  12.145  14.089   9.725 -0.0281 -0.2770 -0.2444
  113loPI   C2B 1806  12.203  14.057   9.219 -0.0518  0.0131 -0.2750
  113loPI   C3B 1807  12.327  14.049   8.722 -0.1332 -0.1285  0.1079
  113loPI   C4B 1808  12.516  13.841   8.443  0.0809  0.0977  0.1579
  114loPI    C1 1809   2.725   0.807  10.292 -0.0950 -0.0278  0.1051
  114loPI    C2 1810   2.435   0.750  10.562 -0.0181 -0.2584  0.1413
  114loPI    C3 1811   2.783   0.554  10.597  0.0869 -0.0973  0.0148
  114loPI   PO4 1812   2.658   1.055  10.240 -0.1714  0.1320 -0.2763
  114loPI   GL1 1813   2.609   1.409   9.998  0.3315  0.0153  0.0021
  114loPI   GL2 1814   2.562   1.277   9.815  0.2544 -0.0563  0.2128
  114loPI   C1A 1815   2.617   1.728   9.660 -0.0203  0.2587  0.2598
  114loPI   C2A 1816   2.573   1.726   9.183 -0.0903  0.0796 -0.0908
  114loPI   C3A 1817   2.647   1.918   8.787 -0.1120  0.1017  0.0377
  114loPI   C4A 1818   2.915   1.813   8.433 -0.0791  0.0607 -0.2784
  114loPI   C5A 1819   3.069   1.776   7.984 -0.0143  0.1454 -0.5970
  114loPI   C6A 1820   3.466   1.716   7.887 -0.1949 -0.0488  0.1546
  114loPI   C1B 1821   2.679   1.271   9.374 -0.2333  0.0067  0.0391
  114loPI   C2B 1822   2.709   1.281   8.938  0.2328  0.2750 -0.1057
  114loPI   C3B 1823   2.722   1.349   8.503  0.1777  0.0203 -0.1516
  114loPI   C4B 1824   2.713   1.449   8.119 -0.0785  0.2469 -0.1085
  115loPI    C1 1825   3.881   9.972  10.471  0.1961 -0.0940  0.1226
  115loPI    C2 1826   4.023  10.297  10.656  0.0041 -0.0193  0.1410
  115loPI    C3 1827   3.790  10.039  10.855 -0.1520  0.0286  0.0230
  115loPI   PO4 1828   3.798  10.026  10.282  0.1046  0.0759 -0.1768
  115loPI   GL1 1829   4.056   9.897   9.923  0.0733  0.0503  0.0089
  115loPI   GL2 1830   3.955   9.580   9.874 -0.0451 -0.0639 -0.2205
  115loPI   C1A 1831   4.107  10.268   9.628  0.0821 -0.1159 -0.3691
  115loPI   C2A 1832   4.106  10.157   9.143 -0.2505  0.0158 -0.0700
  115loPI   C3A 1833   4.168  10.125   8.694 -0.2794  0.2425 -0.0767
  115loPI   C4A 1834   4.098  10.102   8.213 -0.0331 -0.0798  0.1123
  115loPI   C5A 1835   3.783   9.883   8.041 -0.1790 -0.1323 -0.0398
  115loPI   C6A 1836   3.361   9.909   7.839  0.2958 -0.1050 -0.0599
  115loPI   C1B 1837   3.959   9.696   9.457  0.2160 -0.1859 -0.1965
  115loPI   C2B 1838   3.913   9.719   8.990 -0.0625  0.0185  0.1058
  115loPI   C3B 1839   4.091   9.658   8.478  0.4089  0.4713 -0.1212
  115loPI   C4B 1840   4.194   9.342   8.173  0.0864 -0.3781 -0.0793
  116loPI    C1 1841  17.011  16.301  10.461  0.2688 -0.0613  0.2738
  116loPI    C2 1842  16.803  16.190  10.784  0.0346 -0.0908  0.1152
  116loPI    C3 1843  16.685  16.506  10.570  0.1282 -0.1338 -0.0012
  116loPI   PO4 1844  16.960  16.220  10.244  0.2228  0.0764  0.0053
  116loPI   GL1 1845  16.911  16.299   9.814  0.2057  0.0702 -0.0538
  116loPI   GL2 1846  16.878  16.044   9.528  0.0438 -0.1868  0.3643
  116loPI   C1A 1847  17.064  16.453   9.575 -0.0920 -0.0639 -0.3992
  116loPI   C2A 1848  16.970  16.403   9.117 -0.2958 -0.1121 -0.2494
  116loPI   C3A 1849  16.737  16.246   8.747  0.3201  0.0939 -0.3050
  116loPI   C4A 1850  16.386  16.206   8.398 -0.0124 -0.1279 -0.3258
  116loPI   C5A 1851  16.439  16.145   7.885  0.2876  0.1731 -0.0412
  116loPI   C6A 1852  16.782  15.983   7.737 -0.0844  0.0627 -0.2005
  116loPI   C1B 1853  16.888  15.891   9.138  0.2109  0.2608 -0.1327
  116loPI   C2B 1854  16.969  15.812   8.689  0.0504 -0.0020  0.0101
  116loPI   C3B 1855  17.031  15.528   8.434  0.0175  0.1631  0.1334
  116loPI   C4B 1856  17.233  15.314   8.190 -0.0022 -0.1733 -0.2568
  117loPI    C1 1857  13.571   2.534  10.413  0.1965 -0.0314  0.0792
  117loPI    C2 1858  13.743   2.730  10.716 -0.0162 -0.0204  0.1946
  117loPI    C3 1859  13.500   2.421  10.791 -0.0802 -0.0091  0.0363
  117loPI   PO4 1860  13.760   2.578  10.228  0.0619 -0.0639  0.2163
  117loPI   GL1 1861  13.647   2.624   9.786 -0.0033  0.1572  0.1285
  117loPI   GL2 1862  13.968   2.633   9.644  0.1017 -0.4289 -0.0486
  117loPI   C1A 1863  13.359   2.406   9.498  0.0315  0.0403  0.1414
  117loPI   C2A 1864  13.222   2.508   9.094  0.2773  0.1681  0.0158
  117loPI   C3A 1865  13.191   2.769   8.667 -0.1963 -0.2578 -0.3173
  117loPI   C4A 1866  13.381   2.681   8.220 -0.2304  0.0878  0.0784
  117loPI   C5A 1867  13.237   2.392   7.833 -0.1414  0.1405  0.1892
  117loPI   C6A 1868  12.929   2.091   7.731 -0.1146  0.1533  0.3225
  117loPI   C1B 1869  13.676   2.760   9.335 -0.0074 -0.0305  0.2136
  117loPI   C2B 1870  13.627   2.913   8.937  0.1034  0.1157  0.1873
  117loPI   C3B 1871  13.558   3.066   8.496 -0.0981 -0.0080 -0.5582
  117loPI   C4B 1872  13.454   3.151   8.105  0.1980 -0.2860 -0.1453
  118loPI    C1 1873   3.790   0.374  10.827 -0.1853 -0.0602  0.0208
  118loPI    C2 1874   3.680   0.709  11.015  0.0380  0.0728 -0.0825
  118loPI    C3 1875   3.672   0.360  11.209 -0.0380  0.1616  0.0762
  118loPI   PO4 1876   3.698   0.368  10.500 -0.0930 -0.0683 -0.0845
  118loPI   GL1 1877   3.385   0.231  10.108 -0.1533  0.2528  0.2829
  118loPI   GL2 1878   3.828   0.232  10.044 -0.0271 -0.2157  0.2296
  118loPI   C1A 1879   3.315   0.473   9.796 -0.2333  0.3048  0.2120
  118loPI   C2A 1880   3.091   0.663   9.460 -0.0442 -0.1078 -0.0139
  118loPI   C3A 1881   3.065   0.975   9.024 -0.1792  0.1766  0.0082
  118loPI   C4A 1882   3.074   0.999   8.614  0.0363  0.0368  0.0305
  118loPI   C5A 1883   3.089   1.004   8.194 -0.0595 -0.1040 -0.2715
  118loPI   C6A 1884   3.266   0.839   7.838  0.1652  0.1187 -0.1637
  118loPI   C1B 1885   3.738   0.288   9.655 -0.2533  0.0191  0.1146
  118loPI   C2B 1886   3.548   0.497   9.262 -0.0663 -0.0693  0.0059
  118loPI   C3B 1887   3.445   0.466   8.825  0.0112  0.0908 -0.3151
  118loPI   C4B 1888   3.379   0.627   8.521  0.1225  0.2980  0.0347
  119loPI    C1 1889  13.653  15.089  10.799  0.0763 -0.0262  0.0434
  119loPI    C2 1890  13.794  15.395  11.014 -0.1899  0.1903 -0.0830
  119loPI    C3 1891  13.452  15.217  11.120 -0.1531  0.0843 -0.1408
  119loPI   PO4 1892  13.869  15.125  10.566 -0.3094  0.0193 -0.0201
  119loPI   GL1 1893  14.044  15.310  10.266 -0.0321  0.0450 -0.1409
  119loPI   GL2 1894  14.208  15.586  10.419  0.0322  0.3121  0.1872
  119loPI   C1A 1895  13.945  15.269   9.883 -0.0942  0.2714 -0.0184
  119loPI   C2A 1896  13.753  15.544   9.520  0.2084  0.1535 -0.1107
  119loPI   C3A 1897  13.522  15.610   9.254 -0.1140  0.1823 -0.3385
  119loPI   C4A 1898  13.558  15.715   8.797 -0.0000  0.0572 -0.0436
  119loPI   C5A 1899  13.522  15.720   8.330  0.2108  0.3301 -0.3212
  119loPI   C6A 1900  13.524  15.934   7.966  0.0367 -0.1933 -0.0737
  119loPI   C1B 1901  14.366  15.535   9.926  0.2439 -0.1338  0.0848
  119loPI   C2B 1902  14.484  15.287   9.721  0.1506 -0.5092 -0.0321
  119loPI   C3B 1903  14.445  15.158   9.315 -0.1415 -0.4072  0.2917
  119loPI   C4B 1904  14.224  15.009   9.006  0.0130  0.0374  0.1109
  120loPI    C1 1905   2.397  12.669  10.716  0.2755  0.0684  0.0838
  120loPI    C2 1906   2.338  12.273  10.726  0.1083  0.0865 -0.1123
  120loPI    C3 1907   2.410  12.474  11.065  0.3115 -0.1276 -0.0257
  120loPI   PO4 1908   2.498  12.692  10.410 -0.2752  0.3193  0.0982
  120loPI   GL1 1909   2.339  12.696  10.012 -0.2135 -0.0731  0.3611
  120loPI   GL2 1910   2.076  12.791   9.830 -0.2347 -0.2862  0.1340
  120loPI   C1A 1911   2.630  12.696   9.688  0.0767 -0.3156  0.0027
  120loPI   C2A 1912   2.549  12.653   9.224  0.1199 -0.0962  0.0462
  120loPI   C3A 1913   2.421  12.652   8.831  0.0816 -0.0887  0.2226
  120loPI   C4A 1914   2.287  12.657   8.438  0.1025  0.0452  0.1448
  120loPI   C5A 1915   2.249  12.801   7.982 -0.0780 -0.3208  0.0449
  120loPI   C6A 1916   1.929  13.005   7.719 -0.2126  0.1019 -0.1523
  120loPI   C1B 1917   2.061  12.939   9.398 -0.1148 -0.0114  0.3011
  120loPI   C2B 1918   1.900  12.859   9.014  0.2972 -0.0470  0.1143
  120loPI   C3B 1919   1.730  12.959   8.625 -0.0875  0.0226  0.0845
  120loPI   C4B 1920   1.843  13.122   8.184 -0.0155 -0.0884 -0.0942
  121loPI    C1 1921  13.700   7.375  10.911  0.1448  0.1583 -0.1653
  121loPI    C2 1922  13.676   7.715  10.701 -0.1464  0.0815 -0.2611
  121loPI    C3 1923  13.521   7.696  11.070  0.3486  0.2108 -0.0380
  121loPI   PO4 1924  13.915   7.305  10.675 -0.0677  0.0052 -0.0152
  121loPI   GL1 1925  13.832   7.407  10.241 -0.4034 -0.0647 -0.2831
  121loPI   GL2 1926  13.890   7.053  10.106  0.0325 -0.3191  0.1200
  121loPI   C1A 1927  13.775   7.506   9.828 -0.2090 -0.0741  0.3078
  121loPI   C2A 1928  13.789   7.623   9.373 -0.2204 -0.0868  0.1490
  121loPI   C3A 1929  13.983   7.574   9.075 -0.2388  0.0741 -0.1413
  121loPI   C4A 1930  13.896   7.741   8.734 -0.3253 -0.0371 -0.1394
  121loPI   C5A 1931  13.675   7.573   8.367 -0.2167  0.0564  0.2145
  121loPI   C6A 1932  13.652   7.084   8.251  0.1301 -0.0944  0.0737
  121loPI   C1B 1933  13.595   6.984   9.838  0.0365  0.0606  0.4118
  121loPI   C2B 1934  13.486   7.161   9.467 -0.3599  0.2516 -0.0194
  121loPI   C3B 1935  13.516   7.282   9.098  0.0168 -0.0729 -0.2029
  121loPI   C4B 1936  13.791   7.238   8.778 -0.1796 -0.2056  0.0195
  122loPI    C1 1937  18.176   2.589  10.614 -0.0459 -0.0656 -0.0610
  122loPI    C2 1938  18.044   2.662  10.984 -0.1032  0.0269 -0.0995
  122loPI    C3 1939  18.345   2.405  10.926 -0.0433  0.0705  0.0183
  122loPI   PO4 1940  18.088   2.843  10.394 -0.0470 -0.1901 -0.1431
  122loPI   GL1 1941  17.810   3.035  10.070 -0.3737 -0.1023 -0.3443
  122loPI   GL2 1942  17.519   3.173   9.888  0.0143  0.1262 -0.0862
  122loPI   C1A 1943  17.645   2.615   9.837 -0.0884 -0.0902 -0.2272
  122loPI   C2A 1944  17.701   2.471   9.467 -0.0452 -0.0200  0.0547
  122loPI   C3A 1945  17.748   2.486   9.083 -0.3093  0.1661  0.2912
  122loPI   C4A 1946  17.802   2.483   8.640 -0.0140 -0.1723  0.0148
  122loPI   C5A 1947  17.838   2.553   8.194  0.0715 -0.0751 -0.1474
  122loPI   C6A 1948  17.896   2.171   7.874 -0.3259 -0.1017 -0.0148
  122loPI   C1B 1949  17.612   3.041   9.508  0.1274  0.0937 -0.0328
  122loPI   C2B 1950  17.712   3.059   9.094 -0.2857 -0.0914  0.0250
  122loPI   C3B 1951  17.703   3.020   8.679  0.0952  0.0505 -0.0227
  122loPI   C4B 1952  17.649   3.021   8.228  0.1106 -0.1422  0.0179
  123loPI    C1 1953  17.327  11.527  10.506 -0.1121  0.0162  0.2470
  123loPI    C2 1954  17.041  11.491  10.784 -0.1226  0.1767  0.2578
  123loPI    C3 1955  17.424  11.529  10.894 -0.0970 -0.0259  0.2436
  123loPI   PO4 1956  17.146  11.515  10.244 -0.1584  0.2044  0.1586
  123loPI   GL1 1957  16.994  11.663   9.857  0.1293 -0.2052  0.1685
  123loPI   GL2 1958  16.685  11.511   9.873  0.3999 -0.2465 -0.2318
  123loPI   C1A 1959  16.807  11.767   9.522 -0.1756 -0.0965 -0.2763
  123loPI   C2A 1960  16.872  11.619   9.146 -0.0895 -0.1206 -0.1259
  123loPI   C3A 1961  16.858  11.529   8.781  0.1158 -0.2916  0.0300
  123loPI   C4A 1962  17.211  11.436   8.488  0.0801  0.0128 -0.2395
  123loPI   C5A 1963  17.511  11.383   8.107  0.0469  0.1386 -0.3582
  123loPI   C6A 1964  17.488  11.140   7.704  0.1735 -0.0320  0.1044
  123loPI   C1B 1965  16.462  11.296   9.534  0.0220  0.3761 -0.3040
  123loPI   C2B 1966  16.288  11.192   9.201  0.0963  0.1727 -0.1925
  123loPI   C3B 1967  16.140  11.125   8.820  0.3950  0.1814 -0.2007
  123loPI   C4B 1968  16.393  11.059   8.416  0.2200  0.0118 -0.3631
  124loPI    C1 1969   6.226  17.294  10.728 -0.0538  0.1188 -0.3158
  124loPI    C2 1970   6.233  17.650  10.910 -0.1358 -0.0513  0.0280
  124loPI    C3 1971   6.053  17.339  11.086  0.0007 -0.2827 -0.2344
  124loPI   PO4 1972   6.083  17.355  10.532 -0.3272 -0.0136 -0.0001
  124loPI   GL1 1973   5.958  17.426   9.986  0.1337 -0.2439  0.0940
  124loPI   GL2 1974   6.124  17.584   9.724  0.0214  0.2284 -0.0029
  124loPI   C1A 1975   5.891  17.129   9.604  0.1281  0.2701  0.0631
  124loPI   C2A 1976   5.950  16.980   9.195  0.0986  0.1616  0.0695
  124loPI   C3A 1977   6.266  16.811   8.893  0.1357 -0.0531  0.0047
  124loPI   C4A 1978   6.321  17.025   8.534  0.2421  0.2799  0.1201
  124loPI   C5A 1979   6.330  17.406   8.286 -0.1452  0.0829  0.2640
  124loPI   C6A 1980   6.181  17.645   8.038  0.1202 -0.1319 -0.3269
  124loPI   C1B 1981   6.222  17.615   9.330  0.0738  0.1232 -0.3088
  124loPI   C2B 1982   6.544  17.629   8.941 -0.0917  0.0260 -0.2877
  124loPI   C3B 1983   6.446  17.815   8.519  0.1864  0.0741 -0.1889
  124loPI   C4B 1984   6.649  17.824   8.155  0.0149  0.4199 -0.2113
  125loPI    C1 1985  14.125   4.348  10.485  0.0440  0.0367  0.0078
  125loPI    C2 1986  13.753   4.215  10.421  0.0610  0.0959 -0.2230
  125loPI    C3 1987  14.061   3.959  10.418  0.0506  0.0841 -0.2853
  125loPI   PO4 1988  14.134   4.612  10.280 -0.0482  0.0686 -0.2336
  125loPI   GL1 1989  13.873   4.540   9.992 -0.2982 -0.3106 -0.1641
  125loPI   GL2 1990  13.990   4.261   9.952  0.0151 -0.0367 -0.2011
  125loPI   C1A 1991  13.800   4.604   9.495 -0.1752 -0.2000  0.0649
  125loPI   C2A 1992  13.904   4.653   9.045  0.0459  0.1948  0.1569
  125loPI   C3A 1993  13.877   4.654   8.654  0.1767 -0.1712 -0.1149
  125loPI   C4A 1994  13.948   4.431   8.241  0.1881 -0.0209 -0.0840
  125loPI   C5A 1995  13.590   4.398   8.018 -0.1348  0.2541 -0.0078
  125loPI   C6A 1996  13.189   4.269   8.021  0.3457 -0.2738 -0.0329
  125loPI   C1B 1997  14.001   4.151   9.526  0.1183 -0.0929 -0.0788
  125loPI   C2B 1998  14.059   3.999   9.163 -0.2794  0.1873 -0.1500
  125loPI   C3B 1999  13.995   4.061   8.718 -0.1350 -0.1591  0.0631
  125loPI   C4B 2000  14.122   3.919   8.256  0.0911  0.1497  0.5686
  126loPI    C1 2001  14.924   3.102  10.173 -0.0121  0.1848  0.1054
  126loPI    C2 2002  15.138   3.434  10.113 -0.0323  0.1679 -0.0650
  126loPI    C3 2003  15.015   3.340  10.481 -0.0223  0.3464 -0.0149
  126loPI   PO4 2004  14.792   3.158   9.898 -0.2554 -0.0964 -0.1010
  126loPI   GL1 2005  14.428   3.389   9.709 -0.2107 -0.1119  0.1103
  126loPI   GL2 2006  14.139   3.210   9.781  0.0140 -0.3133 -0.0817
  126loPI   C1A 2007  14.350   3.605   9.297  0.1860  0.0382 -0.0275
  126loPI   C2A 2008  14.193   3.624   8.846  0.1755  0.0656 -0.2495
  126loPI   C3A 2009  14.295   3.491   8.446 -0.1383  0.4037  0.1343
  126loPI   C4A 2010  14.551   3.563   8.070 -0.1771  0.0617  0.2821
  126loPI   C5A 2011  14.658   3.810   7.726 -0.2632  0.3948  0.3107
  126loPI   C6A 2012  14.961   3.676   7.434 -0.0394 -0.0454 -0.0586
  126loPI   C1B 2013  14.133   3.016   9.319 -0.0532  0.1342  0.0558
  126loPI   C2B 2014  14.331   3.087   9.008 -0.6233 -0.0217  0.1413
  126loPI   C3B 2015  14.638   3.320   8.961  0.2009 -0.4203 -0.1108
  126loPI   C4B 2016  14.876   3.207   9.300  0.0655  0.2209 -0.0683
  127loPI    C1 2017  16.382   0.284  10.071  0.0093 -0.1866  0.2471
  127loPI    C2 2018  16.677   0.030   9.978  0.2214  0.0555  0.2462
  127loPI    C3 2019  16.696   0.242  10.316 -0.0318 -0.0442  0.3254
  127loPI   PO4 2020  16.216   0.229  10.065  0.1525 -0.0522  0.0138
  127loPI   GL1 2021  16.010   0.107   9.740 -0.0423  0.1125 -0.0642
  127loPI   GL2 2022  15.961   0.416   9.558  0.4433 -0.0767  0.1726
  127loPI   C1A 2023  15.783  -0.073   9.471  0.0229  0.2391  0.1031
  127loPI   C2A 2024  15.365   0.015   9.155  0.1879 -0.1378  0.2096
  127loPI   C3A 2025  15.253  -0.009   8.670 -0.0964 -0.1001  0.0067
  127loPI   C4A 2026  15.202  -0.176   8.279 -0.0931 -0.1348 -0.0868
  127loPI   C5A 2027  15.121  -0.269   7.865  0.2559 -0.0487 -0.1361
  127loPI   C6A 2028  15.388  -0.256   7.581 -0.2143  0.0196  0.1706
  127loPI   C1B 2029  15.809   0.384   9.141  0.1632 -0.0548  0.1818
  127loPI   C2B 2030  15.617   0.418   8.758  0.0364  0.1834 -0.0289
  127loPI   C3B 2031  15.690   0.275   8.402  0.2312  0.2508  0.2960
  127loPI   C4B 2032  15.407   0.151   7.961  0.1748  0.1219  0.0548
  128loPI    C1 2033   7.792   3.237  11.087 -0.0217  0.2137 -0.0276
  128loPI    C2 2034   7.451   3.083  10.945  0.1386 -0.3317  0.1539
  128loPI    C3 2035   7.450   3.288  11.288 -0.0037 -0.3511  0.1655
  128loPI   PO4 2036   7.974   3.142  10.882 -0.0288  0.1162 -0.3256
  128loPI   GL1 2037   8.059   3.289  10.506 -0.1390  0.1787  0.0199
  128loPI   GL2 2038   7.747   3.287  10.504  0.1572  0.0581  0.1192
  128loPI   C1A 2039   8.281   3.052  10.152 -0.0760  0.4576 -0.1422
  128loPI   C2A 2040   8.571   2.895   9.822 -0.3436  0.2650 -0.2006
  128loPI   C3A 2041   8.756   2.869   9.465  0.0420  0.2196 -0.0110
  128loPI   C4A 2042   8.621   2.880   9.132  0.0927  0.1218 -0.1133
  128loPI   C5A 2043   8.588   3.019   8.720 -0.0690 -0.0046  0.0681
  128loPI   C6A 2044   8.256   3.163   8.438  0.0323 -0.1120 -0.0793
  128loPI   C1B 2045   7.882   3.490  10.094  0.0061  0.2538  0.2284
  128loPI   C2B 2046   8.211   3.520   9.893  0.1903 -0.2711 -0.1992
  128loPI   C3B 2047   8.237   3.245   9.551 -0.0900  0.1079  0.2188
  128loPI   C4B 2048   8.285   3.259   9.140 -0.0474  0.2858  0.1312
  129loPI    C1 2049   3.600  10.516  10.420 -0.1684 -0.1256 -0.0431
  129loPI    C2 2050   3.518  10.493  10.811  0.0666 -0.1383  0.0065
  129loPI    C3 2051   3.427  10.188  10.570 -0.1381 -0.1043  0.0388
  129loPI   PO4 2052   3.451  10.651  10.271  0.0380  0.1496  0.1536
  129loPI   GL1 2053   3.454  10.706   9.864  0.0867  0.3208  0.0973
  129loPI   GL2 2054   3.708  10.542   9.806 -0.1358 -0.1498 -0.3863
  129loPI   C1A 2055   3.271  10.775   9.487  0.2281 -0.0851 -0.1306
  129loPI   C2A 2056   3.287  10.714   8.990 -0.0868  0.0030 -0.3069
  129loPI   C3A 2057   3.581  10.700   8.573  0.3264 -0.0148  0.0059
  129loPI   C4A 2058   3.816  10.853   8.165 -0.1316 -0.2249  0.0944
  129loPI   C5A 2059   4.300  10.712   8.067  0.2567 -0.2253 -0.0388
  129loPI   C6A 2060   4.812  10.520   7.920  0.1721 -0.0221  0.2076
  129loPI   C1B 2061   3.710  10.658   9.334  0.1205  0.0914 -0.1566
  129loPI   C2B 2062   3.825  10.566   8.974  0.0812 -0.1034 -0.0203
  129loPI   C3B 2063   4.062  10.600   8.562 -0.0577  0.1729  0.1888
  129loPI   C4B 2064   4.522  10.434   8.410  0.0309 -0.2360 -0.1570
  130loPI    C1 2065   4.541  10.487  10.527 -0.0585 -0.0522 -0.1303
  130loPI    C2 2066   4.867  10.492  10.758 -0.0647  0.1400 -0.1238
  130loPI    C3 2067   4.505  10.474  10.926 -0.0600 -0.0290 -0.1297
  130loPI   PO4 2068   4.587  10.600  10.342 -0.1853 -0.1877 -0.0623
  130loPI   GL1 2069   4.410  10.612   9.938  0.2141  0.1549  0.3472
  130loPI   GL2 2070   4.213  10.803   9.708 -0.1691  0.0471  0.0358
  130loPI   C1A 2071   4.621  10.274   9.737  0.0937 -0.0951  0.2127
  130loPI   C2A 2072   4.720  10.140   9.307  0.1907 -0.1416  0.1505
  130loPI   C3A 2073   4.652  10.153   8.957 -0.1785  0.2207 -0.1455
  130loPI   C4A 2074   4.644   9.969   8.490 -0.1776 -0.1003  0.1404
  130loPI   C5A 2075   4.582   9.890   8.045 -0.1925  0.0784 -0.3752
  130loPI   C6A 2076   4.269   9.802   7.827  0.1657 -0.0191  0.1986
  130loPI   C1B 2077   4.302  10.558   9.306 -0.1697 -0.0671 -0.1449
  130loPI   C2B 2078   4.390  10.516   8.899  0.0037 -0.0290  0.0321
  130loPI   C3B 2079   4.463  10.964   8.634  0.3667 -0.0499  0.1517
  130loPI   C4B 2080   4.655  11.090   8.199  0.0571  0.2256 -0.2764
  131loPI    C1 2081   9.814  15.745  10.354  0.0291 -0.2583  0.0026
  131loPI    C2 2082   9.955  16.108  10.259 -0.1561 -0.2550 -0.2693
  131loPI    C3 2083   9.623  16.074  10.480  0.1347 -0.2629  0.1780
  131loPI   PO4 2084  10.018  15.623  10.342 -0.2503  0.1644  0.0020
  131loPI   GL1 2085  10.113  15.330  10.051  0.1371 -0.2766 -0.0475
  131loPI   GL2 2086  10.343  15.347  10.026 -0.2415  0.3538 -0.1657
  131loPI   C1A 2087   9.878  15.541   9.718 -0.1579  0.2120  0.1557
  131loPI   C2A 2088   9.900  15.475   9.390 -0.0651 -0.1363  0.3217
  131loPI   C3A 2089   9.880  15.334   9.000 -0.2631 -0.1216 -0.0085
  131loPI   C4A 2090   9.850  15.271   8.591 -0.0515  0.0298  0.4201
  131loPI   C5A 2091   9.825  15.333   8.200 -0.0073  0.0945 -0.1336
  131loPI   C6A 2092  10.084  15.590   7.954 -0.1161 -0.2765  0.0572
  131loPI   C1B 2093  10.224  15.165   9.594 -0.0669 -0.0934  0.0117
  131loPI   C2B 2094  10.292  15.122   9.145 -0.1265  0.0135  0.1363
  131loPI   C3B 2095  10.304  15.143   8.672  0.1933 -0.0670  0.2697
  131loPI   C4B 2096  10.309  15.123   8.197 -0.0079 -0.0558  0.2316
  132loPI    C1 2097  18.167   8.113  10.741 -0.1013 -0.2110  0.0938
  132loPI    C2 2098  18.212   7.774  10.948 -0.0046 -0.1618  0.1542
  132loPI    C3 2099  18.332   8.122  11.105  0.0401 -0.1200  0.0286
  132loPI   PO4 2100  18.104   8.019  10.509  0.0181 -0.0776 -0.1834
  132loPI   GL1 2101  18.052   7.974  10.093 -0.0011 -0.0132  0.2283
  132loPI   GL2 2102  17.976   7.644  10.058 -0.2987  0.2140  0.1773
  132loPI   C1A 2103  18.053   8.150   9.704 -0.2980 -0.0260 -0.0332
  132loPI   C2A 2104  18.006   8.281   9.385 -0.2783  0.0971  0.0300
  132loPI   C3A 2105  18.126   8.270   8.961 -0.1121  0.2270  0.1706
  132loPI   C4A 2106  18.258   8.006   8.633 -0.0005  0.0062  0.0169
  132loPI   C5A 2107  18.000   7.713   8.414 -0.0716  0.0749 -0.1563
  132loPI   C6A 2108  17.633   7.731   8.364 -0.1747  0.0499  0.3193
  132loPI   C1B 2109  18.252   7.699   9.741 -0.1100  0.2570 -0.1207
  132loPI   C2B 2110  18.353   7.813   9.328  0.1858 -0.0984  0.0154
  132loPI   C3B 2111  18.551   7.672   8.906 -0.3220 -0.2317 -0.1855
  132loPI   C4B 2112  18.570   7.480   8.498  0.0351 -0.2473 -0.2249
  133loPI    C1 2113   2.405   1.506  10.467 -0.0899  0.0472  0.0211
  133loPI    C2 2114   2.626   1.492  10.800 -0.1705 -0.1444  0.0679
  133loPI    C3 2115   2.350   1.211  10.731 -0.0903 -0.1585 -0.2058
  133loPI   PO4 2116   2.276   1.730  10.369  0.0790 -0.0769  0.0748
  133loPI   GL1 2117   2.183   1.652   9.988 -0.0058 -0.1273  0.2525
  133loPI   GL2 2118   1.973   1.835   9.901 -0.0691 -0.0763  0.0345
  133loPI   C1A 2119   2.216   1.493   9.556  0.1197 -0.0227  0.1252
  133loPI   C2A 2120   2.137   1.450   9.104 -0.0763 -0.0583 -0.1456
  133loPI   C3A 2121   2.265   1.494   8.680 -0.0600 -0.1426 -0.3342
  133loPI   C4A 2122   2.386   1.797   8.322  0.0447 -0.4509  0.2861
  133loPI   C5A 2123   2.368   2.154   8.020 -0.3523 -0.1485 -0.1065
  133loPI   C6A 2124   2.252   2.306   7.555  0.2166 -0.1111 -0.1909
  133loPI   C1B 2125   2.085   1.999   9.592 -0.2345 -0.2645  0.1065
  133loPI   C2B 2126   2.118   1.910   9.209 -0.1475 -0.0440 -0.1665
  133loPI   C3B 2127   2.166   2.015   8.786  0.0597  0.2890  0.1600
  133loPI   C4B 2128   2.130   2.280   8.524 -0.1642 -0.1498 -0.0300
  134loPI    C1 2129  15.849  11.605  10.775 -0.0097 -0.2488  0.1829
  134loPI    C2 2130  15.705  11.944  10.932  0.1643 -0.1739  0.1827
  134loPI    C3 2131  16.088  11.923  10.817  0.0429 -0.2283 -0.2292
  134loPI   PO4 2132  15.691  11.578  10.524  0.3950 -0.3089 -0.0585
  134loPI   GL1 2133  15.574  11.781  10.116  0.0948 -0.1816 -0.0353
  134loPI   GL2 2134  15.883  11.805   9.889 -0.4148 -0.1470  0.2535
  134loPI   C1A 2135  15.420  11.581   9.683  0.1976  0.1102 -0.0166
  134loPI   C2A 2136  15.347  11.617   9.213 -0.0921 -0.2234 -0.1507
  134loPI   C3A 2137  15.409  11.442   8.832 -0.2559 -0.0196 -0.0148
  134loPI   C4A 2138  15.383  11.517   8.365 -0.0906 -0.2520 -0.1569
  134loPI   C5A 2139  15.781  11.667   8.063 -0.0612  0.2387 -0.1890
  134loPI   C6A 2140  16.002  11.570   7.733 -0.1811  0.0293  0.0844
  134loPI   C1B 2141  16.116  11.600   9.615  0.0544 -0.0387  0.2245
  134loPI   C2B 2142  16.362  11.676   9.223 -0.2136  0.3315 -0.2296
  134loPI   C3B 2143  16.391  11.508   8.738 -0.1821 -0.2855  0.0613
  134loPI   C4B 2144  16.261  11.623   8.238 -0.1982  0.1707  0.1007
  135loPI    C1 2145   5.676   7.770  10.705  0.0702  0.1433 -0.1486
  135loPI    C2 2146   5.567   7.449  10.919  0.1441  0.2785  0.0964
  135loPI    C3 2147   5.365   7.547  10.587 -0.1023  0.1827  0.2156
  135loPI   PO4 2148   5.940   7.710  10.655 -0.0285  0.1292  0.0358
  135loPI   GL1 2149   6.122   7.667  10.247  0.1039  0.2170  0.1450
  135loPI   GL2 2150   6.150   7.257  10.148  0.0950  0.1958  0.2629
  135loPI   C1A 2151   5.966   7.848   9.880  0.1770  0.1144  0.0285
  135loPI   C2A 2152   5.784   7.810   9.475  0.0908 -0.0837  0.1445
  135loPI   C3A 2153   5.518   7.707   9.116 -0.0364 -0.3381  0.1149
  135loPI   C4A 2154   5.595   7.521   8.735 -0.3061 -0.4339  0.0371
  135loPI   C5A 2155   5.438   7.370   8.336  0.2886  0.2962 -0.0424
  135loPI   C6A 2156   5.102   7.277   7.920  0.0232  0.0173  0.0761
  135loPI   C1B 2157   6.445   7.259   9.813 -0.0755 -0.0685  0.1497
  135loPI   C2B 2158   6.461   7.358   9.442  0.1247  0.3503  0.0236
  135loPI   C3B 2159   6.545   7.539   9.154  0.1073  0.2435  0.0807
  135loPI   C4B 2160   6.675   7.413   8.830 -0.2791  0.0350 -0.0217
  136loPI    C1 2161  15.992  15.756  10.301  0.0663 -0.0245  0.0632
  136loPI    C2 2162  16.152  15.694  10.662 -0.0106  0.0237  0.1060
  136loPI    C3 2163  15.817  15.503  10.556  0.1293 -0.1551 -0.0219
  136loPI   PO4 2164  16.200  15.679  10.129  0.1232 -0.0484 -0.0434
  136loPI   GL1 2165  16.357  15.513   9.803  0.1264 -0.3509 -0.0771
  136loPI   GL2 2166  16.356  15.768   9.654  0.2318 -0.0134  0.0244
  136loPI   C1A 2167  16.591  15.209   9.548  0.0884  0.0782 -0.0230
  136loPI   C2A 2168  16.451  14.973   9.156  0.1072  0.1957 -0.3280
  136loPI   C3A 2169  16.479  14.931   8.777  0.1414  0.0603  0.0107
  136loPI   C4A 2170  16.745  14.928   8.373  0.2935 -0.2745  0.4474
  136loPI   C5A 2171  16.885  14.956   7.944  0.1635 -0.2534 -0.0488
  136loPI   C6A 2172  17.035  14.803   7.555  0.0070  0.2374  0.4268
  136loPI   C1B 2173  16.447  15.648   9.281  0.0698 -0.2034  0.3568
  136loPI   C2B 2174  16.618  15.440   8.859  0.2421 -0.1182  0.3681
  136loPI   C3B 2175  16.502  15.321   8.469  0.3115  0.0619  0.1661
  136loPI   C4B 2176  16.322  15.071   8.089 -0.1789  0.4106 -0.0204
  137loPI    C1 2177   3.728   6.521  10.216 -0.2441 -0.0883 -0.0530
  137loPI    C2 2178   3.622   6.876  10.066  0.0084  0.0366  0.0579
  137loPI    C3 2179   3.529   6.783  10.443 -0.4941 -0.2173 -0.1192
  137loPI   PO4 2180   4.030   6.519  10.134  0.1250 -0.2203 -0.0761
  137loPI   GL1 2181   4.082   6.422   9.693 -0.1368 -0.0829  0.1160
  137loPI   GL2 2182   3.723   6.524   9.694 -0.2122  0.1586  0.1717
  137loPI   C1A 2183   3.969   6.574   9.308  0.1259 -0.3004  0.1530
  137loPI   C2A 2184   3.891   6.819   8.894  0.0605  0.1699 -0.2263
  137loPI   C3A 2185   3.973   6.694   8.407  0.0931  0.2258  0.1859
  137loPI   C4A 2186   3.847   6.546   8.072  0.0309  0.2471  0.1400
  137loPI   C5A 2187   3.384   6.475   7.992 -0.0323 -0.0253  0.1618
  137loPI   C6A 2188   3.166   6.179   8.265  0.0500 -0.0819  0.1024
  137loPI   C1B 2189   3.495   6.663   9.220 -0.0692  0.1735 -0.1721
  137loPI   C2B 2190   3.297   6.792   8.940 -0.2179 -0.2137 -0.0009
  137loPI   C3B 2191   3.063   7.052   8.614  0.1246  0.2198  0.1191
  137loPI   C4B 2192   2.732   7.383   8.517 -0.0613 -0.2187 -0.0097
  138loPI    C1 2193   1.406   4.643  10.842  0.0361  0.1587 -0.1059
  138loPI    C2 2194   1.329   4.892  11.146  0.1597  0.1589 -0.0742
  138loPI    C3 2195   1.418   4.509  11.218  0.1708  0.1544 -0.1114
  138loPI   PO4 2196   1.163   4.656  10.657 -0.3306 -0.1887 -0.2251
  138loPI   GL1 2197   1.036   4.831  10.365  0.2982  0.0794 -0.0126
  138loPI   GL2 2198   0.841   4.809  10.339  0.0294 -0.3868  0.0804
  138loPI   C1A 2199   1.201   5.148  10.134  0.1080 -0.0437  0.0443
  138loPI   C2A 2200   1.147   5.241   9.698  0.0123  0.1146  0.0008
  138loPI   C3A 2201   1.169   5.079   9.267 -0.2163  0.0271 -0.2396
  138loPI   C4A 2202   1.280   4.928   8.907  0.0168 -0.0139  0.1915
  138loPI   C5A 2203   1.333   4.706   8.566  0.3551 -0.0869 -0.0235
  138loPI   C6A 2204   1.201   4.797   8.224  0.0552  0.1655  0.2458
  138loPI   C1B 2205   0.996   4.783   9.866 -0.2823  0.0446  0.0070
  138loPI   C2B 2206   0.834   4.549   9.431 -0.0521  0.1861 -0.2917
  138loPI   C3B 2207   0.930   4.545   9.025 -0.0483  0.3475  0.1282
  138loPI   C4B 2208   0.846   4.882   8.625 -0.0518  0.0406  0.1915
  139loPI    C1 2209   9.826  13.920  10.811 -0.1125  0.1639 -0.1408
  139loPI    C2 2210  10.156  13.803  11.006 -0.0707  0.1958 -0.1920
  139loPI    C3 2211   9.917  14.082  11.165 -0.1975  0.0063 -0.0455
  139loPI   PO4 2212   9.850  13.787  10.465 -0.0041 -0.2791  0.2662
  139loPI   GL1 2213   9.821  14.177  10.150  0.0193  0.1168  0.1344
  139loPI   GL2 2214   9.517  14.171  10.307  0.1746 -0.0507  0.1672
  139loPI   C1A 2215   9.703  14.097   9.757 -0.1816  0.2319 -0.1033
  139loPI   C2A 2216   9.520  13.984   9.327 -0.0842  0.1336 -0.1986
  139loPI   C3A 2217   9.558  14.014   8.935  0.1339  0.0347  0.2297
  139loPI   C4A 2218   9.463  14.261   8.568 -0.1416 -0.0215 -0.1485
  139loPI   C5A 2219   9.208  14.646   8.230 -0.0928  0.2825  0.3306
  139loPI   C6A 2220   9.385  15.046   8.130  0.0663 -0.3190 -0.1213
  139loPI   C1B 2221   9.249  13.926   9.971 -0.1105 -0.0285  0.1130
  139loPI   C2B 2222   9.513  13.637   9.710  0.1103 -0.1349 -0.2668
  139loPI   C3B 2223   9.816  13.562   9.340  0.2285 -0.1810 -0.1506
  139loPI   C4B 2224   9.941  13.677   9.005 -0.0720 -0.3060  0.0200
  140loPI    C1 2225   2.284   7.393  10.588 -0.0230  0.0952 -0.0366
  140loPI    C2 2226   2.679   7.431  10.636 -0.0217 -0.1221  0.1373
  140loPI    C3 2227   2.438   7.425  10.955 -0.1631 -0.0227  0.0335
  140loPI   PO4 2228   2.314   7.538  10.291 -0.1286  0.0496  0.1661
  140loPI   GL1 2229   2.520   7.457   9.893 -0.2042  0.1443 -0.0774
  140loPI   GL2 2230   2.194   7.574   9.763 -0.1195  0.0726 -0.1200
  140loPI   C1A 2231   2.922   7.325   9.741 -0.0020  0.0123 -0.1880
  140loPI   C2A 2232   3.313   7.414   9.770 -0.0682 -0.2328 -0.5437
  140loPI   C3A 2233   3.583   7.691   9.485  0.0568  0.0520  0.3369
  140loPI   C4A 2234   3.758   7.674   9.056 -0.1637 -0.0124 -0.1232
  140loPI   C5A 2235   3.937   7.936   8.845  0.0227 -0.0738  0.1083
  140loPI   C6A 2236   4.172   8.158   8.540 -0.0815  0.0401 -0.2079
  140loPI   C1B 2237   2.285   7.799   9.469 -0.0283 -0.3159 -0.2824
  140loPI   C2B 2238   2.212   7.942   9.095  0.0649  0.1783 -0.2726
  140loPI   C3B 2239   2.094   8.236   8.669  0.3984 -0.0219 -0.3124
  140loPI   C4B 2240   2.270   8.661   8.484  0.3134  0.2137  0.0660
  141loPI    C1 2241   1.808   4.188  10.454 -0.0788  0.3165  0.1651
  141loPI    C2 2242   1.919   3.890  10.697 -0.0160  0.0548 -0.1762
  141loPI    C3 2243   1.796   4.239  10.850 -0.0893 -0.1434  0.2291
  141loPI   PO4 2244   1.607   4.001  10.294 -0.0915 -0.0189  0.1252
  141loPI   GL1 2245   1.637   3.905   9.844 -0.0764  0.0510 -0.0614
  141loPI   GL2 2246   1.494   3.630   9.888 -0.0310 -0.0940 -0.0522
  141loPI   C1A 2247   1.387   4.066   9.498 -0.2460 -0.0719 -0.1447
  141loPI   C2A 2248   1.258   3.971   9.061  0.4392 -0.1631 -0.1270
  141loPI   C3A 2249   1.130   4.218   8.715  0.1447 -0.0514 -0.1415
  141loPI   C4A 2250   0.912   4.342   8.309  0.0938 -0.3148 -0.1530
  141loPI   C5A 2251   0.439   4.179   8.240  0.0031  0.0963 -0.2716
  141loPI   C6A 2252   0.079   3.878   8.310 -0.1093 -0.0330 -0.0525
  141loPI   C1B 2253   1.427   3.559   9.535  0.1435  0.0436 -0.1416
  141loPI   C2B 2254   1.473   3.477   9.110 -0.0816 -0.2864  0.0408
  141loPI   C3B 2255   1.452   3.664   8.698  0.1169 -0.0060 -0.1849
  141loPI   C4B 2256   1.268   3.896   8.372  0.0676  0.0577  0.0261
  142loPI    C1 2257  16.194  18.005  10.372  0.0043  0.1936 -0.0778
  142loPI    C2 2258  16.578  18.030  10.480 -0.0219  0.1480  0.0276
  142loPI    C3 2259  16.309  18.280  10.639 -0.0411  0.1597 -0.0228
  142loPI   PO4 2260  16.309  17.928  10.077 -0.0503 -0.1913 -0.1280
  142loPI   GL1 2261  16.322  17.924   9.687  0.2725 -0.1893 -0.2100
  142loPI   GL2 2262  16.678  17.882   9.507  0.1383 -0.1035  0.2177
  142loPI   C1A 2263  16.145  17.919   9.230  0.0596 -0.1557  0.2068
  142loPI   C2A 2264  15.810  18.094   8.922  0.0560 -0.1358 -0.1283
  142loPI   C3A 2265  15.746  18.036   8.518 -0.1652  0.4869 -0.3048
  142loPI   C4A 2266  15.722  17.913   8.087  0.3223 -0.1966  0.0382
  142loPI   C5A 2267  15.883  17.554   7.733 -0.0699  0.2036  0.3928
  142loPI   C6A 2268  16.262  17.362   7.819  0.4007 -0.1787 -0.2501
  142loPI   C1B 2269  16.617  17.974   9.050  0.2631 -0.1792 -0.1956
  142loPI   C2B 2270  16.667  18.085   8.579 -0.2828  0.0095  0.0961
  142loPI   C3B 2271  16.669  18.200   8.110  0.0799  0.3168  0.1641
  142loPI   C4B 2272  16.965  18.322   7.778  0.0103  0.1066  0.0363
  143loPI    C1 2273  17.250   3.867  10.609  0.1603  0.0517  0.0200
  143loPI    C2 2274  17.306   3.519  10.799  0.0482 -0.0416 -0.1156
  143loPI    C3 2275  17.393   3.864  10.983  0.2093 -0.1426  0.0007
  143loPI   PO4 2276  17.036   3.807  10.482 -0.0120 -0.1716 -0.4129
  143loPI   GL1 2277  16.998   3.846  10.042  0.4210  0.1174  0.0822
  143loPI   GL2 2278  16.864   4.099   9.900  0.2705 -0.1259 -0.0605
  143loPI   C1A 2279  16.928   3.679   9.686  0.0359 -0.2999  0.0802
  143loPI   C2A 2280  16.842   3.554   9.255  0.1001 -0.0300  0.0720
  143loPI   C3A 2281  16.945   3.585   8.846 -0.0773  0.1635  0.0996
  143loPI   C4A 2282  16.725   3.682   8.461 -0.1940 -0.0667 -0.2477
  143loPI   C5A 2283  16.884   3.708   8.041 -0.2510  0.0298 -0.2645
  143loPI   C6A 2284  17.379   3.729   7.921 -0.1457  0.2244  0.0787
  143loPI   C1B 2285  16.744   4.300   9.546  0.1478  0.1906  0.0346
  143loPI   C2B 2286  16.830   4.364   9.176  0.0904  0.0246  0.3065
  143loPI   C3B 2287  16.780   4.156   8.730  0.0922 -0.1872 -0.0571
  143loPI   C4B 2288  17.045   4.109   8.386  0.1948  0.1469  0.2948
  144loPI    C1 2289   9.389   0.263  10.798 -0.2624 -0.1508  0.1134
  144loPI    C2 2290   9.755   0.311  10.643 -0.2347 -0.2806  0.1371
  144loPI    C3 2291   9.616   0.571  10.913 -0.1524 -0.2421  0.1424
  144loPI   PO4 2292   9.343   0.024  10.641 -0.2500  0.2058  0.3270
  144loPI   GL1 2293   9.413   0.130  10.215 -0.1815  0.0224  0.3323
  144loPI   GL2 2294   9.450   0.342   9.976  0.1572  0.1070 -0.0620
  144loPI   C1A 2295   9.772  -0.024   9.863 -0.1644 -0.0021  0.3393
  144loPI   C2A 2296   9.721  -0.079   9.381  0.0953 -0.1008  0.2418
  144loPI   C3A 2297   9.934  -0.151   8.964  0.1789  0.3653 -0.1728
  144loPI   C4A 2298  10.253  -0.083   8.659 -0.4501  0.1413 -0.2250
  144loPI   C5A 2299  10.588   0.136   8.495 -0.1287  0.0112  0.0737
  144loPI   C6A 2300  10.959   0.139   8.225  0.0560  0.0073 -0.0331
  144loPI   C1B 2301   9.630   0.371   9.573  0.0970  0.0952  0.1199
  144loPI   C2B 2302   9.685   0.299   9.095  0.0230 -0.1039 -0.1517
  144loPI   C3B 2303   9.754   0.181   8.672  0.0452 -0.0810  0.0783
  144loPI   C4B 2304   9.815  -0.212   8.351 -0.1064 -0.2890  0.0462
  145loPI    C1 2305   8.463   6.162  11.084  0.1449  0.0808  0.0708
  145loPI    C2 2306   8.250   5.916  11.316 -0.0015  0.0718 -0.0717
  145loPI    C3 2307   8.270   6.306  11.403 -0.0855  0.0746 -0.0634
  145loPI   PO4 2308   8.321   6.088  10.784 -0.1469  0.0244 -0.1717
  145loPI   GL1 2309   8.423   6.204  10.431  0.0479 -0.1033 -0.1298
  145loPI   GL2 2310   8.352   6.457  10.169 -0.1435 -0.2134  0.0371
  145loPI   C1A 2311   8.620   5.971   9.972 -0.3039  0.1562  0.1479
  145loPI   C2A 2312   8.655   5.831   9.524  0.0098 -0.2005  0.0274
  145loPI   C3A 2313   8.766   5.905   9.164  0.2043 -0.3653  0.3167
  145loPI   C4A 2314   8.710   5.953   8.649 -0.0574  0.0822  0.0565
  145loPI   C5A 2315   8.921   5.898   8.380  0.3097  0.0194 -0.0224
  145loPI   C6A 2316   9.060   5.898   8.077 -0.2216 -0.0238 -0.3257
  145loPI   C1B 2317   8.512   6.495   9.751 -0.2031  0.0365  0.1493
  145loPI   C2B 2318   8.480   6.700   9.358  0.2441 -0.0366 -0.0211
  145loPI   C3B 2319   8.387   6.727   8.991 -0.0015 -0.3929 -0.0518
  145loPI   C4B 2320   8.399   6.606   8.592  0.1528 -0.0811  0.2052
  146loPI    C1 2321  13.168  17.095  10.917 -0.2306 -0.0075  0.2658
  146loPI    C2 2322  13.331  16.730  10.930  0.1170  0.1316 -0.0211
  146loPI    C3 2323  13.287  16.942  11.267  0.0846 -0.0990  0.1222
  146loPI   PO4 2324  13.170  17.152  10.650  0.1886  0.0690  0.0303
  146loPI   GL1 2325  13.195  17.112  10.232 -0.0388  0.0550 -0.0391
  146loPI   GL2 2326  13.316  17.493  10.158  0.0082  0.1618 -0.1035
  146loPI   C1A 2327  13.180  17.060   9.744 -0.1783 -0.4267  0.1685
  146loPI   C2A 2328  13.009  16.963   9.407  0.4429 -0.1255 -0.3393
  146loPI   C3A 2329  13.106  16.698   9.102  0.0655  0.0396 -0.0460
  146loPI   C4A 2330  13.353  16.673   8.672 -0.1861 -0.3022 -0.1595
  146loPI   C5A 2331  13.625  17.087   8.315  0.1557 -0.0441  0.1803
  146loPI   C6A 2332  13.572  17.579   8.271  0.2984 -0.1409  0.1354
  146loPI   C1B 2333  13.138  17.632   9.741 -0.6889  0.1956 -0.2909
  146loPI   C2B 2334  13.183  17.695   9.385 -0.3596 -0.0122 -0.2764
  146loPI   C3B 2335  13.360  17.846   8.955  0.0128 -0.0661  0.2042
  146loPI   C4B 2336  13.200  17.591   8.648 -0.1523  0.0040 -0.1207
  147loPI    C1 2337  17.304   6.988  10.750  0.1970 -0.0260  0.0490
  147loPI    C2 2338  17.128   6.793  11.052 -0.0453  0.1717  0.0385
  147loPI    C3 2339  17.368   7.104  11.127  0.0253  0.1186  0.0346
  147loPI   PO4 2340  17.049   7.042  10.536  0.3148 -0.3753 -0.0325
  147loPI   GL1 2341  17.014   7.009  10.113  0.2497  0.0220  0.1654
  147loPI   GL2 2342  16.634   6.955  10.145 -0.3618  0.3485 -0.0367
  147loPI   C1A 2343  17.024   7.210   9.686 -0.2493 -0.1165 -0.2218
  147loPI   C2A 2344  17.080   7.178   9.230  0.0582 -0.2501  0.1218
  147loPI   C3A 2345  17.311   6.969   8.886 -0.1615  0.3439 -0.2193
  147loPI   C4A 2346  17.245   7.059   8.589  0.0356 -0.0795  0.1133
  147loPI   C5A 2347  17.228   7.413   8.420  0.0399 -0.1044 -0.0178
  147loPI   C6A 2348  17.170   7.813   8.581  0.0631 -0.0398 -0.0791
  147loPI   C1B 2349  16.589   7.340   9.822 -0.1140 -0.2305  0.1771
  147loPI   C2B 2350  16.661   7.480   9.410 -0.3391 -0.2479 -0.0690
  147loPI   C3B 2351  16.429   7.753   9.113 -0.2315  0.0811  0.0986
  147loPI   C4B 2352  16.407   8.072   8.816 -0.1994  0.3497 -0.0544
  148loPI    C1 2353  13.852   8.016  11.084  0.0359 -0.1942 -0.0553
  148loPI    C2 2354  13.651   7.999  11.429 -0.0449  0.0196 -0.0900
  148loPI    C3 2355  14.037   8.105  11.427  0.0631 -0.3583 -0.0270
  148loPI   PO4 2356  13.711   8.184  10.958  0.5255 -0.0130  0.1643
  148loPI   GL1 2357  13.453   8.139  10.621  0.0508  0.1263 -0.0924
  148loPI   GL2 2358  13.469   7.979  10.384 -0.1874 -0.1489  0.2715
  148loPI   C1A 2359  13.581   8.523  10.429  0.0644  0.3772 -0.0708
  148loPI   C2A 2360  13.432   8.624  10.052  0.0070 -0.1486 -0.0334
  148loPI   C3A 2361  13.480   8.475   9.584 -0.0327 -0.1506 -0.3003
  148loPI   C4A 2362  13.763   8.554   9.235  0.1370 -0.1381  0.0992
  148loPI   C5A 2363  13.564   8.617   8.831 -0.0676  0.0962  0.0838
  148loPI   C6A 2364  13.725   8.623   8.429 -0.3567  0.1184  0.0955
  148loPI   C1B 2365  13.251   8.125   9.969  0.0626  0.0031  0.1198
  148loPI   C2B 2366  13.006   8.059   9.654  0.1405  0.1277 -0.1347
  148loPI   C3B 2367  12.897   7.982   9.310 -0.0511 -0.2628  0.0811
  148loPI   C4B 2368  12.955   7.904   8.831 -0.1944 -0.0350 -0.0515
  149loPI    C1 2369   5.160   9.277  10.724  0.0583  0.1562 -0.2660
  149loPI    C2 2370   4.897   9.564  10.816 -0.0410 -0.0339  0.0601
  149loPI    C3 2371   5.282   9.606  10.917 -0.0577 -0.0209  0.1182
  149loPI   PO4 2372   5.054   9.232  10.460 -0.1217 -0.2536  0.0806
  149loPI   GL1 2373   5.309   9.393  10.121  0.2428 -0.1390 -0.2282
  149loPI   GL2 2374   4.991   9.266   9.971  0.0245  0.0147 -0.4064
  149loPI   C1A 2375   5.460   9.561   9.730 -0.1653  0.0303 -0.1643
  149loPI   C2A 2376   5.570   9.586   9.312  0.1393 -0.1484  0.1877
  149loPI   C3A 2377   5.651   9.598   8.861  0.0341 -0.1831 -0.0236
  149loPI   C4A 2378   5.937   9.832   8.568  0.0764 -0.1199 -0.1547
  149loPI   C5A 2379   5.935   9.799   8.151 -0.0359  0.3789 -0.2655
  149loPI   C6A 2380   5.931   9.678   7.750  0.0047  0.0751  0.3714
  149loPI   C1B 2381   5.122   9.201   9.628  0.0995 -0.7110 -0.1982
  149loPI   C2B 2382   5.281   9.111   9.227  0.1900 -0.1242  0.0869
  149loPI   C3B 2383   5.356   9.203   8.806 -0.0309  0.1588  0.0870
  149loPI   C4B 2384   5.332   9.245   8.377  0.1719 -0.1680 -0.1782
  150loPI    C1 2385   2.577   4.486  10.812  0.1520  0.1468 -0.2007
  150loPI    C2 2386   2.203   4.473  10.670  0.1049  0.0929 -0.0727
  150loPI    C3 2387   2.313   4.766  10.920  0.1485  0.1085 -0.1098
  150loPI   PO4 2388   2.795   4.442  10.597  0.0878  0.1091  0.3646
  150loPI   GL1 2389   2.797   4.609  10.128  0.0739 -0.0091 -0.0862
  150loPI   GL2 2390   2.542   4.437  10.112  0.0395 -0.0515 -0.0782
  150loPI   C1A 2391   2.933   4.479   9.733  0.1763  0.1526  0.1691
  150loPI   C2A 2392   2.983   4.432   9.259  0.2158 -0.3995 -0.1229
  150loPI   C3A 2393   2.917   4.479   8.779 -0.1513  0.4225  0.3742
  150loPI   C4A 2394   2.795   4.706   8.429  0.0316  0.0576  0.1089
  150loPI   C5A 2395   2.546   5.115   8.290  0.0049  0.0651  0.0889
  150loPI   C6A 2396   2.404   5.226   7.900  0.0003  0.1647 -0.2572
  150loPI   C1B 2397   2.456   4.566   9.698  0.1054  0.4450  0.4498
  150loPI   C2B 2398   2.395   4.742   9.244  0.0600 -0.1178 -0.2089
  150loPI   C3B 2399   2.176   5.022   8.901 -0.3442  0.1651  0.1986
  150loPI   C4B 2400   2.168   4.984   8.584 -0.4846  0.1775 -0.1486
  151loPI    C1 2401  17.742   0.757  10.512 -0.0113  0.3578 -0.0219
  151loPI    C2 2402  17.688   0.964  10.849 -0.2160 -0.1973  0.2999
  151loPI    C3 2403  17.808   0.583  10.866  0.2155 -0.0995 -0.2791
  151loPI   PO4 2404  17.840   0.982  10.311  0.1645  0.0481 -0.1564
  151loPI   GL1 2405  17.882   1.068   9.963  0.0166 -0.1169 -0.1552
  151loPI   GL2 2406  17.622   1.171   9.697 -0.0808  0.0051 -0.1465
  151loPI   C1A 2407  18.159   1.116   9.592  0.1480  0.1529  0.3884
  151loPI   C2A 2408  18.141   1.167   9.158  0.0095 -0.0508 -0.2517
  151loPI   C3A 2409  18.137   0.926   8.777  0.0021  0.0045  0.3232
  151loPI   C4A 2410  18.361   0.878   8.420  0.0634 -0.0935 -0.2511
  151loPI   C5A 2411  18.665   0.596   8.321  0.1437  0.4356  0.0505
  151loPI   C6A 2412  19.030   0.466   8.114 -0.1722  0.1391  0.1611
  151loPI   C1B 2413  17.712   1.397   9.247  0.0595 -0.0427 -0.0150
  151loPI   C2B 2414  17.852   1.458   8.835  0.0559  0.3595 -0.1319
  151loPI   C3B 2415  18.015   1.404   8.515 -0.1446  0.1113 -0.0627
  151loPI   C4B 2416  18.097   1.156   8.092 -0.1158 -0.0593  0.0542
  152loPI    C1 2417   4.348   3.716  10.806  0.0465  0.1411 -0.0887
  152loPI    C2 2418   3.981   3.785  10.949  0.0183  0.1826 -0.1802
  152loPI    C3 2419   4.258   3.616  11.183 -0.1104 -0.0122 -0.1652
  152loPI   PO4 2420   4.348   3.565  10.535 -0.2440  0.0585  0.2861
  152loPI   GL1 2421   4.382   3.439  10.232 -0.2434  0.1526  0.0794
  152loPI   GL2 2422   4.152   3.450   9.987 -0.4101 -0.2369 -0.0524
  152loPI   C1A 2423   4.582   3.191   9.980  0.0386  0.1115 -0.0719
  152loPI   C2A 2424   4.465   2.973   9.700  0.1397  0.0087 -0.0730
  152loPI   C3A 2425   4.086   2.971   9.514  0.0607  0.1195 -0.0774
  152loPI   C4A 2426   3.960   2.753   9.145 -0.0590  0.0300  0.1099
  152loPI   C5A 2427   3.857   2.584   8.794 -0.1101 -0.0853 -0.3018
  152loPI   C6A 2428   3.674   2.424   8.424 -0.3210  0.1969 -0.0270
  152loPI   C1B 2429   4.297   3.460   9.569  0.0503 -0.1813  0.3210
  152loPI   C2B 2430   4.420   3.720   9.255 -0.2580 -0.2543 -0.0354
  152loPI   C3B 2431   4.684   3.820   8.845 -0.0528 -0.0288  0.2084
  152loPI   C4B 2432   4.683   3.783   8.445 -0.0807  0.1180  0.1472
  153loPI    C1 2433   9.286  14.608  10.503  0.1920  0.4109 -0.0070
  153loPI    C2 2434   9.158  14.632  10.881 -0.1444  0.3163 -0.1119
  153loPI    C3 2435   9.207  14.274  10.709  0.2961  0.3496 -0.0656
  153loPI   PO4 2436   9.382  14.962  10.464  0.1009  0.0016  0.1193
  153loPI   GL1 2437   9.464  15.017  10.058 -0.0605  0.2088 -0.2009
  153loPI   GL2 2438   9.607  15.336  10.152  0.2846 -0.2096 -0.2215
  153loPI   C1A 2439   9.704  15.044   9.688 -0.1511 -0.2154 -0.2896
  153loPI   C2A 2440   9.793  14.952   9.342 -0.0493  0.2500 -0.1973
  153loPI   C3A 2441   9.857  14.833   8.882 -0.3846  0.0745 -0.3699
  153loPI   C4A 2442  10.067  14.680   8.437  0.1725  0.1483 -0.1476
  153loPI   C5A 2443   9.901  14.799   7.985 -0.0226 -0.0661  0.3151
  153loPI   C6A 2444   9.645  15.087   7.704  0.1477 -0.1916  0.0673
  153loPI   C1B 2445   9.336  15.385   9.754 -0.0249 -0.0468 -0.2241
  153loPI   C2B 2446   9.445  15.369   9.316 -0.0111 -0.0201 -0.0855
  153loPI   C3B 2447   9.371  15.336   8.919 -0.2808 -0.1520  0.1121
  153loPI   C4B 2448   9.335  15.415   8.459 -0.1436  0.2177  0.0430
  154loPI    C1 2449  18.002   6.440  10.678  0.3783 -0.0890 -0.1823
  154loPI    C2 2450  18.396   6.437  10.607  0.4336  0.0862  0.1031
  154loPI    C3 2451  18.255   6.582  10.953  0.1059  0.1886 -0.0684
  154loPI   PO4 2452  17.896   6.615  10.466  0.0160  0.0199  0.1936
  154loPI   GL1 2453  17.827   6.497  10.116  0.1348 -0.2320 -0.0709
  154loPI   GL2 2454  18.118   6.292  10.150 -0.0704  0.0501 -0.0044
  154loPI   C1A 2455  17.578   6.267   9.788 -0.2574 -0.3176  0.0477
  154loPI   C2A 2456  17.299   6.207   9.561 -0.0693  0.2694  0.2295
  154loPI   C3A 2457  17.193   6.112   9.136 -0.0956  0.1884  0.1303
  154loPI   C4A 2458  17.055   6.285   8.771 -0.1061 -0.0704 -0.2754
  154loPI   C5A 2459  17.231   6.300   8.315  0.0779 -0.0862 -0.0015
  154loPI   C6A 2460  17.442   6.360   7.947  0.1726  0.2501  0.3255
  154loPI   C1B 2461  18.102   6.393   9.753  0.1395 -0.0964  0.3034
  154loPI   C2B 2462  18.071   6.458   9.343  0.3497  0.0193  0.0123
  154loPI   C3B 2463  18.088   6.532   9.035 -0.0205  0.0990  0.0141
  154loPI   C4B 2464  18.071   6.645   8.627  0.1656 -0.2163  0.1012
  155loPI    C1 2465   1.267   2.478  10.370  0.0810 -0.1516 -0.0811
  155loPI    C2 2466   1.229   2.098  10.251  0.0546 -0.1661 -0.0270
  155loPI    C3 2467   1.450   2.186  10.573  0.0497 -0.1369 -0.0314
  155loPI   PO4 2468   1.348   2.620  10.158 -0.1884  0.1897 -0.2091
  155loPI   GL1 2469   1.373   2.394   9.795  0.1390  0.2266  0.1664
  155loPI   GL2 2470   1.583   2.085   9.752  0.2186 -0.0041  0.4890
  155loPI   C1A 2471   1.312   2.504   9.436  0.1976  0.2909 -0.0015
  155loPI   C2A 2472   1.532   2.574   9.046  0.1017  0.1215  0.1385
  155loPI   C3A 2473   1.529   2.750   8.604  0.3575 -0.1567 -0.2202
  155loPI   C4A 2474   1.578   3.079   8.382  0.0887  0.0163  0.0748
  155loPI   C5A 2475   1.544   3.423   8.287 -0.0585  0.1312  0.1294
  155loPI   C6A 2476   1.484   3.745   7.981  0.0724  0.1297  0.2842
  155loPI   C1B 2477   1.669   2.186   9.309 -0.0208  0.1668 -0.0791
  155loPI   C2B 2478   1.684   2.190   8.848 -0.3993  0.0248  0.1060
  155loPI   C3B 2479   1.562   2.300   8.394 -0.0481 -0.0227 -0.0914
  155loPI   C4B 2480   1.256   2.488   8.125  0.0356 -0.0443 -0.2339
  156loPI    C1 2481   0.864  17.072  10.084 -0.1096 -0.0921 -0.2972
  156loPI    C2 2482   1.250  17.166  10.035 -0.1752  0.3397 -0.0337
  156loPI    C3 2483   1.089  17.162  10.402 -0.3047 -0.3386 -0.0846
  156loPI   PO4 2484   0.729  17.205   9.983  0.1218 -0.1817  0.1750
  156loPI   GL1 2485   0.475  17.282   9.618 -0.0266 -0.0926  0.0723
  156loPI   GL2 2486   0.341  16.986   9.631 -0.1019  0.1072 -0.1585
  156loPI   C1A 2487   0.672  17.422   9.317  0.1272  0.0532  0.1711
  156loPI   C2A 2488   0.611  17.466   8.819  0.2446 -0.0461 -0.2131
  156loPI   C3A 2489   0.752  17.537   8.401 -0.0909 -0.2267  0.0286
  156loPI   C4A 2490   0.723  17.620   7.912 -0.0679  0.1391  0.3077
  156loPI   C5A 2491   0.477  17.603   7.460  0.2907  0.1010  0.2572
  156loPI   C6A 2492   0.115  17.405   7.379 -0.0148  0.0043 -0.4511
  156loPI   C1B 2493   0.429  17.043   9.085  0.0897 -0.2409 -0.3214
  156loPI   C2B 2494   0.492  17.033   8.611 -0.2269  0.0201  0.1899
  156loPI   C3B 2495   0.561  17.172   8.162  0.2440  0.1811  0.2955
  156loPI   C4B 2496   0.353  17.088   7.820  0.4200 -0.0248  0.2021
  157loPI    C1 2497  11.131   0.035  10.580 -0.0251  0.1933 -0.1422
  157loPI    C2 2498  11.033   0.136  10.954  0.1263 -0.1068 -0.0183
  157loPI    C3 2499  10.994   0.403  10.659 -0.0718  0.1067  0.1961
  157loPI   PO4 2500  10.984  -0.123  10.556 -0.0946 -0.2809  0.0491
  157loPI   GL1 2501  10.939  -0.287  10.131  0.0451 -0.1686  0.1681
  157loPI   GL2 2502  11.321  -0.211  10.097 -0.2082  0.1243  0.2228
  157loPI   C1A 2503  10.763   0.075   9.884  0.0146  0.0938  0.0558
  157loPI   C2A 2504  10.629   0.118   9.422  0.1283  0.1632 -0.1238
  157loPI   C3A 2505  10.651   0.024   8.990  0.0433  0.1170 -0.1039
  157loPI   C4A 2506  10.694  -0.346   8.699 -0.1240 -0.4550 -0.0059
  157loPI   C5A 2507  10.332  -0.527   8.481  0.0238 -0.0169 -0.0890
  157loPI   C6A 2508   9.964  -0.703   8.256  0.1434  0.1129 -0.2763
  157loPI   C1B 2509  11.206  -0.115   9.682 -0.0315  0.2314 -0.1828
  157loPI   C2B 2510  11.058  -0.223   9.338  0.2721  0.2190  0.0216
  157loPI   C3B 2511  11.120   0.130   9.024  0.3201  0.2557  0.4186
  157loPI   C4B 2512  11.158   0.367   8.775  0.1100  0.3141 -0.2547
  158loPI    C1 2513  14.772   9.120  10.783 -0.1665 -0.3212 -0.0183
  158loPI    C2 2514  14.824   9.119  11.179  0.0409 -0.1191 -0.0433
  158loPI    C3 2515  14.933   8.801  10.963  0.0904 -0.1602  0.0414
  158loPI   PO4 2516  14.864   9.311  10.638 -0.2853  0.0460  0.0148
  158loPI   GL1 2517  14.834   9.502  10.343  0.1919  0.0243  0.4008
  158loPI   GL2 2518  14.449   9.610  10.171 -0.2150 -0.0740 -0.5016
  158loPI   C1A 2519  15.005   9.302  10.013  0.2142 -0.1093 -0.0403
  158loPI   C2A 2520  14.920   9.185   9.575 -0.1874 -0.1134 -0.1530
  158loPI   C3A 2521  14.793   9.304   9.114 -0.1785  0.1866 -0.0414
  158loPI   C4A 2522  14.642   9.426   8.729  0.1938 -0.2396  0.1625
  158loPI   C5A 2523  14.783   9.520   8.356 -0.1295  0.2281 -0.3255
  158loPI   C6A 2524  15.094   9.499   8.188  0.1199  0.3310  0.1006
  158loPI   C1B 2525  14.585   9.629   9.705  0.2149 -0.0219 -0.0088
  158loPI   C2B 2526  14.384   9.502   9.376  0.1691  0.0995  0.1613
  158loPI   C3B 2527  14.184   9.249   8.945  0.0749  0.1507  0.0385
  158loPI   C4B 2528  14.161   9.324   8.454  0.1752  0.2101  0.2791
  159loPI    C1 2529   2.464   4.004  10.742  0.1615  0.0341 -0.0860
  159loPI    C2 2530   2.675   3.695  10.883  0.0390  0.0239  0.0772
  159loPI    C3 2531   2.758   4.067  11.005  0.1799  0.0556 -0.1118
  159loPI   PO4 2532   2.420   3.993  10.553  0.2581  0.1880  0.0173
  159loPI   GL1 2533   2.226   4.057  10.231  0.2746 -0.0936  0.3775
  159loPI   GL2 2534   2.467   3.826  10.033  0.0591  0.0401  0.2142
  159loPI   C1A 2535   2.189   4.117   9.772  0.2986  0.2002  0.1328
  159loPI   C2A 2536   1.996   3.968   9.367 -0.2844  0.0740  0.1340
  159loPI   C3A 2537   1.721   4.160   8.979 -0.3407  0.0261 -0.0300
  159loPI   C4A 2538   1.640   4.326   8.502  0.1520  0.0588 -0.0849
  159loPI   C5A 2539   1.476   4.315   8.142 -0.0952 -0.3618 -0.0094
  159loPI   C6A 2540   1.122   4.422   7.867 -0.0461 -0.3721 -0.1539
  159loPI   C1B 2541   2.671   4.056   9.781 -0.1935  0.0378  0.1909
  159loPI   C2B 2542   2.482   4.140   9.383  0.2699  0.1496  0.0143
  159loPI   C3B 2543   2.329   4.153   9.026  0.1592 -0.1167  0.2295
  159loPI   C4B 2544   2.469   4.534   8.757  0.1534  0.2768  0.2705
  160loPI    C1 2545  12.554   5.549  10.602 -0.1355  0.0415 -0.0553
  160loPI    C2 2546  12.405   5.178  10.631  0.1331 -0.0685 -0.0510
  160loPI    C3 2547  12.290   5.461  10.890 -0.0441 -0.1580 -0.0305
  160loPI   PO4 2548  12.538   5.582  10.321 -0.1568  0.1502 -0.2641
  160loPI   GL1 2549  12.250   5.749  10.025 -0.1983 -0.1864 -0.0531
  160loPI   GL2 2550  12.280   6.030  10.178  0.0938 -0.0785  0.0288
  160loPI   C1A 2551  12.492   5.907   9.639 -0.0292 -0.1319  0.3222
  160loPI   C2A 2552  12.419   6.195   9.216  0.1260  0.2616 -0.1014
  160loPI   C3A 2553  12.337   6.476   8.831  0.1874  0.2719  0.2387
  160loPI   C4A 2554  12.190   6.341   8.439  0.1767  0.0479 -0.0350
  160loPI   C5A 2555  12.330   6.012   8.121 -0.2856 -0.5050  0.2625
  160loPI   C6A 2556  12.202   5.734   7.735  0.2214 -0.0144 -0.1805
  160loPI   C1B 2557  12.219   6.353   9.806 -0.1332 -0.0728  0.3036
  160loPI   C2B 2558  12.402   6.658   9.459 -0.0381 -0.1560 -0.1182
  160loPI   C3B 2559  12.634   6.763   9.019 -0.0519 -0.0213 -0.0539
  160loPI   C4B 2560  12.788   6.793   8.651 -0.1091  0.1239  0.2128
  161loPI    C1 2561   3.961  11.948  10.504 -0.1504  0.1692 -0.0916
  161loPI    C2 2562   4.283  11.713  10.474 -0.2306  0.0436  0.0170
  161loPI    C3 2563   4.179  11.865  10.829 -0.0519  0.4280 -0.0892
  161loPI   PO4 2564   3.874  12.037  10.205  0.0344  0.1921  0.1943
  161loPI   GL1 2565   3.882  12.126   9.743 -0.0956  0.0370 -0.1083
  161loPI   GL2 2566   4.200  12.175   9.755 -0.0425 -0.0909  0.0862
  161loPI   C1A 2567   3.632  12.012   9.406 -0.1568 -0.3489  0.1946
  161loPI   C2A 2568   3.673  12.069   8.898  0.0661 -0.0408 -0.1415
  161loPI   C3A 2569   3.587  11.994   8.518 -0.2137  0.0663 -0.0471
  161loPI   C4A 2570   3.622  11.956   8.145 -0.0026 -0.1055 -0.1656
  161loPI   C5A 2571   3.669  12.221   7.874  0.0881  0.0885  0.3200
  161loPI   C6A 2572   3.930  12.617   7.744  0.3030 -0.2694  0.1223
  161loPI   C1B 2573   4.102  12.613   9.559  0.3884 -0.1538  0.0186
  161loPI   C2B 2574   3.982  12.805   9.111 -0.1461 -0.1749 -0.0203
  161loPI   C3B 2575   4.097  12.644   8.766  0.1908  0.0348  0.2809
  161loPI   C4B 2576   3.966  12.387   8.523 -0.2413 -0.0682  0.0421
  162loPI    C1 2577   6.542  18.043  10.765 -0.0820  0.0538 -0.0407
  162loPI    C2 2578   6.530  18.431  10.862  0.2580 -0.0208  0.3213
  162loPI    C3 2579   6.459  18.152  11.140 -0.1817 -0.2212  0.0193
  162loPI   PO4 2580   6.636  17.991  10.507 -0.1882 -0.1589  0.0501
  162loPI   GL1 2581   6.644  18.001  10.090 -0.2037  0.2130 -0.1145
  162loPI   GL2 2582   6.991  18.031   9.994  0.1845  0.2334 -0.0298
  162loPI   C1A 2583   6.435  17.947   9.651 -0.0609  0.0444 -0.2586
  162loPI   C2A 2584   6.421  18.081   9.309  0.2194 -0.1413  0.0467
  162loPI   C3A 2585   6.303  18.123   8.934  0.0539  0.1786  0.1982
  162loPI   C4A 2586   6.204  18.281   8.582  0.0762  0.0401  0.0342
  162loPI   C5A 2587   6.307  18.662   8.360  0.1034 -0.2179  0.0016
  162loPI   C6A 2588   6.266  18.715   7.941 -0.3671  0.0384 -0.3020
  162loPI   C1B 2589   6.935  17.962   9.574 -0.1066  0.1954 -0.0432
  162loPI   C2B 2590   6.890  18.061   9.270 -0.0168 -0.1352  0.0328
  162loPI   C3B 2591   6.950  17.859   8.864  0.3141 -0.2097  0.1066
  162loPI   C4B 2592   6.954  17.653   8.518  0.0859 -0.1785  0.1016
  163loPI    C1 2593   6.294   8.587  11.039  0.1491  0.0997  0.0083
  163loPI    C2 2594   6.011   8.868  11.016 -0.0006 -0.0311  0.2059
  163loPI    C3 2595   6.237   8.839  11.345  0.2689  0.0940  0.0360
  163loPI   PO4 2596   6.401   8.496  10.804  0.1629 -0.0358 -0.4058
  163loPI   GL1 2597   6.218   8.367  10.521 -0.2848 -0.0373  0.2526
  163loPI   GL2 2598   6.062   8.136  10.348 -0.0402 -0.0475  0.1885
  163loPI   C1A 2599   6.396   8.308  10.047  0.0173  0.2828 -0.2438
  163loPI   C2A 2600   6.182   8.341   9.700  0.0423  0.2341  0.0163
  163loPI   C3A 2601   5.899   8.286   9.427  0.2705  0.0200  0.0418
  163loPI   C4A 2602   5.772   8.153   9.128  0.2428  0.1385  0.0305
  163loPI   C5A 2603   5.742   7.968   8.641 -0.0421  0.1628 -0.0662
  163loPI   C6A 2604   5.768   7.805   8.187  0.0045 -0.0876 -0.0729
  163loPI   C1B 2605   5.811   8.348  10.015 -0.2229  0.2018 -0.2492
  163loPI   C2B 2606   5.545   8.122   9.751  0.1245  0.2929 -0.2320
  163loPI   C3B 2607   5.531   7.623   9.814  0.1868  0.1861  0.2422
  163loPI   C4B 2608   5.754   7.265   9.787 -0.3010 -0.2918 -0.0208
  164loPI    C1 2609  10.017   0.850  10.538  0.3217  0.1678 -0.1040
  164loPI    C2 2610   9.915   1.099  10.833 -0.0910 -0.0909 -0.0205
  164loPI    C3 2611  10.091   0.751  10.918 -0.4188 -0.2691 -0.0546
  164loPI   PO4 2612   9.883   0.689  10.366  0.3567 -0.2319 -0.1316
  164loPI   GL1 2613   9.907   0.475   9.982  0.0625  0.1867  0.3953
  164loPI   GL2 2614   9.746   0.733   9.929  0.3116  0.2376  0.0812
  164loPI   C1A 2615  10.224   0.146   9.704  0.1062 -0.0360  0.2186
  164loPI   C2A 2616  10.233  -0.228   9.427 -0.1445  0.6627  0.0098
  164loPI   C3A 2617  10.328  -0.516   9.057 -0.2684 -0.4985 -0.3228
  164loPI   C4A 2618  10.532  -0.815   8.810 -0.0239 -0.0845 -0.1790
  164loPI   C5A 2619  10.334  -1.007   8.477 -0.0551  0.1076 -0.0177
  164loPI   C6A 2620  10.141  -1.179   8.106  0.0080 -0.2213 -0.0986
  164loPI   C1B 2621   9.695   0.847   9.511 -0.1133  0.3886  0.2499
  164loPI   C2B 2622   9.782   0.855   9.187 -0.1251 -0.0090 -0.2051
  164loPI   C3B 2623   9.762   0.741   8.756  0.2798 -0.2321  0.0029
  164loPI   C4B 2624   9.726   0.665   8.520 -0.1221  0.1434 -0.3558
  165loPI    C1 2625  13.692   5.009  10.528  0.2063 -0.0314  0.0315
  165loPI    C2 2626  13.720   4.655  10.712  0.0266 -0.1216 -0.1111
  165loPI    C3 2627  13.471   4.934  10.852  0.0610 -0.1048 -0.0832
  165loPI   PO4 2628  13.801   5.020  10.278  0.2552  0.0406  0.2180
  165loPI   GL1 2629  13.647   4.939   9.799  0.0387 -0.3676  0.1724
  165loPI   GL2 2630  13.610   5.286   9.857 -0.2059  0.0848 -0.0325
  165loPI   C1A 2631  13.637   5.155   9.377  0.4632 -0.1844  0.3082
  165loPI   C2A 2632  13.606   5.234   8.891  0.1712 -0.0956 -0.3233
  165loPI   C3A 2633  13.727   5.159   8.485  0.1704  0.2675 -0.2119
  165loPI   C4A 2634  13.614   4.962   8.116 -0.1826  0.0620 -0.0127
  165loPI   C5A 2635  13.362   5.031   7.708  0.1220  0.0246  0.0701
  165loPI   C6A 2636  13.272   5.166   7.322 -0.2721  0.1638 -0.0077
  165loPI   C1B 2637  13.833   5.543   9.616  0.1178  0.2717 -0.1250
  165loPI   C2B 2638  13.888   5.587   9.193  0.2303 -0.1188  0.1028
  165loPI   C3B 2639  14.010   5.547   8.709 -0.1730  0.1553  0.3302
  165loPI   C4B 2640  13.976   5.575   8.213  0.2330  0.0678  0.0277
  166loPI    C1 2641  13.366  14.241  10.443  0.0904 -0.1945  0.3378
  166loPI    C2 2642  13.206  14.427  10.758  0.1130  0.2457  0.0981
  166loPI    C3 2643  13.159  14.579  10.392 -0.0273 -0.3297 -0.1344
  166loPI   PO4 2644  13.266  14.021  10.412  0.1002  0.2995  0.0108
  166loPI   GL1 2645  13.253  13.788  10.122  0.1006  0.0760 -0.0760
  166loPI   GL2 2646  13.404  13.526  10.217  0.0655 -0.3820 -0.0059
  166loPI   C1A 2647  13.355  13.590   9.726  0.2948  0.0205  0.0568
  166loPI   C2A 2648  13.459  13.589   9.202  0.1197 -0.1523 -0.3036
  166loPI   C3A 2649  13.378  13.610   8.702  0.1800 -0.0677  0.1860
  166loPI   C4A 2650  13.446  13.798   8.265 -0.1710  0.0791  0.2672
  166loPI   C5A 2651  13.672  14.033   7.901  0.0100 -0.2075 -0.2260
  166loPI   C6A 2652  14.131  13.968   7.645  0.0543 -0.1123  0.1445
  166loPI   C1B 2653  13.757  13.827  10.082  0.0942  0.2043  0.0442
  166loPI   C2B 2654  14.132  13.835   9.833 -0.0331  0.1882 -0.1680
  166loPI   C3B 2655  14.556  13.981   9.847  0.2536 -0.0060  0.3421
  166loPI   C4B 2656  14.836  13.835   9.577 -0.0102 -0.0750  0.3152
  167loPI    C1 2657   4.589   6.348  10.817 -0.0896 -0.1303 -0.1736
  167loPI    C2 2658   4.326   6.602  10.655  0.1219  0.1268 -0.1196
  167loPI    C3 2659   4.208   6.347  10.940 -0.0742  0.2226 -0.1133
  167loPI   PO4 2660   4.760   6.282  10.671  0.0326 -0.0696  0.2925
  167loPI   GL1 2661   4.921   6.321  10.223  0.0095  0.0881 -0.1301
  167loPI   GL2 2662   4.813   6.066  10.006  0.1362 -0.2776  0.1066
  167loPI   C1A 2663   5.331   6.351   9.976  0.2740  0.0126 -0.3786
  167loPI   C2A 2664   5.435   6.284   9.581  0.4034 -0.0218 -0.4032
  167loPI   C3A 2665   5.637   6.231   9.189 -0.2050 -0.0338 -0.0578
  167loPI   C4A 2666   5.949   6.216   8.876 -0.1488 -0.2788 -0.0531
  167loPI   C5A 2667   6.245   6.175   8.567 -0.2922  0.1410  0.2704
  167loPI   C6A 2668   6.503   6.023   8.190  0.2591 -0.2118  0.2349
  167loPI   C1B 2669   4.975   5.999   9.715 -0.1102 -0.2434  0.0353
  167loPI   C2B 2670   5.135   5.903   9.364 -0.0377 -0.1675 -0.3248
  167loPI   C3B 2671   5.110   5.809   8.933  0.1280 -0.3758 -0.0791
  167loPI   C4B 2672   5.369   5.657   8.568 -0.0481 -0.3583  0.0528
  168loPI    C1 2673   3.501   3.748  10.406 -0.0293 -0.0988  0.0883
  168loPI    C2 2674   3.739   3.486  10.219  0.1101 -0.0278  0.1645
  168loPI    C3 2675   3.897   3.803  10.404 -0.0491  0.0509  0.1679
  168loPI   PO4 2676   3.179   3.724  10.281 -0.0717  0.3713  0.1155
  168loPI   GL1 2677   2.941   3.560   9.954  0.1848 -0.4565  0.5064
  168loPI   GL2 2678   3.361   3.511   9.848 -0.0039 -0.1715 -0.2003
  168loPI   C1A 2679   2.924   3.655   9.575 -0.1385  0.2158 -0.2076
  168loPI   C2A 2680   2.867   3.809   9.203 -0.1086 -0.0826 -0.3987
  168loPI   C3A 2681   2.886   3.931   8.811  0.1561  0.0041 -0.0770
  168loPI   C4A 2682   3.013   4.153   8.416 -0.2909 -0.1863 -0.0689
  168loPI   C5A 2683   3.405   3.994   8.165 -0.1117 -0.0578  0.0574
  168loPI   C6A 2684   3.729   4.348   7.889 -0.0349  0.2000  0.0184
  168loPI   C1B 2685   3.322   3.465   9.369  0.2401 -0.0669  0.3317
  168loPI   C2B 2686   3.257   3.585   8.957  0.0562  0.2897 -0.1470
  168loPI   C3B 2687   3.231   3.567   8.559 -0.0284 -0.3454 -0.2298
  168loPI   C4B 2688   2.884   3.697   8.253 -0.1513 -0.2352 -0.0481
  169loPI    C1 2689   6.907   7.669  10.886  0.1081 -0.0022 -0.4546
  169loPI    C2 2690   7.043   8.036  10.967  0.0298 -0.0233 -0.2207
  169loPI    C3 2691   7.250   7.715  11.087 -0.1634 -0.0552  0.0379
  169loPI   PO4 2692   6.867   7.726  10.639  0.0330 -0.0143  0.4666
  169loPI   GL1 2693   7.014   7.497  10.309 -0.1741 -0.0339 -0.0587
  169loPI   GL2 2694   6.802   7.450  10.185 -0.1304 -0.2352 -0.1162
  169loPI   C1A 2695   7.209   7.339   9.933 -0.2573  0.0235 -0.4164
  169loPI   C2A 2696   7.427   7.197   9.511 -0.0447 -0.0053  0.2225
  169loPI   C3A 2697   7.528   6.899   9.145  0.1286 -0.0191  0.0465
  169loPI   C4A 2698   7.368   6.812   8.770  0.3318 -0.1732  0.0322
  169loPI   C5A 2699   7.289   6.623   8.353  0.0406  0.1836  0.0415
  169loPI   C6A 2700   7.255   6.567   7.865  0.0593  0.3328  0.1109
  169loPI   C1B 2701   6.894   7.635   9.712  0.0076  0.0136  0.0573
  169loPI   C2B 2702   6.973   7.605   9.323 -0.2501 -0.0970  0.2195
  169loPI   C3B 2703   7.078   7.710   8.875 -0.4772  0.2270 -0.1756
  169loPI   C4B 2704   7.010   7.622   8.513  0.3290  0.1013  0.3027
  170loPI    C1 2705   5.996   0.206  10.569 -0.1636 -0.0153 -0.0742
  170loPI    C2 2706   6.056  -0.045  10.875  0.1079  0.3828  0.2090
  170loPI    C3 2707   5.711  -0.054  10.673  0.1718 -0.3208  0.1058
  170loPI   PO4 2708   6.217   0.166  10.443 -0.1204  0.0871  0.3578
  170loPI   GL1 2709   6.383   0.190   9.991 -0.0975 -0.1269  0.0303
  170loPI   GL2 2710   6.453   0.516   9.941  0.1551  0.1035  0.1126
  170loPI   C1A 2711   6.116   0.186   9.564  0.0869 -0.1001 -0.3789
  170loPI   C2A 2712   6.077   0.315   9.150 -0.0724 -0.4188 -0.1453
  170loPI   C3A 2713   6.015   0.514   8.778  0.0028  0.2434 -0.1737
  170loPI   C4A 2714   5.723   0.844   8.584 -0.0484  0.3338  0.1799
  170loPI   C5A 2715   5.716   1.202   8.348 -0.2398  0.1088 -0.0267
  170loPI   C6A 2716   6.027   1.407   8.197 -0.2371  0.0034 -0.0735
  170loPI   C1B 2717   6.292   0.641   9.511 -0.0191  0.1461  0.2370
  170loPI   C2B 2718   6.159   0.853   9.227  0.3493 -0.0121  0.1752
  170loPI   C3B 2719   6.147   1.073   8.866 -0.0982  0.0797  0.0016
  170loPI   C4B 2720   6.311   1.379   8.594 -0.0984  0.2956 -0.1956
  171loPI    C1 2721   1.313  13.417  10.596 -0.0610 -0.0842  0.0058
  171loPI    C2 2722   1.097  13.600  10.879 -0.0119  0.0105 -0.0177
  171loPI    C3 2723   1.483  13.518  10.944  0.0408  0.1749 -0.1166
  171loPI   PO4 2724   1.051  13.243  10.493 -0.0127 -0.1641 -0.1818
  171loPI   GL1 2725   0.859  13.149  10.039 -0.0479  0.0470  0.1522
  171loPI   GL2 2726   0.659  13.455  10.033 -0.1474 -0.1046 -0.3486
  171loPI   C1A 2727   1.038  13.319   9.652 -0.2211 -0.0266  0.3460
  171loPI   C2A 2728   1.308  13.400   9.355 -0.0705 -0.0916 -0.2075
  171loPI   C3A 2729   1.317  13.381   8.850  0.0466  0.2400 -0.1089
  171loPI   C4A 2730   1.357  13.398   8.506 -0.0504 -0.3398 -0.0309
  171loPI   C5A 2731   1.439  13.414   8.127 -0.0711  0.0439 -0.3025
  171loPI   C6A 2732   1.516  13.656   7.795 -0.1204 -0.1661  0.1340
  171loPI   C1B 2733   0.598  13.550   9.625  0.1532  0.3405 -0.0060
  171loPI   C2B 2734   0.538  13.636   9.123  0.1677 -0.1644  0.0019
  171loPI   C3B 2735   0.490  13.694   8.777  0.2423  0.1658  0.2527
  171loPI   C4B 2736   0.500  13.493   8.370  0.1481 -0.0449 -0.1645
  172loPI    C1 2737   1.428  14.559  10.178  0.0163  0.3315 -0.0456
  172loPI    C2 2738   1.244  14.476  10.524  0.1603  0.2128  0.0037
  172loPI    C3 2739   1.558  14.724  10.519 -0.0644  0.5019 -0.0961
  172loPI   PO4 2740   1.210  14.704  10.047 -0.1668  0.1039 -0.2796
  172loPI   GL1 2741   1.263  14.994   9.683 -0.0288 -0.2267  0.1938
  172loPI   GL2 2742   1.566  15.063   9.905  0.2266 -0.0608  0.1593
  172loPI   C1A 2743   1.073  14.850   9.302 -0.0256 -0.0734  0.1423
  172loPI   C2A 2744   1.268  14.797   8.973  0.0451  0.3324  0.4134
  172loPI   C3A 2745   1.452  14.901   8.597  0.2354  0.1560  0.1526
  172loPI   C4A 2746   1.652  14.989   8.209 -0.2637 -0.3733  0.2391
  172loPI   C5A 2747   2.007  15.064   7.901  0.2436  0.0247  0.0133
  172loPI   C6A 2748   2.336  14.897   7.889  0.0680  0.0037 -0.0120
  172loPI   C1B 2749   1.672  14.822   9.492 -0.1271  0.2474 -0.1238
  172loPI   C2B 2750   1.744  14.710   9.107 -0.0491 -0.0512 -0.0014
  172loPI   C3B 2751   2.005  14.777   8.702  0.2136 -0.3259  0.0189
  172loPI   C4B 2752   2.209  14.716   8.381 -0.1230 -0.0266  0.1539
  173loPI    C1 2753  16.825  14.488  10.557 -0.2087 -0.0304  0.1705
  173loPI    C2 2754  17.157  14.328  10.712 -0.1248  0.0076  0.0312
  173loPI    C3 2755  16.981  14.638  10.894 -0.0635  0.0110  0.0854
  173loPI   PO4 2756  16.766  14.302  10.340  0.2685 -0.0001  0.0784
  173loPI   GL1 2757  16.431  14.190  10.042 -0.1502  0.1201 -0.4793
  173loPI   GL2 2758  16.122  13.933  10.189 -0.1556 -0.1196 -0.0849
  173loPI   C1A 2759  16.251  14.226   9.772 -0.0363  0.3995 -0.1170
  173loPI   C2A 2760  16.002  14.208   9.382  0.1730 -0.0363  0.1279
  173loPI   C3A 2761  15.838  14.355   9.042  0.0441 -0.1257  0.0175
  173loPI   C4A 2762  15.695  14.268   8.570  0.0458 -0.1052  0.1158
  173loPI   C5A 2763  15.373  14.438   8.322  0.1170 -0.0848 -0.0706
  173loPI   C6A 2764  14.955  14.581   8.325 -0.2554  0.0238 -0.1133
  173loPI   C1B 2765  15.848  14.043   9.944  0.0152  0.1620  0.2030
  173loPI   C2B 2766  15.520  14.132   9.580 -0.2296  0.0723 -0.3750
  173loPI   C3B 2767  15.294  14.024   9.440  0.2492 -0.3180  0.3097
  173loPI   C4B 2768  15.088  13.817   9.128 -0.0816 -0.1543  0.1230
  174loPI    C1 2769  17.715   1.937  10.474  0.2407  0.0655 -0.0514
  174loPI    C2 2770  17.484   2.211  10.650 -0.1147 -0.2459 -0.0198
  174loPI    C3 2771  17.870   2.181  10.750 -0.1234  0.0961  0.1317
  174loPI   PO4 2772  17.651   1.941  10.251 -0.0160 -0.2234  0.0459
  174loPI   GL1 2773  17.614   1.963   9.877 -0.1480 -0.2245  0.1711
  174loPI   GL2 2774  17.998   2.177   9.756 -0.0486 -0.0745  0.0586
  174loPI   C1A 2775  17.696   2.013   9.372 -0.0470 -0.0727  0.2567
  174loPI   C2A 2776  17.764   2.006   8.952 -0.0772  0.1112  0.1417
  174loPI   C3A 2777  17.844   1.909   8.514  0.3158 -0.3578 -0.0921
  174loPI   C4A 2778  18.062   1.747   8.144 -0.0073 -0.1522  0.1170
  174loPI   C5A 2779  18.509   1.936   7.942 -0.1934 -0.2939 -0.2628
  174loPI   C6A 2780  18.768   1.849   7.617 -0.3638  0.0433  0.0139
  174loPI   C1B 2781  18.202   2.270   9.369  0.2089 -0.0976 -0.2099
  174loPI   C2B 2782  18.229   2.352   8.930  0.1901 -0.0872  0.4672
  174loPI   C3B 2783  18.269   2.327   8.424  0.1210  0.0118  0.0315
  174loPI   C4B 2784  18.348   2.462   7.968 -0.2820  0.1975 -0.0692
  175loPI    C1 2785  18.006  15.190  10.243 -0.0041 -0.0658 -0.0636
  175loPI    C2 2786  17.952  14.972  10.574 -0.3121  0.0707 -0.0205
  175loPI    C3 2787  17.926  15.371  10.590 -0.0813  0.0932 -0.1630
  175loPI   PO4 2788  17.871  15.048  10.028  0.1417 -0.2875 -0.3076
  175loPI   GL1 2789  18.060  14.968   9.767  0.0927  0.1425 -0.1618
  175loPI   GL2 2790  18.316  15.180   9.660 -0.0694 -0.1733  0.1529
  175loPI   C1A 2791  17.969  15.009   9.354 -0.0579  0.2066 -0.2611
  175loPI   C2A 2792  17.958  14.828   8.959  0.1078  0.2366  0.1650
  175loPI   C3A 2793  17.972  14.526   8.650  0.2264  0.0566  0.2308
  175loPI   C4A 2794  18.046  14.256   8.206  0.0768  0.0843 -0.0453
  175loPI   C5A 2795  18.181  13.856   7.846 -0.0879 -0.1626 -0.2100
  175loPI   C6A 2796  18.358  13.451   7.775 -0.0899  0.0473 -0.4023
  175loPI   C1B 2797  18.385  15.062   9.169 -0.2874  0.2594  0.0072
  175loPI   C2B 2798  18.329  15.074   8.717 -0.2333  0.0693 -0.1505
  175loPI   C3B 2799  18.017  14.959   8.415  0.1092  0.0286 -0.3004
  175loPI   C4B 2800  17.875  14.768   8.192  0.1661 -0.0913 -0.3291
  176loPI    C1 2801  14.614  12.789  10.850 -0.2155  0.1368  0.2101
  176loPI    C2 2802  14.709  13.129  11.038 -0.0818  0.0962  0.2169
  176loPI    C3 2803  14.814  12.777  11.196 -0.2565  0.0495  0.2309
  176loPI   PO4 2804  14.564  12.805  10.595 -0.0022 -0.0267  0.3578
  176loPI   GL1 2805  14.605  12.824  10.219  0.2132  0.0440  0.1958
  176loPI   GL2 2806  14.969  12.719  10.101 -0.2163  0.0324  0.2356
  176loPI   C1A 2807  14.538  12.908   9.881  0.0141  0.2226 -0.1150
  176loPI   C2A 2808  14.606  12.975   9.423  0.0099 -0.1029  0.3040
  176loPI   C3A 2809  14.678  13.078   8.970  0.2899  0.1795  0.1482
  176loPI   C4A 2810  14.500  12.960   8.620 -0.1059  0.1658 -0.2636
  176loPI   C5A 2811  14.374  12.744   8.318  0.0175  0.0847 -0.2979
  176loPI   C6A 2812  14.275  12.361   8.237 -0.1611 -0.1425 -0.0959
  176loPI   C1B 2813  14.785  12.350   9.974 -0.4624 -0.0191  0.3296
  176loPI   C2B 2814  14.430  12.365   9.763  0.0221 -0.0249  0.0367
  176loPI   C3B 2815  14.166  12.516   9.553  0.1150  0.0134  0.1485
  176loPI   C4B 2816  13.804  12.625   9.408  0.0581 -0.0153 -0.1688
  177loPI    C1 2817  16.020   3.299  10.294 -0.2083 -0.0683 -0.0664
  177loPI    C2 2818  16.353   3.202  10.492 -0.0977  0.2124 -0.1109
  177loPI    C3 2819  16.056   3.390  10.682 -0.1481  0.1425 -0.1202
  177loPI   PO4 2820  16.147   3.283  10.018 -0.1531 -0.0893 -0.1073
  177loPI   GL1 2821  16.516   3.330   9.786 -0.1467  0.0253 -0.1744
  177loPI   GL2 2822  16.372   3.487   9.459 -0.1353 -0.0054  0.2368
  177loPI   C1A 2823  16.761   3.048   9.451  0.1571  0.1944  0.0398
  177loPI   C2A 2824  16.897   3.083   9.099  0.2126 -0.2870  0.1370
  177loPI   C3A 2825  16.773   3.114   8.626  0.2291  0.2352  0.1640
  177loPI   C4A 2826  16.607   2.913   8.272  0.0741  0.4570  0.0970
  177loPI   C5A 2827  16.423   2.607   8.053 -0.1220  0.1596 -0.0044
  177loPI   C6A 2828  16.492   2.390   7.663 -0.2556  0.0632 -0.5476
  177loPI   C1B 2829  16.495   3.356   8.963 -0.0673  0.0216  0.1386
  177loPI   C2B 2830  16.346   3.335   8.408  0.1201  0.1352 -0.1400
  177loPI   C3B 2831  16.060   3.694   8.152 -0.0505 -0.1317 -0.2159
  177loPI   C4B 2832  16.205   3.829   7.692  0.0428 -0.2990 -0.3100
  178loPI    C1 2833   4.584   1.396  10.433 -0.1889  0.1778  0.1740
  178loPI    C2 2834   4.455   1.021  10.487 -0.0879  0.1379  0.1420
  178loPI    C3 2835   4.482   1.271  10.799 -0.3007  0.1664  0.1392
  178loPI   PO4 2836   4.831   1.478  10.240  0.1499  0.1913  0.3011
  178loPI   GL1 2837   4.763   1.795  10.028  0.0481 -0.0623 -0.1106
  178loPI   GL2 2838   4.550   2.066  10.059 -0.0693 -0.0936  0.4288
  178loPI   C1A 2839   4.734   1.965   9.559  0.1090 -0.0524 -0.1967
  178loPI   C2A 2840   4.738   2.180   9.096  0.0881  0.1641 -0.0258
  178loPI   C3A 2841   5.002   1.870   8.848  0.0807  0.0475 -0.0840
  178loPI   C4A 2842   4.954   1.524   8.554 -0.0689  0.2089 -0.3521
  178loPI   C5A 2843   4.563   1.577   8.339  0.0981  0.0122 -0.0355
  178loPI   C6A 2844   4.138   1.986   8.384  0.1221  0.2443  0.1067
  178loPI   C1B 2845   4.226   1.783   9.759 -0.0351  0.0351 -0.1265
  178loPI   C2B 2846   4.019   1.427   9.655  0.0389 -0.3169 -0.1444
  178loPI   C3B 2847   3.971   1.166   9.437 -0.0423 -0.1387  0.0257
  178loPI   C4B 2848   4.123   1.105   9.059 -0.0525 -0.1892  0.1642
  179loPI    C1 2849   7.937   6.716  10.782 -0.1776 -0.2128  0.0886
  179loPI    C2 2850   8.270   6.666  10.996  0.0277 -0.0377 -0.1827
  179loPI    C3 2851   7.966   6.877  11.146  0.1696  0.0848 -0.0641
  179loPI   PO4 2852   8.092   6.803  10.457 -0.0824 -0.2350 -0.2207
  179loPI   GL1 2853   7.947   6.808   9.965  0.1423  0.0736  0.0419
  179loPI   GL2 2854   7.766   6.549   9.922  0.0231 -0.0327  0.1034
  179loPI   C1A 2855   8.027   6.721   9.514 -0.0127  0.1039  0.1020
  179loPI   C2A 2856   7.953   6.562   9.137  0.0500 -0.2754 -0.1700
  179loPI   C3A 2857   7.885   6.572   8.780  0.2086  0.2318  0.0094
  179loPI   C4A 2858   7.662   6.320   8.509 -0.0527 -0.1027 -0.0197
  179loPI   C5A 2859   7.393   6.103   8.205  0.0968  0.0831  0.1267
  179loPI   C6A 2860   7.604   5.748   7.860 -0.1242  0.1220 -0.2837
  179loPI   C1B 2861   7.650   6.431   9.497  0.1842  0.3568  0.1248
  179loPI   C2B 2862   7.459   6.403   9.108  0.0171 -0.2233 -0.0213
  179loPI   C3B 2863   7.275   6.283   8.763  0.3072  0.4659  0.0407
  179loPI   C4B 2864   7.119   5.964   8.618  0.0737 -0.1327 -0.2167
  180loPI    C1 2865  11.651   1.887  10.400 -0.0416 -0.1487  0.0434
  180loPI    C2 2866  11.405   2.200  10.361 -0.0766 -0.1679  0.1078
  180loPI    C3 2867  11.260   1.828  10.339 -0.0236 -0.1804 -0.0424
  180loPI   PO4 2868  11.881   1.960  10.293  0.1510 -0.2109  0.1127
  180loPI   GL1 2869  12.017   1.843   9.982 -0.0886 -0.1584 -0.0117
  180loPI   GL2 2870  12.337   2.032  10.001 -0.2617  0.1170 -0.2258
  180loPI   C1A 2871  11.958   1.944   9.615 -0.1991 -0.1424  0.1492
  180loPI   C2A 2872  11.987   1.959   9.171 -0.2353 -0.1863 -0.2011
  180loPI   C3A 2873  11.858   1.918   8.807 -0.0889 -0.0818 -0.1411
  180loPI   C4A 2874  11.809   1.968   8.437 -0.2571  0.1508 -0.0971
  180loPI   C5A 2875  11.634   1.641   8.146  0.0930  0.2877 -0.2567
  180loPI   C6A 2876  11.628   1.428   7.763  0.1948  0.1214 -0.2093
  180loPI   C1B 2877  12.522   2.135   9.624 -0.0724 -0.2516  0.0140
  180loPI   C2B 2878  12.412   2.252   9.276  0.3871  0.0459  0.4161
  180loPI   C3B 2879  12.297   2.122   8.782 -0.0998 -0.0945  0.2883
  180loPI   C4B 2880  12.278   1.904   8.484  0.0429 -0.2663 -0.0126
  181loPI    C1 2881  10.812   1.727  10.405  0.0196  0.2348  0.0140
  181loPI    C2 2882  10.624   1.682  10.756 -0.0549 -0.1608 -0.0710
  181loPI    C3 2883  10.926   1.943  10.721 -0.3542  0.2266  0.1597
  181loPI   PO4 2884  10.658   1.764  10.181 -0.0858 -0.4030 -0.1687
  181loPI   GL1 2885  10.316   1.945   9.973 -0.4768  0.1065 -0.2095
  181loPI   GL2 2886  10.297   2.270   9.853 -0.2255  0.1483 -0.0764
  181loPI   C1A 2887  10.524   1.957   9.525 -0.0827  0.0501  0.0800
  181loPI   C2A 2888  10.605   1.984   8.988  0.2233  0.0712 -0.1698
  181loPI   C3A 2889  10.434   1.869   8.634 -0.1570 -0.1266 -0.1069
  181loPI   C4A 2890  10.521   1.808   8.134 -0.0594 -0.1144 -0.1934
  181loPI   C5A 2891  10.751   1.560   8.031 -0.0930 -0.1536  0.0172
  181loPI   C6A 2892  11.158   1.646   8.210 -0.0488 -0.0335 -0.0917
  181loPI   C1B 2893  10.226   2.299   9.360 -0.1467  0.1563 -0.3766
  181loPI   C2B 2894  10.159   2.282   8.914 -0.0371 -0.2697  0.0120
  181loPI   C3B 2895   9.853   2.143   8.586  0.0538  0.0444 -0.0705
  181loPI   C4B 2896   9.691   2.415   8.290 -0.2368 -0.5057  0.3108
  182loPI    C1 2897   0.530  12.271  10.336 -0.0456  0.2890 -0.1065
  182loPI    C2 2898   0.483  12.174  10.721 -0.0476 -0.0759 -0.1951
  182loPI    C3 2899   0.796  12.395  10.607 -0.0670  0.0649  0.0190
  182loPI   PO4 2900   0.321  12.310  10.221 -0.2194  0.2554 -0.3822
  182loPI   GL1 2901   0.072  12.127   9.869 -0.2074 -0.0440  0.2366
  182loPI   GL2 2902   0.122  11.816   9.887 -0.1961 -0.1154 -0.1684
  182loPI   C1A 2903  -0.003  12.109   9.377  0.0385 -0.1109  0.2756
  182loPI   C2A 2904   0.098  12.172   8.885  0.0929 -0.0031 -0.0464
  182loPI   C3A 2905   0.036  12.080   8.415 -0.1045 -0.0290  0.2528
  182loPI   C4A 2906  -0.366  12.190   8.044 -0.0396  0.0642  0.0310
  182loPI   C5A 2907  -0.602  12.109   7.744 -0.0004  0.1296 -0.1361
  182loPI   C6A 2908  -1.004  12.134   7.439  0.1803  0.0242 -0.1368
  182loPI   C1B 2909   0.305  11.758   9.462 -0.1388  0.2135 -0.1747
  182loPI   C2B 2910   0.107  11.759   9.096 -0.3596  0.2999  0.1825
  182loPI   C3B 2911   0.340  11.773   8.684 -0.1437 -0.0540  0.0498
  182loPI   C4B 2912   0.701  11.742   8.467  0.1527 -0.0003  0.0162
  183loPI    C1 2913   1.150   9.727  10.619  0.1680 -0.2402 -0.0452
  183loPI    C2 2914   1.164   9.358  10.774  0.0481 -0.0787  0.3649
  183loPI    C3 2915   1.330   9.664  10.970 -0.1252  0.1375  0.1812
  183loPI   PO4 2916   0.895   9.710  10.468 -0.1194 -0.1214  0.2204
  183loPI   GL1 2917   0.703   9.453  10.215  0.0435  0.0060  0.1796
  183loPI   GL2 2918   0.723   9.243  10.395 -0.1718  0.0409 -0.2219
  183loPI   C1A 2919   0.689   9.582   9.774 -0.3598 -0.2280  0.0935
  183loPI   C2A 2920   0.510   9.550   9.371  0.2557  0.1060 -0.2015
  183loPI   C3A 2921   0.439   9.468   8.930  0.0273 -0.1944  0.3689
  183loPI   C4A 2922   0.457   9.409   8.500  0.1176 -0.4325 -0.6192
  183loPI   C5A 2923   0.421   9.578   8.050  0.0653  0.2308 -0.0320
  183loPI   C6A 2924   0.282   9.915   7.868  0.0061  0.1520  0.1389
  183loPI   C1B 2925   0.764   9.024   9.906 -0.1974 -0.0732  0.0454
  183loPI   C2B 2926   0.692   8.784   9.531 -0.1712  0.1135  0.3919
  183loPI   C3B 2927   0.691   8.684   9.102 -0.0073  0.3056 -0.1495
  183loPI   C4B 2928   0.821   8.669   8.685 -0.3452 -0.1436 -0.1408
  184loPI    C1 2929   0.309   6.980  10.816 -0.0422  0.0370 -0.1678
  184loPI    C2 2930  -0.048   7.054  10.650 -0.1670  0.0367  0.0961
  184loPI    C3 2931   0.134   7.336  10.869 -0.0119  0.0309 -0.0238
  184loPI   PO4 2932   0.473   6.834  10.630 -0.2525 -0.0745  0.1800
  184loPI   GL1 2933   0.533   6.687  10.258  0.0643 -0.0703  0.2847
  184loPI   GL2 2934   0.654   6.936   9.953  0.2447  0.3405 -0.0841
  184loPI   C1A 2935   0.324   6.504   9.949  0.1285  0.0148 -0.0425
  184loPI   C2A 2936   0.341   6.473   9.502  0.1914 -0.0210 -0.1963
  184loPI   C3A 2937   0.410   6.458   9.147  0.0859  0.3766  0.0381
  184loPI   C4A 2938   0.334   6.575   8.767  0.2233 -0.3668  0.1495
  184loPI   C5A 2939   0.284   6.577   8.304  0.0966  0.1346  0.2490
  184loPI   C6A 2940   0.167   6.294   7.974 -0.0780 -0.1844 -0.3724
  184loPI   C1B 2941   0.620   6.889   9.453 -0.0396 -0.0175 -0.2823
  184loPI   C2B 2942   0.714   6.906   8.959 -0.1083  0.3739 -0.1378
  184loPI   C3B 2943   0.568   7.050   8.523  0.1966  0.1722  0.2119
  184loPI   C4B 2944   0.368   7.132   8.090 -0.1082 -0.1134  0.0017
  185loPI    C1 2945   2.868  16.614  10.404  0.2430 -0.1408  0.0396
  185loPI    C2 2946   2.843  16.473  10.778  0.4075  0.0982  0.1430
  185loPI    C3 2947   3.181  16.428  10.570  0.3189 -0.0272  0.0246
  185loPI   PO4 2948   2.577  16.512  10.321 -0.3304  0.1188 -0.0379
  185loPI   GL1 2949   2.433  16.381   9.964  0.0072  0.1206 -0.1648
  185loPI   GL2 2950   2.318  16.687   9.779 -0.3016  0.0589  0.1457
  185loPI   C1A 2951   2.657  16.346   9.526 -0.1574  0.0339  0.1304
  185loPI   C2A 2952   2.501  16.273   9.135  0.3162  0.2662  0.1277
  185loPI   C3A 2953   2.669  16.334   8.721  0.0137  0.2252  0.1435
  185loPI   C4A 2954   2.766  16.148   8.363 -0.0679  0.2090 -0.0771
  185loPI   C5A 2955   2.665  16.259   7.854  0.3498  0.0846  0.0221
  185loPI   C6A 2956   2.834  16.275   7.485 -0.1179 -0.3567 -0.1016
  185loPI   C1B 2957   2.178  16.959   9.491  0.0922  0.0634  0.0753
  185loPI   C2B 2958   1.973  16.879   9.011  0.0863 -0.0654  0.3114
  185loPI   C3B 2959   1.948  16.778   8.556  0.1317  0.2877 -0.2193
  185loPI   C4B 2960   1.919  16.844   8.121 -0.0549 -0.0626  0.2053
  186loPI    C1 2961  13.150   9.438  11.110  0.1706  0.0090  0.1341
  186loPI    C2 2962  13.141   9.838  11.108  0.0202  0.0059 -0.0625
  186loPI    C3 2963  13.300   9.644  11.419  0.0354  0.2169  0.0637
  186loPI   PO4 2964  12.894   9.424  10.898 -0.1845  0.0721  0.2616
  186loPI   GL1 2965  12.679   9.489  10.502  0.0498  0.1657  0.0106
  186loPI   GL2 2966  12.537   9.247  10.553 -0.1185 -0.0836 -0.2418
  186loPI   C1A 2967  12.554   9.652  10.133  0.0896  0.0502  0.0978
  186loPI   C2A 2968  12.378   9.926   9.766  0.0762  0.0716  0.1184
  186loPI   C3A 2969  11.995  10.036   9.482 -0.0092 -0.1621 -0.0437
  186loPI   C4A 2970  11.803  10.045   9.096  0.0611  0.0796  0.1834
  186loPI   C5A 2971  11.626   9.916   8.671  0.0892  0.0157  0.1238
  186loPI   C6A 2972  11.851  10.068   8.224  0.1095  0.3109 -0.1922
  186loPI   C1B 2973  12.469   8.991  10.123 -0.2559 -0.1220  0.1247
  186loPI   C2B 2974  12.515   8.866   9.636  0.1120  0.1093  0.2884
  186loPI   C3B 2975  12.553   8.799   9.153  0.2361 -0.1907 -0.1185
  186loPI   C4B 2976  12.597   8.721   8.777 -0.4134 -0.0459  0.2265
  187loPI    C1 2977  10.803  12.433  10.903  0.1242 -0.2213  0.2228
  187loPI    C2 2978  10.943  12.593  11.242 -0.1582  0.2638  0.1210
  187loPI    C3 2979  10.552  12.610  11.160 -0.1048  0.0690 -0.1889
  187loPI   PO4 2980  10.958  12.615  10.685  0.1084 -0.0501 -0.2192
  187loPI   GL1 2981  11.123  12.469  10.320  0.0619  0.0299  0.0187
  187loPI   GL2 2982  11.040  12.088  10.444  0.0572 -0.2125 -0.0045
  187loPI   C1A 2983  11.119  12.561   9.920 -0.0031  0.0075 -0.3777
  187loPI   C2A 2984  11.260  12.530   9.525  0.0073 -0.0604 -0.3377
  187loPI   C3A 2985  11.166  12.350   9.105  0.0136 -0.1066  0.0216
  187loPI   C4A 2986  11.235  12.129   8.755 -0.2765 -0.1006 -0.0469
  187loPI   C5A 2987  11.277  11.943   8.285  0.0612 -0.4431  0.0022
  187loPI   C6A 2988  11.581  11.778   8.151  0.0437 -0.4554  0.0714
  187loPI   C1B 2989  10.758  12.270  10.119 -0.2308 -0.0521  0.0891
  187loPI   C2B 2990  10.696  12.361   9.755 -0.0596  0.2239 -0.2241
  187loPI   C3B 2991  10.785  12.547   9.405  0.2568  0.1016 -0.1614
  187loPI   C4B 2992  11.087  12.820   9.192 -0.0516  0.3132  0.4720
  188loPI    C1 2993  16.172   8.950  11.113 -0.0520 -0.0727  0.1439
  188loPI    C2 2994  16.417   8.950  11.430 -0.1417  0.1551  0.2149
  188loPI    C3 2995  16.032   8.850  11.475 -0.1113  0.0044  0.1426
  188loPI   PO4 2996  16.282   8.819  10.930  0.4009 -0.0279 -0.3551
  188loPI   GL1 2997  16.139   8.734  10.565  0.1641 -0.1830  0.0613
  188loPI   GL2 2998  15.929   8.455  10.543  0.1463  0.1506 -0.4972
  188loPI   C1A 2999  16.202   8.850  10.166 -0.1553  0.0831  0.1621
  188loPI   C2A 3000  16.234   9.039   9.774 -0.1165 -0.1080  0.1586
  188loPI   C3A 3001  15.885   9.054   9.481  0.1329  0.2972  0.1040
  188loPI   C4A 3002  15.419   9.061   9.261 -0.1155 -0.1945  0.1118
  188loPI   C5A 3003  15.313   9.047   8.964 -0.0038  0.1489  0.0143
  188loPI   C6A 3004  15.024   9.105   8.542 -0.1193 -0.3234  0.1063
  188loPI   C1B 3005  15.811   8.407  10.096  0.0824  0.0928  0.1018
  188loPI   C2B 3006  16.063   8.576   9.713  0.0500  0.1507  0.4425
  188loPI   C3B 3007  16.106   8.592   9.264  0.2080 -0.0941 -0.0203
  188loPI   C4B 3008  15.778   8.578   8.849 -0.0773 -0.2454 -0.1133
  189loPI    C1 3009   8.968   3.737  10.751  0.1459 -0.0912 -0.1673
  189loPI    C2 3010   8.886   3.808  11.137  0.2069 -0.0317 -0.1653
  189loPI    C3 3011   9.189   3.566  11.038  0.1643 -0.0810 -0.1754
  189loPI   PO4 3012   8.794   3.691  10.632  0.3588 -0.0182  0.1205
  189loPI   GL1 3013   8.766   3.939  10.314 -0.2333  0.3255 -0.2657
  189loPI   GL2 3014   9.075   3.874  10.227 -0.2165  0.1093 -0.1015
  189loPI   C1A 3015   8.724   4.003   9.859  0.0944  0.3290 -0.0590
  189loPI   C2A 3016   9.063   4.145   9.707 -0.1605  0.2542  0.2082
  189loPI   C3A 3017   9.138   4.299   9.327 -0.2728  0.0852  0.0373
  189loPI   C4A 3018   9.209   4.427   8.962  0.1729  0.2848  0.1437
  189loPI   C5A 3019   9.270   4.539   8.499  0.0223 -0.2585  0.1564
  189loPI   C6A 3020   9.155   4.572   8.093  0.1149  0.1587 -0.1844
  189loPI   C1B 3021   9.118   3.704   9.872  0.2567 -0.4106  0.0425
  189loPI   C2B 3022   9.208   3.766   9.396 -0.1038  0.1158  0.0571
  189loPI   C3B 3023   9.247   3.872   8.960  0.0632 -0.0097  0.0236
  189loPI   C4B 3024   9.122   4.096   8.596  0.0572  0.4603 -0.0027
  190loPI    C1 3025   2.848  10.138  10.357 -0.1117  0.1432  0.0605
  190loPI    C2 3026   2.725   9.823  10.570  0.1339  0.0044  0.0002
  190loPI    C3 3027   2.997  10.073  10.722 -0.1596  0.2674  0.1025
  190loPI   PO4 3028   2.519  10.105  10.162  0.0404 -0.1135  0.1448
  190loPI   GL1 3029   2.477   9.825   9.796  0.3555 -0.3043  0.0824
  190loPI   GL2 3030   2.495   9.969   9.513 -0.1275 -0.0601  0.0509
  190loPI   C1A 3031   2.666   9.493   9.433  0.3413  0.2348 -0.0432
  190loPI   C2A 3032   2.809   9.470   8.943 -0.0484  0.1008 -0.1804
  190loPI   C3A 3033   2.779   9.432   8.497  0.1666 -0.3558 -0.0882
  190loPI   C4A 3034   2.895   9.141   8.142 -0.0291  0.1843  0.1031
  190loPI   C5A 3035   2.749   8.706   7.948 -0.1130  0.0643 -0.1823
  190loPI   C6A 3036   2.506   8.682   7.614 -0.0046  0.0842 -0.1761
  190loPI   C1B 3037   2.444   9.782   9.087 -0.4061  0.2046  0.2812
  190loPI   C2B 3038   2.573   9.828   8.639  0.2411 -0.3641  0.1376
  190loPI   C3B 3039   2.780  10.036   8.372  0.1721 -0.1386 -0.0049
  190loPI   C4B 3040   2.941  10.259   8.014 -0.1854 -0.0055 -0.2904
  191loPI    C1 3041  15.082  16.052  10.855  0.3041  0.0781 -0.2476
  191loPI    C2 3042  15.342  16.336  10.963  0.3044 -0.0130 -0.0010
  191loPI    C3 3043  15.099  16.173  11.236  0.0712 -0.0149 -0.2056
  191loPI   PO4 3044  15.121  16.028  10.562  0.0596  0.2269  0.4679
  191loPI   GL1 3045  15.143  16.150  10.163 -0.1624  0.1588 -0.0621
  191loPI   GL2 3046  14.976  16.477  10.168 -0.2477 -0.0593  0.1115
  191loPI   C1A 3047  15.340  15.967   9.799  0.0268  0.1822 -0.5550
  191loPI   C2A 3048  15.270  15.944   9.421 -0.2954  0.1231  0.2429
  191loPI   C3A 3049  15.181  15.954   8.948  0.0392 -0.0259  0.3190
  191loPI   C4A 3050  15.243  15.986   8.513  0.0643  0.0551  0.1043
  191loPI   C5A 3051  15.078  15.972   8.100 -0.1108  0.1961  0.2305
  191loPI   C6A 3052  15.254  15.872   7.643 -0.0021  0.1381 -0.2722
  191loPI   C1B 3053  14.900  16.454   9.723  0.3095  0.5366 -0.0399
  191loPI   C2B 3054  15.160  16.404   9.263  0.0628  0.0539  0.1821
  191loPI   C3B 3055  15.438  16.377   8.974 -0.0063  0.2095  0.1931
  191loPI   C4B 3056  15.577  16.485   8.585  0.2040 -0.2968  0.0570
  192loPI    C1 3057  16.160   7.715  10.790 -0.0873 -0.0338 -0.1816
  192loPI    C2 3058  15.796   7.665  10.947  0.0741 -0.3929  0.0926
  192loPI    C3 3059  16.119   7.538  11.147  0.3759  0.1621 -0.0230
  192loPI   PO4 3060  16.115   7.968  10.556  0.1803  0.1968  0.1326
  192loPI   GL1 3061  16.215   8.186  10.243 -0.0937 -0.2585  0.2075
  192loPI   GL2 3062  16.426   8.396  10.139 -0.1559 -0.0953  0.1067
  192loPI   C1A 3063  16.194   8.065   9.781 -0.0617 -0.2560  0.1532
  192loPI   C2A 3064  16.148   7.682   9.632  0.1531  0.0019 -0.0484
  192loPI   C3A 3065  15.898   7.829   9.327 -0.2823 -0.0926  0.0318
  192loPI   C4A 3066  15.913   8.132   9.086  0.1327  0.0337 -0.0770
  192loPI   C5A 3067  15.902   8.074   8.700 -0.1144 -0.0357 -0.1424
  192loPI   C6A 3068  16.224   7.859   8.407  0.0213  0.2384  0.4321
  192loPI   C1B 3069  16.596   8.408   9.684  0.1260  0.1111  0.0664
  192loPI   C2B 3070  16.585   8.804   9.397 -0.2113 -0.2377  0.3848
  192loPI   C3B 3071  16.320   9.050   9.135  0.0983  0.2287 -0.0818
  192loPI   C4B 3072  16.024   8.970   8.853 -0.4376  0.0903 -0.1934
  193loPI    C1 3073   6.070  12.664  10.533 -0.0429 -0.0362  0.0343
  193loPI    C2 3074   6.399  12.892  10.554 -0.0172 -0.0664 -0.0351
  193loPI    C3 3075   6.087  12.967  10.793  0.1517 -0.2179  0.2373
  193loPI   PO4 3076   6.083  12.671  10.187 -0.4845 -0.3504 -0.0770
  193loPI   GL1 3077   5.853  12.509   9.890  0.0108  0.1123  0.0452
  193loPI   GL2 3078   5.842  12.913   9.829  0.1502 -0.1923  0.3457
  193loPI   C1A 3079   5.463  12.614   9.617  0.0447 -0.0272 -0.2111
  193loPI   C2A 3080   5.173  12.335   9.306  0.0648  0.1596 -0.0851
  193loPI   C3A 3081   4.797  12.298   8.928  0.5111 -0.1989  0.0605
  193loPI   C4A 3082   4.525  12.404   8.611 -0.0974  0.2680 -0.0153
  193loPI   C5A 3083   4.391  12.346   8.293  0.0405  0.1281  0.0073
  193loPI   C6A 3084   4.078  12.198   8.071 -0.3855  0.0786  0.1390
  193loPI   C1B 3085   5.969  12.871   9.443 -0.3291  0.2007 -0.4389
  193loPI   C2B 3086   5.960  12.699   8.922 -0.1440  0.2243  0.0391
  193loPI   C3B 3087   5.974  12.695   8.395 -0.3883  0.0653  0.0207
  193loPI   C4B 3088   6.337  12.660   8.201 -0.1179  0.2254 -0.0282
  194loPI    C1 3089   8.975  13.876  10.427  0.1727  0.1706  0.0624
  194loPI    C2 3090   8.628  14.071  10.388  0.0435 -0.1021 -0.1913
  194loPI    C3 3091   8.960  14.219  10.222  0.0028  0.0413 -0.1463
  194loPI   PO4 3092   8.829  13.558  10.529  0.1409 -0.1490  0.0904
  194loPI   GL1 3093   8.790  13.301  10.250 -0.3063 -0.3386  0.1395
  194loPI   GL2 3094   8.557  13.071  10.130 -0.0107  0.1071  0.1247
  194loPI   C1A 3095   9.030  13.466   9.861  0.0408  0.0859 -0.0677
  194loPI   C2A 3096   9.090  13.664   9.439 -0.1075  0.1695  0.0190
  194loPI   C3A 3097   9.117  13.787   9.128  0.0793  0.1766  0.0789
  194loPI   C4A 3098   9.167  13.889   8.665  0.0421  0.0747  0.0496
  194loPI   C5A 3099   8.930  14.140   8.328  0.1780  0.1118  0.0858
  194loPI   C6A 3100   8.579  14.068   7.927 -0.0852  0.0963 -0.1476
  194loPI   C1B 3101   8.582  13.263   9.813  0.3883 -0.0018  0.1250
  194loPI   C2B 3102   8.549  13.507   9.453 -0.0641 -0.1836  0.1899
  194loPI   C3B 3103   8.557  13.510   9.031  0.0383  0.0673 -0.4226
  194loPI   C4B 3104   8.253  13.448   8.740 -0.0019  0.3649 -0.0657
  195loPI    C1 3105  12.032   4.826  10.556  0.0881 -0.1330 -0.0003
  195loPI    C2 3106  11.963   5.091  10.847  0.0132 -0.0245 -0.1159
  195loPI    C3 3107  12.232   4.800  10.901  0.1638  0.1300 -0.0225
  195loPI   PO4 3108  11.958   5.049  10.292 -0.2297  0.2330  0.2966
  195loPI   GL1 3109  12.259   5.206  10.021  0.1199 -0.1422 -0.2584
  195loPI   GL2 3110  12.519   5.043   9.831  0.1334  0.2897  0.0252
  195loPI   C1A 3111  12.251   5.379   9.640 -0.4841 -0.1154  0.4100
  195loPI   C2A 3112  12.194   5.297   9.233  0.0522 -0.2638  0.0916
  195loPI   C3A 3113  12.090   5.079   8.823 -0.1379  0.3168  0.3024
  195loPI   C4A 3114  12.212   5.085   8.300 -0.0255  0.0891 -0.1987
  195loPI   C5A 3115  12.399   4.697   7.982  0.1139  0.1965  0.1551
  195loPI   C6A 3116  12.376   4.584   7.495 -0.0113 -0.1210  0.0164
  195loPI   C1B 3117  12.678   5.095   9.462 -0.1766 -0.0216 -0.1558
  195loPI   C2B 3118  12.611   5.109   8.967  0.0667 -0.0394 -0.1207
  195loPI   C3B 3119  12.711   5.091   8.580 -0.1140  0.1209  0.1768
  195loPI   C4B 3120  12.753   4.968   8.203  0.1591 -0.1339 -0.1353
  196loPI    C1 3121   4.169  14.939  10.358  0.0497  0.2502  0.0634
  196loPI    C2 3122   4.561  15.004  10.311  0.1224 -0.0445  0.2404
  196loPI    C3 3123   4.433  14.734  10.577 -0.1979 -0.0344  0.1011
  196loPI   PO4 3124   4.052  14.895  10.159  0.0072 -0.1349 -0.1045
  196loPI   GL1 3125   3.977  14.718   9.771 -0.1736 -0.0322 -0.3120
  196loPI   GL2 3126   4.212  14.852   9.636  0.3503  0.0276 -0.1582
  196loPI   C1A 3127   3.670  14.693   9.549  0.2255  0.0561 -0.1058
  196loPI   C2A 3128   3.295  14.505   9.227  0.0562 -0.0032  0.2510
  196loPI   C3A 3129   3.453  14.404   8.908 -0.1837  0.0136 -0.1583
  196loPI   C4A 3130   3.535  14.634   8.432 -0.3737  0.2340  0.1887
  196loPI   C5A 3131   3.438  14.565   8.014 -0.2110  0.1686  0.1187
  196loPI   C6A 3132   3.074  14.589   7.721 -0.4346 -0.2682  0.1486
  196loPI   C1B 3133   4.358  14.726   9.139 -0.0282 -0.1084 -0.0129
  196loPI   C2B 3134   4.418  14.519   8.731 -0.0363 -0.2379  0.0517
  196loPI   C3B 3135   4.327  14.392   8.293 -0.1702  0.0779  0.4758
  196loPI   C4B 3136   3.871  14.329   8.119  0.2119  0.0094 -0.0153
  197loPI    C1 3137   7.435   9.596  10.855 -0.2908  0.1738  0.1870
  197loPI    C2 3138   7.672   9.918  10.845 -0.1623  0.0754  0.0130
  197loPI    C3 3139   7.323   9.921  10.651 -0.0603  0.0332 -0.1735
  197loPI   PO4 3140   7.566   9.377  10.854  0.3632  0.0318 -0.0127
  197loPI   GL1 3141   7.599   9.175  10.450  0.0800 -0.4149 -0.1333
  197loPI   GL2 3142   7.482   9.528  10.378  0.1447  0.1501  0.4299
  197loPI   C1A 3143   8.026   9.228  10.241 -0.1407 -0.0763  0.1571
  197loPI   C2A 3144   8.185   9.210   9.832  0.1470 -0.0553 -0.1087
  197loPI   C3A 3145   8.167   9.273   9.373 -0.1273 -0.0501 -0.0105
  197loPI   C4A 3146   8.278   9.553   9.008 -0.1653 -0.0992  0.2379
  197loPI   C5A 3147   8.267   9.466   8.555 -0.1126  0.1732 -0.0400
  197loPI   C6A 3148   8.652   9.291   8.344 -0.4469  0.2333 -0.1181
  197loPI   C1B 3149   7.400   9.349   9.969  0.1211 -0.2752  0.3677
  197loPI   C2B 3150   7.284   9.261   9.530 -0.0862  0.0001  0.0728
  197loPI   C3B 3151   7.661   9.269   9.166 -0.0458 -0.0311  0.0526
  197loPI   C4B 3152   7.969   9.223   8.830  0.1635  0.2680 -0.0880
  198loPI    C1 3153  11.089   9.552  11.170  0.0276 -0.2225  0.0362
  198loPI    C2 3154  11.469   9.514  11.049  0.0533  0.0628  0.0209
  198loPI    C3 3155  11.378   9.763  11.349 -0.1353  0.0720 -0.0426
  198loPI   PO4 3156  10.977   9.576  10.951 -0.2259  0.1977  0.2450
  198loPI   GL1 3157  11.210   9.516  10.615 -0.1497 -0.6816  0.0972
  198loPI   GL2 3158  11.056   9.300  10.371  0.1969 -0.0250 -0.0652
  198loPI   C1A 3159  11.473   9.548  10.243 -0.0106 -0.2816  0.0924
  198loPI   C2A 3160  11.499   9.466   9.844 -0.0319 -0.0679  0.0493
  198loPI   C3A 3161  11.430   9.653   9.345  0.0010 -0.3309  0.0376
  198loPI   C4A 3162  11.755   9.565   9.040 -0.1080 -0.0590  0.2876
  198loPI   C5A 3163  12.195   9.601   8.866  0.0503  0.0998 -0.0374
  198loPI   C6A 3164  12.561   9.661   8.783 -0.1783 -0.0773  0.1029
  198loPI   C1B 3165  11.044   9.038  10.095 -0.3824  0.1765  0.0431
  198loPI   C2B 3166  11.337   8.990   9.714 -0.2216  0.0900 -0.5367
  198loPI   C3B 3167  11.630   9.103   9.506  0.0516 -0.0432  0.0524
  198loPI   C4B 3168  11.935   9.530   9.537 -0.1821  0.5383  0.0451
  199loPI    C1 3169  12.634   6.406  10.740  0.0718  0.0510 -0.1231
  199loPI    C2 3170  12.704   6.076  10.525  0.0783 -0.0703  0.0626
  199loPI    C3 3171  12.963   6.189  10.808  0.0111  0.0223  0.0875
  199loPI   PO4 3172  12.346   6.433  10.700  0.1461  0.1087 -0.0444
  199loPI   GL1 3173  12.313   6.645  10.193  0.3046  0.0925 -0.1003
  199loPI   GL2 3174  12.599   6.439  10.160  0.2793 -0.2169 -0.1399
  199loPI   C1A 3175  12.539   6.850   9.866 -0.2710 -0.2455  0.0173
  199loPI   C2A 3176  12.740   6.999   9.456 -0.1176  0.2379  0.0367
  199loPI   C3A 3177  13.114   6.908   9.049  0.0754  0.0798 -0.1420
  199loPI   C4A 3178  13.288   6.927   8.689 -0.0876  0.0820  0.0497
  199loPI   C5A 3179  13.200   7.010   8.351  0.1283 -0.0727 -0.0250
  199loPI   C6A 3180  13.204   7.360   8.103  0.1511 -0.0188 -0.0937
  199loPI   C1B 3181  12.708   6.414   9.804 -0.0049  0.2076  0.3134
  199loPI   C2B 3182  12.840   6.454   9.339 -0.0867  0.0760 -0.0050
  199loPI   C3B 3183  13.103   6.427   8.970  0.0040 -0.0498  0.3119
  199loPI   C4B 3184  13.467   6.420   8.667 -0.1983  0.0470 -0.0779
  200loPI    C1 3185  11.506   1.080  10.429  0.1117  0.0908  0.0406
  200loPI    C2 3186  11.211   0.948  10.666  0.2287 -0.0634  0.1025
  200loPI    C3 3187  11.455   0.687  10.486  0.1092  0.0495 -0.2323
  200loPI   PO4 3188  11.372   1.308  10.340  0.2513 -0.1008  0.1649
  200loPI   GL1 3189  11.532   1.596   9.967 -0.0486 -0.1259 -0.2634
  200loPI   GL2 3190  11.515   1.899   9.937  0.3084  0.1659 -0.0400
  200loPI   C1A 3191  11.804   1.500   9.746  0.0999  0.1301 -0.3924
  200loPI   C2A 3192  11.870   1.500   9.329  0.2177 -0.1875 -0.1786
  200loPI   C3A 3193  11.899   1.412   8.914 -0.0838 -0.4223  0.1777
  200loPI   C4A 3194  11.976   1.462   8.491 -0.1829 -0.0872 -0.1478
  200loPI   C5A 3195  12.379   1.464   8.195 -0.2394  0.0973 -0.2265
  200loPI   C6A 3196  12.540   1.222   7.894 -0.2360 -0.0469  0.0864
  200loPI   C1B 3197  11.485   1.829   9.461 -0.0905 -0.2332 -0.1970
  200loPI   C2B 3198  11.428   1.894   9.008  0.1993 -0.1667 -0.2980
  200loPI   C3B 3199  11.382   2.001   8.589  0.1158  0.0469 -0.2852
  200loPI   C4B 3200  11.365   2.132   8.258  0.0266  0.0500  0.1173
  201loPI    C1 3201  16.018   1.571  10.346  0.0648 -0.2172 -0.1712
  201loPI    C2 3202  15.872   1.349  10.645  0.1822 -0.3902 -0.2409
  201loPI    C3 3203  16.253   1.472  10.654 -0.0253  0.2775  0.0672
  201loPI   PO4 3204  15.877   1.521  10.092  0.0456 -0.0506  0.0585
  201loPI   GL1 3205  15.573   1.749   9.805  0.1296 -0.1408  0.1835
  201loPI   GL2 3206  15.575   1.375   9.739 -0.1842  0.2157  0.3148
  201loPI   C1A 3207  15.586   1.940   9.375 -0.2633  0.2090  0.0538
  201loPI   C2A 3208  15.415   1.951   8.964  0.1975 -0.3134  0.3253
  201loPI   C3A 3209  15.336   2.082   8.503  0.0687 -0.2400 -0.4252
  201loPI   C4A 3210  15.344   2.472   8.223 -0.1143  0.1524 -0.0274
  201loPI   C5A 3211  15.599   2.800   8.062  0.1367  0.0730 -0.0256
  201loPI   C6A 3212  15.680   3.054   7.663 -0.0324 -0.1574 -0.0855
  201loPI   C1B 3213  15.865   1.514   9.337 -0.1163  0.0613  0.0126
  201loPI   C2B 3214  15.835   1.568   8.944  0.2064  0.0445  0.3088
  201loPI   C3B 3215  15.673   1.790   8.599  0.2565  0.1277 -0.0996
  201loPI   C4B 3216  15.632   1.864   8.193  0.3120 -0.3592  0.0797
  202loPI    C1 3217   6.826   4.442  11.119 -0.1388  0.1109  0.0011
  202loPI    C2 3218   6.594   4.147  11.257 -0.1188 -0.0298 -0.2600
  202loPI    C3 3219   6.907   4.273  11.473 -0.0245 -0.3183 -0.2228
  202loPI   PO4 3220   6.827   4.311  10.859 -0.2750 -0.0413  0.0258
  202loPI   GL1 3221   6.667   4.175  10.442 -0.4052  0.1595  0.1372
  202loPI   GL2 3222   6.840   3.947  10.263 -0.0405  0.0715 -0.0158
  202loPI   C1A 3223   6.482   4.268  10.062  0.0401  0.0734  0.2947
  202loPI   C2A 3224   6.467   3.934   9.760  0.1600 -0.0326 -0.2951
  202loPI   C3A 3225   6.427   3.732   9.355 -0.0826 -0.2961 -0.2035
  202loPI   C4A 3226   6.479   3.734   8.908 -0.2465 -0.2238  0.0116
  202loPI   C5A 3227   6.291   4.120   8.675 -0.1569 -0.0725 -0.2300
  202loPI   C6A 3228   6.223   4.497   8.858 -0.2204 -0.3388  0.0294
  202loPI   C1B 3229   6.878   3.723   9.836 -0.1590  0.1114  0.2663
  202loPI   C2B 3230   6.988   3.363   9.762  0.2268 -0.1240  0.1469
  202loPI   C3B 3231   7.024   3.020   9.942 -0.2824 -0.2508 -0.2222
  202loPI   C4B 3232   6.843   3.006  10.344  0.0097  0.0054 -0.0408
  203loPI    C1 3233   0.743   8.210  10.492  0.3642  0.3902  0.0945
  203loPI    C2 3234   0.703   8.221  10.890 -0.1183  0.0331  0.0662
  203loPI    C3 3235   0.922   7.933  10.719 -0.1229  0.0333  0.0599
  203loPI   PO4 3236   0.860   8.441  10.359  0.2121 -0.0172 -0.0050
  203loPI   GL1 3237   1.133   8.382  10.030 -0.1075 -0.1769 -0.4435
  203loPI   GL2 3238   1.238   8.136  10.242  0.0189 -0.2215 -0.0352
  203loPI   C1A 3239   0.943   8.304   9.660 -0.1039 -0.0797 -0.1789
  203loPI   C2A 3240   0.956   8.282   9.179 -0.2785  0.1515 -0.3768
  203loPI   C3A 3241   0.986   8.163   8.756 -0.5268 -0.2504  0.1190
  203loPI   C4A 3242   1.164   8.047   8.383  0.1177 -0.0298  0.0554
  203loPI   C5A 3243   1.600   8.131   8.196  0.5655  0.0207 -0.0438
  203loPI   C6A 3244   2.053   8.151   8.157  0.0726  0.2749  0.1747
  203loPI   C1B 3245   1.163   7.860   9.811  0.0287 -0.3857  0.1924
  203loPI   C2B 3246   1.258   7.943   9.377  0.3058 -0.0146 -0.2176
  203loPI   C3B 3247   1.451   8.170   9.136  0.0515  0.0345  0.1959
  203loPI   C4B 3248   1.554   8.151   8.726  0.0761  0.0355 -0.2993
  204loPI    C1 3249  12.855   0.850  10.583 -0.1626  0.1166  0.0313
  204loPI    C2 3250  13.158   0.662  10.766 -0.2411 -0.0618 -0.0194
  204loPI    C3 3251  13.017   1.007  10.913  0.0822  0.0993 -0.0784
  204loPI   PO4 3252  12.978   0.808  10.275  0.0759  0.0097  0.3843
  204loPI   GL1 3253  13.036   1.062   9.885 -0.5154  0.1689  0.1096
  204loPI   GL2 3254  12.674   1.139   9.887 -0.0777  0.1618 -0.1088
  204loPI   C1A 3255  13.348   1.262   9.536 -0.0807  0.1251  0.0736
  204loPI   C2A 3256  13.483   1.214   9.148 -0.2375  0.0262 -0.3101
  204loPI   C3A 3257  13.628   1.397   8.684  0.2674  0.0224  0.0807
  204loPI   C4A 3258  13.523   1.494   8.196  0.0978 -0.2727 -0.0605
  204loPI   C5A 3259  13.505   1.859   7.798  0.0749  0.2980  0.1367
  204loPI   C6A 3260  13.396   2.095   7.461  0.1940  0.0554  0.0912
  204loPI   C1B 3261  12.734   1.007   9.420  0.0370 -0.2228 -0.2428
  204loPI   C2B 3262  12.979   1.165   9.115  0.1828 -0.1228 -0.2047
  204loPI   C3B 3263  13.141   1.116   8.700  0.1901 -0.0297 -0.1413
  204loPI   C4B 3264  13.341   0.864   8.364 -0.0924 -0.0885 -0.1273
  205loPI    C1 3265   2.718  13.883  10.633 -0.0773  0.0677  0.2022
  205loPI    C2 3266   2.761  13.489  10.686  0.1325  0.0493 -0.0815
  205loPI    C3 3267   2.461  13.683  10.865  0.2182 -0.1802  0.3232
  205loPI   PO4 3268   2.820  13.942  10.393  0.0417 -0.0972  0.2103
  205loPI   GL1 3269   3.084  13.777  10.054 -0.0878 -0.0265  0.0534
  205loPI   GL2 3270   3.066  13.630   9.845  0.0342 -0.0448 -0.0514
  205loPI   C1A 3271   2.999  14.121   9.701 -0.0509 -0.0887 -0.2485
  205loPI   C2A 3272   2.955  14.141   9.277  0.1615  0.5222  0.0052
  205loPI   C3A 3273   2.960  14.133   8.774 -0.1011 -0.1611 -0.4965
  205loPI   C4A 3274   3.159  14.190   8.341 -0.0717 -0.1721  0.1592
  205loPI   C5A 3275   3.495  13.976   8.055  0.2650  0.1066 -0.2933
  205loPI   C6A 3276   3.564  14.102   7.694  0.1589 -0.2381  0.1185
  205loPI   C1B 3277   3.160  13.421   9.447 -0.3208  0.1466 -0.2814
  205loPI   C2B 3278   3.254  13.426   9.013  0.0458 -0.0760 -0.0939
  205loPI   C3B 3279   3.350  13.335   8.577  0.1119  0.1335  0.0538
  205loPI   C4B 3280   3.189  13.330   8.102  0.1260 -0.0332 -0.2135
  206loPI    C1 3281  12.095   9.576  11.077  0.0830 -0.1252  0.0877
  206loPI    C2 3282  12.246   9.789  11.381 -0.0459 -0.0651  0.1101
  206loPI    C3 3283  11.857   9.696  11.375 -0.0724  0.0520 -0.1051
  206loPI   PO4 3284  12.326   9.535  10.899 -0.1270  0.1384  0.0791
  206loPI   GL1 3285  12.186   9.673  10.490 -0.0943 -0.1399  0.2389
  206loPI   GL2 3286  11.908   9.820  10.416  0.4824  0.2734  0.1428
  206loPI   C1A 3287  12.114   9.523  10.010 -0.2591  0.1362  0.4040
  206loPI   C2A 3288  12.446   9.389   9.714 -0.3551 -0.0137  0.2172
  206loPI   C3A 3289  12.571   9.290   9.300 -0.0345 -0.0197 -0.1445
  206loPI   C4A 3290  12.812   9.182   8.979 -0.1070 -0.0141  0.0176
  206loPI   C5A 3291  12.846   9.173   8.619 -0.0863  0.2059  0.0942
  206loPI   C6A 3292  12.830   8.937   8.208 -0.0557 -0.0360  0.2905
  206loPI   C1B 3293  11.826   9.918   9.980 -0.2314  0.3270  0.1598
  206loPI   C2B 3294  11.618  10.038   9.795  0.0134  0.0404  0.0753
  206loPI   C3B 3295  11.459  10.146   9.460 -0.2764  0.0624  0.1461
  206loPI   C4B 3296  11.351  10.234   9.048 -0.3665 -0.0976 -0.1097
  207loPI    C1 3297   8.283  13.496  10.631 -0.0698  0.1612  0.0255
  207loPI    C2 3298   8.424  13.846  10.763 -0.0410  0.2321 -0.1901
  207loPI    C3 3299   8.535  13.506  10.942 -0.1314  0.3371  0.0707
  207loPI   PO4 3300   8.328  13.441  10.399 -0.4485  0.2151 -0.0855
  207loPI   GL1 3301   8.453  13.641  10.083 -0.0022  0.2673 -0.0667
  207loPI   GL2 3302   8.145  13.555   9.833 -0.0804 -0.0059 -0.1365
  207loPI   C1A 3303   8.737  13.900   9.896 -0.1054  0.3639 -0.0188
  207loPI   C2A 3304   8.764  14.015   9.392 -0.1764 -0.0830  0.1079
  207loPI   C3A 3305   8.683  13.964   8.803 -0.0880  0.1107  0.0503
  207loPI   C4A 3306   8.415  13.953   8.353 -0.0684 -0.0997 -0.0131
  207loPI   C5A 3307   8.048  13.937   8.077  0.0282 -0.2863  0.2440
  207loPI   C6A 3308   7.713  13.859   7.818  0.1763 -0.3611  0.2231
  207loPI   C1B 3309   8.144  13.038   9.848 -0.1578  0.0883  0.1688
  207loPI   C2B 3310   8.038  12.688  10.000  0.1892  0.1103 -0.0607
  207loPI   C3B 3311   7.771  12.429  10.058  0.1513 -0.0461  0.2269
  207loPI   C4B 3312   7.608  11.996   9.911  0.1109 -0.2380 -0.1291
  208loPI    C1 3313   9.645  14.512  10.820 -0.0009  0.2563 -0.2080
  208loPI    C2 3314   9.777  14.889  10.795  0.2167  0.2042  0.1007
  208loPI    C3 3315   9.590  14.764  11.126  0.1546  0.0371  0.0038
  208loPI   PO4 3316   9.744  14.418  10.658 -0.2583  0.0551  0.0449
  208loPI   GL1 3317   9.727  14.651  10.258 -0.1007 -0.2149  0.0879
  208loPI   GL2 3318   9.963  14.933  10.259  0.0824  0.1213  0.0628
  208loPI   C1A 3319   9.465  14.546   9.915 -0.0116 -0.4226  0.1049
  208loPI   C2A 3320   9.466  14.598   9.464 -0.0243  0.2313  0.0701
  208loPI   C3A 3321   9.790  14.410   9.134  0.0188 -0.2001 -0.0494
  208loPI   C4A 3322   9.960  14.234   8.711  0.0334 -0.0693 -0.1139
  208loPI   C5A 3323   9.908  14.273   8.211  0.2204  0.0934  0.2235
  208loPI   C6A 3324   9.878  14.330   7.790  0.3974 -0.1581  0.0581
  208loPI   C1B 3325  10.031  14.753   9.876 -0.1541  0.2363 -0.0537
  208loPI   C2B 3326   9.992  14.440   9.613 -0.1172  0.3521  0.3471
  208loPI   C3B 3327  10.304  14.489   9.293  0.0792  0.3849 -0.1077
  208loPI   C4B 3328  10.342  14.622   8.907 -0.2548 -0.2937 -0.2247
  209loPI    C1 3329   3.244   6.681  10.908 -0.0888  0.0606 -0.0895
  209loPI    C2 3330   3.157   6.328  11.076 -0.3419  0.1452 -0.0371
  209loPI    C3 3331   3.471   6.541  11.206 -0.2014 -0.0492 -0.0543
  209loPI   PO4 3332   3.133   6.539  10.631  0.1326 -0.0641  0.0181
  209loPI   GL1 3333   3.193   6.576  10.102 -0.0137 -0.1014  0.1089
  209loPI   GL2 3334   3.076   6.890  10.090 -0.0918 -0.1996  0.5216
  209loPI   C1A 3335   3.337   6.760   9.707 -0.0368 -0.0806 -0.0642
  209loPI   C2A 3336   3.191   7.001   9.460 -0.2662  0.0599  0.1205
  209loPI   C3A 3337   2.809   6.947   9.157  0.1038  0.2734 -0.0100
  209loPI   C4A 3338   2.594   6.873   8.872  0.0612  0.0172  0.0293
  209loPI   C5A 3339   2.559   6.967   8.396 -0.0898  0.2394 -0.3820
  209loPI   C6A 3340   2.942   6.869   8.125 -0.0279 -0.0322  0.0250
  209loPI   C1B 3341   2.865   6.691   9.703  0.0375 -0.2143 -0.1658
  209loPI   C2B 3342   2.538   6.466   9.394 -0.1912 -0.2727 -0.0663
  209loPI   C3B 3343   2.200   6.580   9.106 -0.0146 -0.1972 -0.0431
  209loPI   C4B 3344   2.206   6.407   8.703  0.1487 -0.2037  0.0473
  210loPI    C1 3345   7.816   3.794  10.552  0.1421 -0.0786 -0.0406
  210loPI    C2 3346   7.739   3.957  10.909 -0.1236 -0.0738 -0.0975
  210loPI    C3 3347   7.955   3.621  10.886 -0.0566 -0.0431  0.0622
  210loPI   PO4 3348   7.765   4.046  10.406  0.0835 -0.3509 -0.0581
  210loPI   GL1 3349   7.863   4.077  10.076  0.0350  0.2098 -0.0652
  210loPI   GL2 3350   8.148   3.991  10.028 -0.0713 -0.1552  0.0751
  210loPI   C1A 3351   7.821   4.072   9.661  0.0708  0.1514  0.1677
  210loPI   C2A 3352   7.655   4.041   9.262 -0.3552  0.0168 -0.0358
  210loPI   C3A 3353   7.323   4.046   9.106 -0.1196  0.1800  0.1359
  210loPI   C4A 3354   7.064   3.845   8.874 -0.2959  0.0435 -0.0098
  210loPI   C5A 3355   6.815   3.710   8.577 -0.3955 -0.1605  0.2201
  210loPI   C6A 3356   6.501   3.429   8.523 -0.2169 -0.0653  0.1695
  210loPI   C1B 3357   8.271   3.925   9.595  0.0451 -0.4721  0.1946
  210loPI   C2B 3358   8.624   4.105   9.389  0.3619  0.2817 -0.0919
  210loPI   C3B 3359   8.782   4.142   9.007 -0.1828  0.0844  0.2351
  210loPI   C4B 3360   8.482   4.019   8.697 -0.0286 -0.1487  0.1126
  211loPI    C1 3361   4.089  17.012  10.767 -0.0421  0.1588 -0.0325
  211loPI    C2 3362   4.291  17.292  10.566 -0.1325  0.2098 -0.0534
  211loPI    C3 3363   4.187  17.355  10.947  0.0918  0.0884  0.0299
  211loPI   PO4 3364   4.069  16.819  10.566  0.1823 -0.2631  0.0907
  211loPI   GL1 3365   3.884  16.914  10.090  0.2226 -0.4272 -0.1190
  211loPI   GL2 3366   4.125  16.717   9.820  0.4782 -0.0057  0.0825
  211loPI   C1A 3367   3.662  16.572   9.882  0.4219 -0.1691 -0.0638
  211loPI   C2A 3368   3.433  16.805   9.406 -0.2589 -0.1977 -0.1399
  211loPI   C3A 3369   3.256  16.892   9.038 -0.0508  0.0833  0.2925
  211loPI   C4A 3370   3.541  16.813   8.636  0.1602 -0.3875  0.1473
  211loPI   C5A 3371   3.834  16.632   8.530 -0.0404 -0.0234  0.1743
  211loPI   C6A 3372   3.850  16.345   8.153  0.1346  0.0083  0.0854
  211loPI   C1B 3373   3.955  16.659   9.459 -0.1837  0.2489 -0.0068
  211loPI   C2B 3374   3.959  16.765   9.035 -0.2702  0.1270 -0.0411
  211loPI   C3B 3375   4.172  16.979   8.792 -0.1150 -0.1152  0.1464
  211loPI   C4B 3376   4.552  16.882   8.569  0.1442  0.0278 -0.1727
  212loPI    C1 3377   8.957  13.034  10.944  0.1781 -0.1571  0.0540
  212loPI    C2 3378   9.017  13.350  11.181  0.2370 -0.1728  0.0602
  212loPI    C3 3379   8.804  13.039  11.314 -0.3362  0.1138 -0.1509
  212loPI   PO4 3380   9.058  13.143  10.673  0.1364  0.0775 -0.0616
  212loPI   GL1 3381   9.031  12.865  10.303  0.2374  0.0376  0.2512
  212loPI   GL2 3382   8.960  12.552  10.279 -0.2350  0.2640 -0.3963
  212loPI   C1A 3383   9.029  12.950   9.824  0.0248  0.0230  0.0059
  212loPI   C2A 3384   9.362  13.185   9.571 -0.2668  0.0144  0.3427
  212loPI   C3A 3385   9.413  13.386   9.131 -0.0021 -0.0421 -0.0928
  212loPI   C4A 3386   9.465  13.524   8.753 -0.1011  0.0899  0.0026
  212loPI   C5A 3387   9.413  13.446   8.305 -0.0558 -0.2076  0.0403
  212loPI   C6A 3388   9.112  13.273   8.067  0.0887 -0.3539 -0.0572
  212loPI   C1B 3389   8.861  12.445   9.830  0.1111 -0.3070  0.1126
  212loPI   C2B 3390   8.770  12.499   9.241 -0.2320  0.0839  0.3706
  212loPI   C3B 3391   8.642  12.429   8.843  0.0090 -0.0183 -0.1367
  212loPI   C4B 3392   8.682  12.670   8.339  0.0907  0.0764 -0.0130
  213loPI    C1 3393   8.342  16.363  10.513 -0.1803  0.0450  0.3075
  213loPI    C2 3394   8.107  16.569  10.763 -0.0853  0.3150  0.1777
  213loPI    C3 3395   8.502  16.551  10.827 -0.0925  0.1764  0.1854
  213loPI   PO4 3396   8.247  16.438  10.297 -0.0550 -0.0492  0.1457
  213loPI   GL1 3397   8.198  16.846  10.057  0.1107 -0.1282  0.0549
  213loPI   GL2 3398   8.195  17.195  10.012 -0.1253  0.3450  0.1567
  213loPI   C1A 3399   8.223  16.878   9.613  0.0638  0.2204  0.1781
  213loPI   C2A 3400   8.365  16.963   9.261 -0.0100  0.3774  0.0108
  213loPI   C3A 3401   8.511  16.940   8.807 -0.1512  0.0880  0.0876
  213loPI   C4A 3402   8.571  16.817   8.427  0.0082 -0.1288  0.0691
  213loPI   C5A 3403   8.688  17.014   8.145  0.1954  0.4921 -0.0970
  213loPI   C6A 3404   8.673  17.514   8.008 -0.1035 -0.1654  0.1765
  213loPI   C1B 3405   8.226  17.548   9.664 -0.2103 -0.3167 -0.0294
  213loPI   C2B 3406   8.281  17.601   9.296 -0.2101  0.0025 -0.0533
  213loPI   C3B 3407   8.604  17.474   8.947 -0.4026 -0.1485  0.0772
  213loPI   C4B 3408   8.622  17.384   8.594 -0.0369  0.2835  0.0363
  214loPI    C1 3409  15.841   9.350  11.010  0.1996 -0.0150  0.1423
  214loPI    C2 3410  15.667   9.028  10.849 -0.1720  0.1569  0.1900
  214loPI    C3 3411  15.654   9.086  11.244  0.1368  0.0908  0.2123
  214loPI   PO4 3412  15.695   9.573  10.735 -0.0844 -0.0898  0.0253
  214loPI   GL1 3413  15.920   9.676  10.335  0.2255 -0.1242 -0.0512
  214loPI   GL2 3414  16.201   9.781  10.346  0.2528  0.2244 -0.1832
  214loPI   C1A 3415  15.978   9.446  10.027  0.5551 -0.0728 -0.0811
  214loPI   C2A 3416  16.001   9.540   9.681  0.0716 -0.1233  0.2550
  214loPI   C3A 3417  16.239   9.473   9.280  0.3596  0.0074  0.1059
  214loPI   C4A 3418  16.259   9.503   8.796 -0.0983 -0.3077  0.3252
  214loPI   C5A 3419  16.328   9.157   8.537  0.0436  0.1870 -0.0211
  214loPI   C6A 3420  16.052   8.725   8.361 -0.0842 -0.1748 -0.0714
  214loPI   C1B 3421  16.349   9.746   9.946  0.0469  0.0396 -0.2638
  214loPI   C2B 3422  16.161   9.944   9.448  0.4786 -0.0858 -0.1170
  214loPI   C3B 3423  15.941   9.876   9.095 -0.0352 -0.1116  0.1891
  214loPI   C4B 3424  15.889   9.864   8.700 -0.1065  0.0055 -0.0349
  215loPI    C1 3425  13.945  14.687  10.945 -0.0353  0.0264 -0.2059
  215loPI    C2 3426  14.214  14.760  11.232  0.1180  0.2197 -0.3951
  215loPI    C3 3427  13.855  14.938  11.244 -0.0275 -0.0815 -0.1123
  215loPI   PO4 3428  14.210  14.665  10.682  0.0550  0.0381  0.0148
  215loPI   GL1 3429  14.118  14.723  10.302  0.2255 -0.3870  0.3676
  215loPI   GL2 3430  13.945  14.835  10.059 -0.0362 -0.1601 -0.0679
  215loPI   C1A 3431  14.125  14.380   9.968  0.4203  0.1908  0.0582
  215loPI   C2A 3432  14.329  14.294   9.509 -0.0765  0.1608 -0.0232
  215loPI   C3A 3433  14.434  13.971   9.200  0.1240  0.3876  0.0191
  215loPI   C4A 3434  14.628  13.943   8.976  0.0338  0.1539 -0.0450
  215loPI   C5A 3435  14.671  13.757   8.618 -0.2413  0.2786  0.0294
  215loPI   C6A 3436  14.683  13.750   8.232  0.1841  0.2868 -0.0108
  215loPI   C1B 3437  13.797  14.512   9.679 -0.0332 -0.4417 -0.3482
  215loPI   C2B 3438  13.989  14.518   9.269  0.2507 -0.2218 -0.2869
  215loPI   C3B 3439  14.084  14.325   8.960  0.0926  0.1977 -0.1040
  215loPI   C4B 3440  14.397  14.563   8.680 -0.1965  0.2636  0.3019
  216loPI    C1 3441   4.877  16.302  10.205  0.1275  0.1033  0.0126
  216loPI    C2 3442   5.072  16.407  10.538  0.0793  0.0408  0.0609
  216loPI    C3 3443   4.698  16.268  10.561  0.0301  0.1566 -0.0309
  216loPI   PO4 3444   5.062  16.294  10.076 -0.1902  0.2332  0.0592
  216loPI   GL1 3445   5.229  16.063   9.830 -0.2899  0.1871 -0.1020
  216loPI   GL2 3446   4.893  16.043   9.635 -0.1486  0.0882  0.0477
  216loPI   C1A 3447   5.302  16.291   9.375 -0.1565 -0.1628 -0.1211
  216loPI   C2A 3448   5.151  16.474   8.957 -0.3709  0.2405  0.2077
  216loPI   C3A 3449   4.945  16.506   8.589 -0.2148 -0.3956 -0.3474
  216loPI   C4A 3450   4.859  16.480   8.222 -0.0815  0.1648  0.1829
  216loPI   C5A 3451   4.687  16.386   7.871 -0.1155 -0.1450  0.1612
  216loPI   C6A 3452   4.299  16.469   7.711  0.0077 -0.1110 -0.2931
  216loPI   C1B 3453   4.888  16.056   9.257 -0.0530  0.1439 -0.0954
  216loPI   C2B 3454   4.875  15.990   8.831  0.3686  0.0920  0.0761
  216loPI   C3B 3455   4.864  15.954   8.432  0.3617 -0.0469  0.1369
  216loPI   C4B 3456   4.916  15.949   8.017 -0.0002 -0.1496  0.3266
  217loPI    C1 3457   3.340  11.836  10.666  0.0285 -0.1232 -0.0196
  217loPI    C2 3458   3.025  11.756  10.899  0.0381  0.0337  0.0485
  217loPI    C3 3459   3.297  11.472  10.825  0.0121 -0.0295  0.1930
  217loPI   PO4 3460   3.334  12.095  10.598 -0.3231 -0.2003 -0.1111
  217loPI   GL1 3461   3.389  12.203  10.192 -0.0825  0.2413  0.0228
  217loPI   GL2 3462   3.552  12.376  10.002  0.0961 -0.5287  0.0023
  217loPI   C1A 3463   3.114  12.284   9.927  0.2822 -0.3705  0.0994
  217loPI   C2A 3464   3.112  12.362   9.633  0.0876 -0.0072 -0.4284
  217loPI   C3A 3465   3.028  12.480   9.323  0.1253  0.0415 -0.2879
  217loPI   C4A 3466   2.918  12.568   8.878 -0.6100 -0.3594  0.1061
  217loPI   C5A 3467   2.785  12.575   8.448 -0.1398 -0.1748  0.1075
  217loPI   C6A 3468   2.741  12.489   8.042 -0.2253 -0.0201 -0.1463
  217loPI   C1B 3469   3.629  12.576   9.548  0.1404 -0.2173 -0.0156
  217loPI   C2B 3470   3.472  12.474   9.104 -0.3533 -0.3422  0.0759
  217loPI   C3B 3471   3.478  12.468   8.681  0.0936  0.1490  0.2109
  217loPI   C4B 3472   3.637  12.574   8.223  0.1073 -0.1066  0.2937
  218loPI    C1 3473  17.728  12.314  10.703 -0.3430 -0.2276  0.0733
  218loPI    C2 3474  17.738  11.917  10.656 -0.1086 -0.2130 -0.0121
  218loPI    C3 3475  17.899  12.084  10.982 -0.1615 -0.1843 -0.0006
  218loPI   PO4 3476  17.765  12.321  10.313 -0.0595  0.1148 -0.2128
  218loPI   GL1 3477  17.732  12.176   9.842  0.3154 -0.0064 -0.2310
  218loPI   GL2 3478  17.392  12.005   9.781 -0.1412  0.1825  0.1029
  218loPI   C1A 3479  17.708  12.061   9.409 -0.0504  0.2082 -0.2759
  218loPI   C2A 3480  17.696  12.074   8.984 -0.0281 -0.0606 -0.2716
  218loPI   C3A 3481  17.644  12.278   8.478  0.1494 -0.1122 -0.2601
  218loPI   C4A 3482  17.269  12.145   8.160 -0.1669  0.1094  0.1205
  218loPI   C5A 3483  16.895  11.998   8.088  0.0303 -0.1224 -0.1476
  218loPI   C6A 3484  16.712  11.533   8.197 -0.4009 -0.1520  0.1628
  218loPI   C1B 3485  17.210  12.020   9.464  0.0143  0.2111  0.1061
  218loPI   C2B 3486  17.225  11.997   9.078 -0.0103  0.1463  0.2125
  218loPI   C3B 3487  17.150  11.932   8.649  0.0561 -0.3002 -0.4378
  218loPI   C4B 3488  17.542  11.776   8.447  0.1646  0.0696  0.0703
  219loPI    C1 3489  13.582  10.542  10.811  0.2483 -0.2636 -0.0473
  219loPI    C2 3490  13.269  10.508  11.058  0.0458  0.0093 -0.2599
  219loPI    C3 3491  13.633  10.392  11.179 -0.0880 -0.0644  0.0848
  219loPI   PO4 3492  13.472  10.538  10.576  0.0045 -0.0367  0.2904
  219loPI   GL1 3493  13.438  10.669  10.230 -0.0318  0.1012  0.0810
  219loPI   GL2 3494  13.283  10.326  10.176 -0.2657  0.0674 -0.1035
  219loPI   C1A 3495  13.088  10.758   9.954  0.0044 -0.3546  0.1779
  219loPI   C2A 3496  13.029  10.696   9.518  0.0283 -0.2098 -0.0095
  219loPI   C3A 3497  12.751  10.618   9.100 -0.0418  0.1893 -0.0249
  219loPI   C4A 3498  12.470  10.651   8.723  0.1350 -0.0757  0.0949
  219loPI   C5A 3499  12.037  10.511   8.590 -0.5572 -0.1615 -0.0754
  219loPI   C6A 3500  11.653  10.421   8.744  0.2661 -0.3440  0.3386
  219loPI   C1B 3501  13.172  10.332   9.773 -0.1476  0.0118 -0.0038
  219loPI   C2B 3502  13.128  10.212   9.316 -0.1985 -0.1428 -0.0481
  219loPI   C3B 3503  12.972  10.105   8.878 -0.0186  0.1922 -0.0240
  219loPI   C4B 3504  12.784  10.265   8.522  0.1349 -0.0369 -0.0183
  220loPI    C1 3505  17.741   9.606  10.404 -0.0752 -0.0217 -0.1615
  220loPI    C2 3506  17.527   9.395  10.668 -0.1529 -0.0420 -0.2401
  220loPI    C3 3507  17.396   9.752  10.545  0.1253  0.1922  0.1201
  220loPI   PO4 3508  18.029   9.674  10.523  0.2723  0.3978 -0.0077
  220loPI   GL1 3509  18.323   9.436  10.242  0.1184  0.0358 -0.1055
  220loPI   GL2 3510  18.497   9.741  10.038 -0.0602 -0.1830  0.0772
  220loPI   C1A 3511  18.089   9.558   9.801  0.0456  0.0532 -0.0662
  220loPI   C2A 3512  17.892   9.621   9.489 -0.3005 -0.2125 -0.3903
  220loPI   C3A 3513  17.832   9.728   9.022 -0.0870 -0.3453  0.0066
  220loPI   C4A 3514  17.676   9.552   8.612  0.2663  0.0024 -0.2482
  220loPI   C5A 3515  17.674   9.373   8.193  0.0380  0.2082  0.3343
  220loPI   C6A 3516  17.521   9.545   7.812 -0.1960 -0.3057  0.0516
  220loPI   C1B 3517  18.420   9.890   9.664 -0.0463  0.1774 -0.1807
  220loPI   C2B 3518  18.365   9.847   9.256  0.0790 -0.0553 -0.3754
  220loPI   C3B 3519  18.329   9.895   8.770  0.0543  0.1235  0.0148
  220loPI   C4B 3520  18.366   9.890   8.344 -0.2878  0.5535  0.0074
  221loPI    C1 3521   7.199   5.194  11.040  0.1383  0.0869 -0.1605
  221loPI    C2 3522   6.812   5.272  10.976  0.1165  0.2242  0.1215
  221loPI    C3 3523   6.919   4.942  11.174  0.1457  0.1775  0.0287
  221loPI   PO4 3524   7.269   5.272  10.691  0.1726  0.4513 -0.3223
  221loPI   GL1 3525   7.076   5.040  10.371  0.1817  0.1373  0.0790
  221loPI   GL2 3526   6.713   5.096  10.405  0.0537 -0.0954 -0.3964
  221loPI   C1A 3527   6.937   5.215   9.997  0.0491  0.0365  0.0531
  221loPI   C2A 3528   6.778   5.167   9.549 -0.3127 -0.0445  0.3292
  221loPI   C3A 3529   6.804   5.107   9.168 -0.2913  0.1033  0.0545
  221loPI   C4A 3530   6.680   5.073   8.739  0.2814 -0.0133 -0.0984
  221loPI   C5A 3531   6.444   4.901   8.321  0.1308 -0.2249  0.2166
  221loPI   C6A 3532   6.282   5.075   7.985  0.1461  0.2884  0.2828
  221loPI   C1B 3533   6.361   5.063  10.122 -0.1467  0.0826 -0.1625
  221loPI   C2B 3534   6.308   4.962   9.686  0.0146  0.1277 -0.0011
  221loPI   C3B 3535   6.246   4.951   9.317 -0.0050 -0.1138  0.3212
  221loPI   C4B 3536   6.198   5.055   8.829  0.2321  0.0289 -0.2699
  222loPI    C1 3537  10.616  11.420  10.728  0.0918  0.1911 -0.0754
  222loPI    C2 3538  10.918  11.185  10.844 -0.0798 -0.1816 -0.3623
  222loPI    C3 3539  10.561  11.155  11.023 -0.0104  0.1053 -0.1702
  222loPI   PO4 3540  10.782  11.663  10.732  0.0452  0.2505  0.0010
  222loPI   GL1 3541  11.109  11.581  10.424  0.1800  0.0330 -0.0775
  222loPI   GL2 3542  10.863  11.408  10.279  0.1189 -0.1793  0.0046
  222loPI   C1A 3543  11.058  11.868   9.968 -0.0567 -0.0984  0.1075
  222loPI   C2A 3544  11.120  12.054   9.530  0.0884 -0.1995 -0.0805
  222loPI   C3A 3545  11.149  11.777   9.185 -0.1760 -0.0698 -0.0832
  222loPI   C4A 3546  11.365  11.656   8.748  0.1287  0.1271  0.3860
  222loPI   C5A 3547  11.421  11.392   8.410  0.2801  0.0709  0.2251
  222loPI   C6A 3548  11.652  11.308   8.092 -0.0862 -0.2939 -0.0804
  222loPI   C1B 3549  10.535  11.709   9.973 -0.2905  0.1541  0.1241
  222loPI   C2B 3550  10.549  11.907   9.605  0.0556 -0.0102  0.0676
  222loPI   C3B 3551  10.681  12.014   9.310 -0.2973 -0.2416  0.0541
  222loPI   C4B 3552  10.718  12.091   9.039  0.0098 -0.2673 -0.1207
  223loPI    C1 3553   0.553   0.514  10.596 -0.2075 -0.0559 -0.0577
  223loPI    C2 3554   0.355   0.276  10.850 -0.0126 -0.2164 -0.0534
  223loPI    C3 3555   0.463   0.644  10.963 -0.2787 -0.1384 -0.0454
  223loPI   PO4 3556   0.432   0.652  10.373  0.0486  0.0610 -0.1673
  223loPI   GL1 3557   0.329   0.642   9.933  0.0356 -0.0005 -0.0454
  223loPI   GL2 3558   0.279   0.354   9.902 -0.1480  0.2298 -0.0418
  223loPI   C1A 3559   0.323   0.861   9.541 -0.2005  0.0743 -0.4321
  223loPI   C2A 3560   0.417   1.150   9.164 -0.0993  0.0091 -0.1896
  223loPI   C3A 3561   0.268   1.283   8.747 -0.2362 -0.1119 -0.1203
  223loPI   C4A 3562   0.463   1.223   8.307  0.2847 -0.0493 -0.0139
  223loPI   C5A 3563   0.556   1.391   7.899 -0.0434  0.2521 -0.1387
  223loPI   C6A 3564   0.683   1.355   7.472 -0.4514  0.0409 -0.0987
  223loPI   C1B 3565   0.089   0.388   9.478  0.1896 -0.1664  0.1036
  223loPI   C2B 3566   0.202   0.632   9.094  0.1011 -0.3803  0.0163
  223loPI   C3B 3567   0.483   0.764   8.818  0.2163 -0.3555 -0.4004
  223loPI   C4B 3568   0.861   0.688   8.717 -0.0586 -0.1185  0.1685
  224loPI    C1 3569   5.624  17.730  10.489 -0.0870 -0.3903  0.0043
  224loPI    C2 3570   5.357  17.760  10.785 -0.0745 -0.1845 -0.0039
  224loPI    C3 3571   5.747  17.735  10.870 -0.0305  0.3602 -0.0089
  224loPI   PO4 3572   5.604  17.581  10.321  0.0451  0.0919 -0.4506
  224loPI   GL1 3573   5.547  17.729   9.934 -0.2565  0.4535  0.2253
  224loPI   GL2 3574   5.473  17.508   9.767 -0.0281  0.0273 -0.1896
  224loPI   C1A 3575   5.840  17.985   9.690  0.1774 -0.1358 -0.2760
  224loPI   C2A 3576   5.905  18.030   9.255  0.0547  0.0529 -0.1015
  224loPI   C3A 3577   5.766  18.238   8.888  0.1760  0.0322 -0.1853
  224loPI   C4A 3578   5.434  18.180   8.522  0.0232  0.1940 -0.0281
  224loPI   C5A 3579   5.086  18.054   8.261  0.3156  0.3392  0.1943
  224loPI   C6A 3580   4.851  18.254   8.142  0.1590 -0.0077 -0.1672
  224loPI   C1B 3581   5.744  17.570   9.394 -0.3277  0.0835 -0.2802
  224loPI   C2B 3582   5.665  17.368   9.059  0.0294  0.2606 -0.1286
  224loPI   C3B 3583   5.399  17.249   8.660 -0.1737  0.2733 -0.2700
  224loPI   C4B 3584   5.543  16.983   8.253  0.2572  0.2096  0.2136
  225loPI    C1 3585   1.444  15.724  10.501 -0.0184 -0.0690 -0.1526
  225loPI    C2 3586   1.245  15.873  10.814  0.0056  0.0826 -0.2089
  225loPI    C3 3587   1.625  15.756  10.856 -0.0248  0.0019 -0.1555
  225loPI   PO4 3588   1.322  15.764  10.295 -0.0334  0.1789  0.2643
  225loPI   GL1 3589   1.376  15.852   9.938 -0.2506  0.2305  0.3600
  225loPI   GL2 3590   1.574  15.557   9.834 -0.1962  0.0394  0.1341
  225loPI   C1A 3591   1.384  15.901   9.481 -0.2476 -0.0741  0.0126
  225loPI   C2A 3592   1.275  15.841   9.090 -0.6764  0.2375  0.0955
  225loPI   C3A 3593   1.262  15.810   8.692  0.2389 -0.0919  0.2227
  225loPI   C4A 3594   1.374  16.005   8.316  0.1261 -0.2531 -0.0283
  225loPI   C5A 3595   1.254  15.918   7.920  0.2029  0.0240 -0.1194
  225loPI   C6A 3596   1.130  15.722   7.561 -0.2697  0.1421 -0.1565
  225loPI   C1B 3597   1.491  15.330   9.319  0.0220 -0.2094  0.4730
  225loPI   C2B 3598   1.594  15.226   8.948 -0.0455 -0.0698 -0.1213
  225loPI   C3B 3599   1.447  15.382   8.575  0.1669 -0.3990  0.1739
  225loPI   C4B 3600   1.284  15.547   8.281 -0.2520 -0.0557 -0.2309
  226loPI    C1 3601   7.876   1.426  10.535 -0.1093 -0.0236 -0.0877
  226loPI    C2 3602   7.875   1.380  10.933  0.0470  0.0729 -0.0753
  226loPI    C3 3603   7.887   1.746  10.774 -0.0281  0.0350 -0.1699
  226loPI   PO4 3604   7.699   1.216  10.444  0.0383  0.1302 -0.0759
  226loPI   GL1 3605   7.706   1.330  10.041 -0.0030  0.0351 -0.0572
  226loPI   GL2 3606   7.663   0.984   9.930 -0.0428  0.0268  0.0721
  226loPI   C1A 3607   7.421   1.558   9.860  0.1155  0.0383  0.0624
  226loPI   C2A 3608   7.328   1.519   9.412 -0.0867 -0.1598  0.0891
  226loPI   C3A 3609   7.368   1.692   8.980 -0.0833  0.1332 -0.0081
  226loPI   C4A 3610   7.278   1.846   8.519  0.0336 -0.1214 -0.0189
  226loPI   C5A 3611   6.835   1.752   8.561  0.0588  0.3945 -0.0628
  226loPI   C6A 3612   6.601   1.491   8.238 -0.1401  0.0284  0.1984
  226loPI   C1B 3613   7.576   0.940   9.466  0.0546  0.0455 -0.0621
  226loPI   C2B 3614   7.568   0.843   9.028  0.1243  0.1041  0.0829
  226loPI   C3B 3615   7.692   0.891   8.576 -0.1592 -0.2181 -0.0760
  226loPI   C4B 3616   7.945   0.916   8.218  0.2275 -0.0028 -0.0472
  227loPI    C1 3617  13.551   4.078   9.835  0.3530 -0.1371 -0.2689
  227loPI    C2 3618  13.740   3.810  10.064  0.0759 -0.0745  0.0402
  227loPI    C3 3619  13.405   3.708   9.871  0.0665 -0.0006  0.0170
  227loPI   PO4 3620  13.463   4.231   9.936  0.0042 -0.1208 -0.1861
  227loPI   GL1 3621  13.010   4.448   9.873 -0.1718  0.3713  0.0289
  227loPI   GL2 3622  13.004   4.737   9.811  0.1002 -0.2265 -0.5069
  227loPI   C1A 3623  13.179   4.476   9.402 -0.1386 -0.0209 -0.0712
  227loPI   C2A 3624  13.397   4.745   9.118  0.2992 -0.1908 -0.2738
  227loPI   C3A 3625  13.265   4.967   8.659 -0.0116 -0.3514 -0.2400
  227loPI   C4A 3626  13.185   5.171   8.318  0.3607  0.1918  0.0322
  227loPI   C5A 3627  12.884   5.420   8.168 -0.0358  0.2812 -0.1660
  227loPI   C6A 3628  12.709   5.733   8.460  0.0664 -0.3178  0.0274
  227loPI   C1B 3629  13.152   5.079   9.456 -0.2286  0.0289  0.1244
  227loPI   C2B 3630  13.137   5.232   9.119 -0.1623 -0.1610  0.0333
  227loPI   C3B 3631  13.015   5.460   8.827 -0.0588 -0.1405  0.0859
  227loPI   C4B 3632  13.191   5.964   8.701  0.0142  0.0096  0.2547
  228loPI    C1 3633  17.773   7.490  10.789  0.0174  0.0312  0.0184
  228loPI    C2 3634  17.897   7.350  11.142 -0.0304 -0.1709 -0.0437
  228loPI    C3 3635  17.640   7.656  11.128 -0.1695 -0.2793  0.1008
  228loPI   PO4 3636  17.727   7.308  10.680 -0.2247 -0.1340 -0.1605
  228loPI   GL1 3637  17.721   7.084  10.357 -0.3448  0.0470  0.0698
  228loPI   GL2 3638  17.486   6.912  10.261  0.0433  0.0458 -0.0537
  228loPI   C1A 3639  17.865   7.183   9.978 -0.3217 -0.0761  0.1926
  228loPI   C2A 3640  17.978   7.230   9.680 -0.0784 -0.1855 -0.0063
  228loPI   C3A 3641  18.114   7.398   9.337  0.1513  0.0817  0.2598
  228loPI   C4A 3642  18.097   7.471   8.900 -0.0169 -0.1844  0.0803
  228loPI   C5A 3643  17.783   7.340   8.607  0.4595  0.1438  0.2189
  228loPI   C6A 3644  17.663   7.214   8.252 -0.1070 -0.3809 -0.5039
  228loPI   C1B 3645  17.549   6.830   9.909  0.2522 -0.0448 -0.2212
  228loPI   C2B 3646  17.734   6.728   9.603 -0.0788  0.3548  0.1654
  228loPI   C3B 3647  17.900   6.931   9.258  0.1118  0.1233  0.2568
  228loPI   C4B 3648  17.808   6.996   8.911 -0.0018  0.0809 -0.1491
  229loPI    C1 3649  16.665   6.945  10.854  0.2265  0.0312 -0.1798
  229loPI    C2 3650  16.533   7.274  11.039  0.0231 -0.0947 -0.0970
  229loPI    C3 3651  16.926   7.206  11.007  0.0639  0.0812  0.0171
  229loPI   PO4 3652  16.536   6.846  10.617 -0.0602  0.1430  0.1067
  229loPI   GL1 3653  16.174   6.885  10.360 -0.0806 -0.0683  0.2187
  229loPI   GL2 3654  15.822   6.947  10.282  0.1457 -0.2098 -0.1447
  229loPI   C1A 3655  16.204   7.109  10.012  0.3315 -0.1361  0.1514
  229loPI   C2A 3656  16.152   7.132   9.561 -0.4660 -0.2485  0.1682
  229loPI   C3A 3657  16.211   7.366   9.213  0.2418  0.1176  0.1777
  229loPI   C4A 3658  16.059   7.615   8.848  0.5472  0.0395 -0.1776
  229loPI   C5A 3659  15.598   7.695   8.598 -0.2537  0.0907  0.0818
  229loPI   C6A 3660  15.235   7.894   8.376  0.0422 -0.2214  0.1966
  229loPI   C1B 3661  15.990   6.687   9.856 -0.3154  0.1290  0.1562
  229loPI   C2B 3662  16.334   6.714   9.663 -0.1851  0.0074  0.1633
  229loPI   C3B 3663  16.638   6.967   9.459 -0.0084 -0.0650  0.0885
  229loPI   C4B 3664  16.861   6.774   9.081 -0.1847  0.2411 -0.0413
  230loPI    C1 3665   0.483   2.644  10.632 -0.0194 -0.1204  0.0164
  230loPI    C2 3666   0.398   3.022  10.535  0.0069 -0.0514  0.2560
  230loPI    C3 3667   0.313   2.886  10.901  0.1233 -0.2377  0.2149
  230loPI   PO4 3668   0.402   2.476  10.352  0.0408  0.1529 -0.2646
  230loPI   GL1 3669   0.255   2.485  10.021 -0.0975  0.0810  0.0516
  230loPI   GL2 3670  -0.127   2.593   9.962 -0.1549  0.0210 -0.3871
  230loPI   C1A 3671   0.484   2.372   9.676  0.3257  0.1276 -0.1822
  230loPI   C2A 3672   0.801   2.385   9.407 -0.0210  0.3272  0.1281
  230loPI   C3A 3673   0.964   2.511   9.053 -0.2196  0.0003 -0.2102
  230loPI   C4A 3674   0.992   2.653   8.619  0.2078 -0.2111  0.1874
  230loPI   C5A 3675   1.076   2.918   8.315 -0.3617 -0.0485  0.1299
  230loPI   C6A 3676   1.233   3.173   8.017 -0.0457  0.2538  0.0349
  230loPI   C1B 3677  -0.175   2.765   9.628  0.4489  0.0701 -0.0834
  230loPI   C2B 3678   0.026   2.739   9.270  0.0326 -0.1682 -0.2805
  230loPI   C3B 3679   0.021   2.898   8.882  0.1969 -0.3191 -0.0444
  230loPI   C4B 3680  -0.074   2.859   8.465 -0.1209  0.0902 -0.0387
  231loPI    C1 3681  14.594   1.264  10.639 -0.2396 -0.0254 -0.3128
  231loPI    C2 3682  14.632   0.933  10.862 -0.0828  0.1425 -0.0854
  231loPI    C3 3683  14.718   1.291  11.018  0.0998  0.2581 -0.4383
  231loPI   PO4 3684  14.531   1.184  10.397  0.0449 -0.4294 -0.0838
  231loPI   GL1 3685  14.262   1.317  10.035 -0.2017  0.1487  0.0377
  231loPI   GL2 3686  13.920   1.341   9.793 -0.0968 -0.0867  0.1012
  231loPI   C1A 3687  14.369   1.473   9.590 -0.1301 -0.0420 -0.1928
  231loPI   C2A 3688  14.378   1.475   9.187  0.1741 -0.0458  0.0355
  231loPI   C3A 3689  14.389   1.693   8.925  0.1072 -0.1775  0.3608
  231loPI   C4A 3690  14.387   1.687   8.520  0.2540  0.0503  0.0137
  231loPI   C5A 3691  14.433   1.819   8.061 -0.1342  0.1093 -0.1281
  231loPI   C6A 3692  14.525   1.602   7.716  0.1392  0.0073 -0.1619
  231loPI   C1B 3693  13.862   1.347   9.458  0.1929  0.2279 -0.2693
  231loPI   C2B 3694  14.003   1.214   9.115  0.1962  0.0887  0.3433
  231loPI   C3B 3695  14.092   1.319   8.765  0.0904 -0.2910  0.0932
  231loPI   C4B 3696  14.041   1.362   8.351 -0.5103 -0.3039 -0.3299
  232loPI    C1 3697  13.257   3.358  10.232 -0.1951 -0.0344 -0.0628
  232loPI    C2 3698  13.281   3.737  10.356 -0.1542 -0.0602  0.0091
  232loPI    C3 3699  13.584   3.485  10.424 -0.2757 -0.1658  0.1651
  232loPI   PO4 3700  13.098   3.391  10.019  0.0622 -0.1439 -0.1590
  232loPI   GL1 3701  12.929   3.534   9.580 -0.1920 -0.1932 -0.0839
  232loPI   GL2 3702  12.657   3.748   9.641 -0.0217 -0.0143 -0.0181
  232loPI   C1A 3703  13.071   3.697   9.182  0.2453  0.2585  0.1154
  232loPI   C2A 3704  12.808   3.759   8.867  0.2572  0.0297 -0.1488
  232loPI   C3A 3705  12.693   4.022   8.437  0.1877 -0.1691 -0.0882
  232loPI   C4A 3706  12.278   3.939   8.167 -0.1316 -0.1078 -0.1927
  232loPI   C5A 3707  12.077   4.295   7.920  0.1011 -0.0960  0.0625
  232loPI   C6A 3708  11.902   4.434   7.676  0.0725  0.0974  0.4248
  232loPI   C1B 3709  12.374   3.774   9.246  0.2183  0.3018 -0.2617
  232loPI   C2B 3710  12.302   3.713   8.775 -0.1715  0.2425  0.2672
  232loPI   C3B 3711  12.489   3.494   8.410 -0.2621 -0.2312  0.3083
  232loPI   C4B 3712  12.267   3.277   8.070 -0.2098 -0.0487 -0.2231
  233loPI    C1 3713   1.219  13.939  10.498 -0.0798  0.2955 -0.0483
  233loPI    C2 3714   1.297  14.064  10.870 -0.2174  0.0933  0.0506
  233loPI    C3 3715   0.934  14.119  10.712 -0.2312 -0.0359  0.0359
  233loPI   PO4 3716   1.391  14.069  10.324  0.0920  0.5530 -0.1281
  233loPI   GL1 3717   1.411  14.123   9.882 -0.0976  0.3504 -0.0966
  233loPI   GL2 3718   1.290  14.424   9.690 -0.0188  0.0353  0.1442
  233loPI   C1A 3719   1.452  13.892   9.452  0.0640 -0.2309  0.1249
  233loPI   C2A 3720   1.629  13.788   9.144  0.0267 -0.2814 -0.2638
  233loPI   C3A 3721   1.545  13.833   8.722  0.1046 -0.0505  0.3341
  233loPI   C4A 3722   1.683  13.938   8.294  0.0238  0.0363 -0.4579
  233loPI   C5A 3723   1.998  14.267   8.046 -0.1093 -0.2771 -0.3170
  233loPI   C6A 3724   2.041  14.491   7.632 -0.0025 -0.1166  0.3439
  233loPI   C1B 3725   1.333  14.403   9.347  0.1713 -0.0105 -0.3282
  233loPI   C2B 3726   1.490  14.266   9.024 -0.0075  0.2011  0.1902
  233loPI   C3B 3727   1.417  14.351   8.762  0.2442  0.1677  0.1990
  233loPI   C4B 3728   1.252  14.157   8.409  0.0092  0.1837  0.3098
  234loPI    C1 3729   1.519  12.934  10.409 -0.2105  0.0830 -0.2373
  234loPI    C2 3730   1.179  12.751  10.308  0.0071 -0.3631 -0.1862
  234loPI    C3 3731   1.301  12.750  10.689 -0.1750  0.2230 -0.1156
  234loPI   PO4 3732   1.514  13.138  10.158  0.0843 -0.2685  0.0104
  234loPI   GL1 3733   1.660  13.066   9.646  0.0160  0.0807  0.1924
  234loPI   GL2 3734   1.514  13.434   9.760  0.0037  0.1345 -0.0639
  234loPI   C1A 3735   1.756  13.298   9.360 -0.1695  0.0424  0.1719
  234loPI   C2A 3736   1.838  13.390   8.871  0.0543  0.0231 -0.0290
  234loPI   C3A 3737   1.904  13.529   8.432  0.0503 -0.0157  0.2986
  234loPI   C4A 3738   2.055  13.668   8.037 -0.0228 -0.0417  0.1952
  234loPI   C5A 3739   2.418  13.920   7.865  0.0385  0.5139  0.0711
  234loPI   C6A 3740   2.690  13.782   7.561  0.1797  0.4549  0.1372
  234loPI   C1B 3741   1.853  13.763   9.628  0.0797 -0.1248  0.2607
  234loPI   C2B 3742   2.170  13.974   9.524  0.2704  0.1296 -0.1490
  234loPI   C3B 3743   2.466  14.073   9.277 -0.5059  0.1620 -0.0270
  234loPI   C4B 3744   2.447  14.162   8.867 -0.0714 -0.0495  0.0033
  235loPI    C1 3745   7.128   0.613  10.384 -0.0276 -0.2811  0.1129
  235loPI    C2 3746   7.019   0.813  10.712 -0.1690  0.0821 -0.1496
  235loPI    C3 3747   7.031   0.414  10.717  0.0483  0.0866  0.3615
  235loPI   PO4 3748   6.949   0.714  10.181  0.0562  0.0116  0.3656
  235loPI   GL1 3749   6.900   0.712   9.704 -0.2241 -0.0707  0.1507
  235loPI   GL2 3750   7.192   1.027   9.793  0.1669 -0.0067  0.4382
  235loPI   C1A 3751   7.217   0.507   9.386 -0.1364 -0.1768 -0.0451
  235loPI   C2A 3752   7.173   0.366   8.874 -0.0438 -0.1562 -0.1244
  235loPI   C3A 3753   7.440   0.432   8.538 -0.2431  0.1317 -0.3737
  235loPI   C4A 3754   7.480   0.299   8.113 -0.0549 -0.0009  0.4836
  235loPI   C5A 3755   7.581  -0.089   7.946 -0.2060 -0.0462 -0.2239
  235loPI   C6A 3756   7.935  -0.179   7.590 -0.2399  0.0039 -0.1206
  235loPI   C1B 3757   7.116   1.033   9.319  0.1098  0.2229  0.0855
  235loPI   C2B 3758   6.956   0.765   9.023  0.1142  0.2419  0.0127
  235loPI   C3B 3759   7.206   0.826   8.573  0.0013  0.0986  0.1061
  235loPI   C4B 3760   7.375   0.862   8.200 -0.2268  0.0971 -0.0755
  236loPI    C1 3761   5.097   5.653  10.949  0.0183 -0.1250  0.0160
  236loPI    C2 3762   5.195   6.028  10.851 -0.2810 -0.0214  0.1038
  236loPI    C3 3763   5.322   5.872  11.196  0.1514 -0.1314 -0.0984
  236loPI   PO4 3764   5.177   5.457  10.711 -0.0397  0.3387  0.1566
  236loPI   GL1 3765   5.067   5.342  10.285 -0.0142 -0.0960  0.1183
  236loPI   GL2 3766   5.415   5.313  10.297 -0.1202  0.1803  0.1370
  236loPI   C1A 3767   4.970   5.575   9.962  0.1085  0.2668 -0.2350
  236loPI   C2A 3768   4.767   5.557   9.571  0.1835  0.0460 -0.3470
  236loPI   C3A 3769   4.719   5.656   9.239  0.0017  0.3865  0.0817
  236loPI   C4A 3770   4.565   5.627   8.883 -0.4404  0.0365 -0.3593
  236loPI   C5A 3771   4.473   5.509   8.496  0.0174 -0.2915  0.0895
  236loPI   C6A 3772   4.488   5.776   8.049  0.0195  0.0915 -0.0925
  236loPI   C1B 3773   5.452   5.318   9.872  0.1740 -0.0922 -0.0350
  236loPI   C2B 3774   5.292   5.423   9.483 -0.0304 -0.1088 -0.1469
  236loPI   C3B 3775   5.424   5.427   9.115 -0.0992 -0.0946  0.1182
  236loPI   C4B 3776   5.645   5.739   8.995 -0.1513  0.0795 -0.2833
  237loPI    C1 3777  11.991   2.612  10.357 -0.1130  0.0620 -0.0318
  237loPI    C2 3778  12.038   2.668  10.751  0.2733 -0.0163 -0.0627
  237loPI    C3 3779  11.846   2.344  10.616  0.1291  0.0169  0.0601
  237loPI   PO4 3780  12.198   2.596  10.234  0.2019 -0.0674  0.0971
  237loPI   GL1 3781  12.265   2.554   9.811  0.0583  0.0238 -0.0338
  237loPI   GL2 3782  12.450   2.636   9.658 -0.0238 -0.1376 -0.0279
  237loPI   C1A 3783  11.954   2.450   9.436  0.1265  0.2188  0.3121
  237loPI   C2A 3784  11.980   2.496   9.030  0.0097 -0.2231 -0.2681
  237loPI   C3A 3785  11.902   2.447   8.552 -0.2006 -0.0104 -0.1132
  237loPI   C4A 3786  12.274   2.314   8.197  0.5244 -0.1424 -0.0064
  237loPI   C5A 3787  12.417   2.279   7.829 -0.0115  0.2455 -0.0983
  237loPI   C6A 3788  12.367   2.604   7.440  0.0322  0.1815 -0.0580
  237loPI   C1B 3789  12.807   2.557   9.344  0.0345 -0.1196 -0.0071
  237loPI   C2B 3790  12.797   2.706   8.932  0.2540 -0.3214 -0.1039
  237loPI   C3B 3791  12.685   2.536   8.540 -0.0562  0.0075 -0.0424
  237loPI   C4B 3792  12.847   2.428   8.194 -0.0225  0.1643 -0.0808
  238loPI    C1 3793   4.215   7.978  10.381 -0.3129 -0.1197  0.1026
  238loPI    C2 3794   3.869   8.107  10.228 -0.2246  0.1447  0.1207
  238loPI    C3 3795   4.191   8.343  10.219 -0.0043 -0.1552 -0.0302
  238loPI   PO4 3796   4.188   7.719  10.305  0.2926 -0.1196  0.2117
  238loPI   GL1 3797   4.190   7.718   9.886  0.2809  0.2371  0.1589
  238loPI   GL2 3798   4.193   7.988   9.847 -0.1487  0.2840  0.1840
  238loPI   C1A 3799   4.156   7.349   9.617 -0.2924  0.1556  0.1666
  238loPI   C2A 3800   4.115   7.262   9.128  0.2738  0.2218  0.0256
  238loPI   C3A 3801   3.983   7.322   8.742 -0.4485 -0.2225 -0.1145
  238loPI   C4A 3802   3.656   7.175   8.451 -0.1644  0.1986 -0.0442
  238loPI   C5A 3803   3.388   7.181   8.239  0.2634 -0.0801  0.2485
  238loPI   C6A 3804   3.029   7.468   8.127  0.1282 -0.3411 -0.1070
  238loPI   C1B 3805   4.119   8.090   9.433  0.3975  0.3295 -0.0193
  238loPI   C2B 3806   4.246   7.712   9.210  0.4241 -0.1363 -0.2187
  238loPI   C3B 3807   4.381   7.685   8.747 -0.0879 -0.0867 -0.4298
  238loPI   C4B 3808   4.366   7.668   8.288  0.2432 -0.2055  0.0631
  239loPI    C1 3809  11.140  10.018  10.898 -0.2203  0.2122 -0.0727
  239loPI    C2 3810  11.168  10.358  11.106 -0.2981  0.2103 -0.0590
  239loPI    C3 3811  10.967  10.048  11.258  0.0289  0.0530  0.0639
  239loPI   PO4 3812  11.035  10.051  10.670  0.0247  0.0494 -0.0359
  239loPI   GL1 3813  10.770  10.107  10.308  0.1024 -0.2209 -0.0593
  239loPI   GL2 3814  10.967   9.843  10.220  0.2565 -0.2309  0.3539
  239loPI   C1A 3815  10.633  10.277   9.871  0.4222 -0.0253  0.0646
  239loPI   C2A 3816  10.783  10.466   9.592 -0.0890  0.2574  0.0404
  239loPI   C3A 3817  10.864  10.401   9.168  0.1288 -0.0654 -0.1433
  239loPI   C4A 3818  10.590  10.242   8.835 -0.0991 -0.0803 -0.3158
  239loPI   C5A 3819  10.563   9.792   8.715 -0.0671 -0.1032 -0.2601
  239loPI   C6A 3820  10.332   9.443   8.592 -0.1847  0.0755  0.0838
  239loPI   C1B 3821  11.026   9.534   9.927  0.0694  0.2046 -0.2205
  239loPI   C2B 3822  10.926   9.291   9.643 -0.1918  0.1571  0.1547
  239loPI   C3B 3823  11.172   9.262   9.347  0.1221  0.1776  0.2070
  239loPI   C4B 3824  11.422   9.259   8.965  0.3544  0.3212  0.3577
  240loPI    C1 3825  11.437  17.405  10.697 -0.0112 -0.1319 -0.2408
  240loPI    C2 3826  11.393  17.756  10.509 -0.3218 -0.0241  0.0245
  240loPI    C3 3827  11.398  17.742  10.909  0.0766 -0.2806  0.0165
  240loPI   PO4 3828  11.219  17.280  10.513 -0.2918 -0.3516 -0.0671
  240loPI   GL1 3829  11.191  17.526  10.160 -0.1515 -0.1532  0.0896
  240loPI   GL2 3830  11.354  17.296  10.045  0.0640 -0.6043  0.2830
  240loPI   C1A 3831  11.055  17.611   9.740 -0.0132  0.3855 -0.0778
  240loPI   C2A 3832  11.351  17.634   9.338 -0.1567 -0.4573 -0.0216
  240loPI   C3A 3833  11.416  17.934   8.983 -0.0055  0.0625  0.1021
  240loPI   C4A 3834  11.649  18.177   8.719 -0.3399  0.5487 -0.0019
  240loPI   C5A 3835  12.120  18.289   8.590  0.1010  0.4526 -0.1216
  240loPI   C6A 3836  12.511  18.319   8.672  0.0051 -0.0558  0.1558
  240loPI   C1B 3837  11.299  17.136   9.610 -0.1092  0.1832  0.5104
  240loPI   C2B 3838  11.260  17.170   9.176 -0.0441  0.1368 -0.3377
  240loPI   C3B 3839  11.569  17.451   8.897 -0.1163 -0.0774  0.0697
  240loPI   C4B 3840  11.892  17.752   8.900 -0.0230  0.0509  0.3793
  241loPI    C1 3841  11.098   8.288  10.791  0.0433 -0.0197  0.1677
  241loPI    C2 3842  10.939   8.651  10.846 -0.0471 -0.0510  0.1153
  241loPI    C3 3843  10.901   8.372  11.129 -0.1646 -0.0868  0.0649
  241loPI   PO4 3844  11.416   8.239  10.745 -0.0182 -0.3749  0.1092
  241loPI   GL1 3845  11.718   8.236  10.377 -0.2741  0.1486 -0.1906
  241loPI   GL2 3846  11.849   8.552  10.248  0.0961  0.0882  0.0116
  241loPI   C1A 3847  11.529   8.208   9.932 -0.0554 -0.2264 -0.2298
  241loPI   C2A 3848  11.711   8.236   9.561  0.1065 -0.0046 -0.1257
  241loPI   C3A 3849  11.744   8.299   9.090 -0.1019 -0.1481 -0.1727
  241loPI   C4A 3850  11.543   8.167   8.604  0.2304 -0.0823  0.0826
  241loPI   C5A 3851  11.678   7.966   8.241  0.0644  0.0248 -0.0819
  241loPI   C6A 3852  12.121   8.018   7.998 -0.1802 -0.2431  0.0941
  241loPI   C1B 3853  11.772   8.650   9.757 -0.0820  0.0268  0.0106
  241loPI   C2B 3854  11.948   8.688   9.423  0.0597  0.2019 -0.2428
  241loPI   C3B 3855  12.061   8.654   8.962  0.0654 -0.0125 -0.2030
  241loPI   C4B 3856  12.162   8.628   8.425 -0.0179  0.1380  0.2685
  242loPI    C1 3857   5.214  13.740  10.575  0.0976  0.0176  0.2757
  242loPI    C2 3858   4.838  13.876  10.585  0.0875  0.0165 -0.0126
  242loPI    C3 3859   5.084  13.945  10.893 -0.1427  0.0320  0.1702
  242loPI   PO4 3860   5.246  13.688  10.300  0.0222 -0.1031 -0.3111
  242loPI   GL1 3861   5.544  13.821   9.916  0.2004 -0.0430 -0.0853
  242loPI   GL2 3862   5.360  13.513   9.839  0.0004  0.1780 -0.0381
  242loPI   C1A 3863   5.624  14.013   9.528  0.2041 -0.0570 -0.1350
  242loPI   C2A 3864   5.562  13.839   9.177  0.4866  0.2208 -0.4696
  242loPI   C3A 3865   5.431  13.655   8.882  0.0225  0.0115  0.0940
  242loPI   C4A 3866   5.254  13.462   8.692 -0.0798 -0.1710 -0.2095
  242loPI   C5A 3867   5.092  13.001   8.487 -0.2770  0.1560  0.1366
  242loPI   C6A 3868   5.043  12.637   8.381  0.0203 -0.0067 -0.1941
  242loPI   C1B 3869   5.353  13.454   9.398  0.0370  0.0848  0.0523
  242loPI   C2B 3870   5.133  13.274   9.084  0.1427  0.4644 -0.0992
  242loPI   C3B 3871   4.806  13.239   8.819  0.0282 -0.0372  0.0064
  242loPI   C4B 3872   4.647  13.551   8.571  0.0822  0.0318 -0.4983
  243loPI    C1 3873   6.679  14.317  10.419 -0.1955 -0.1697  0.0414
  243loPI    C2 3874   6.802  14.674  10.551  0.1278 -0.2504 -0.0337
  243loPI    C3 3875   6.797  14.360  10.799  0.0588 -0.2438 -0.0270
  243loPI   PO4 3876   6.843  14.265  10.240 -0.3257 -0.2185 -0.1489
  243loPI   GL1 3877   6.996  14.287   9.858  0.1987 -0.0244  0.0825
  243loPI   GL2 3878   6.747  14.365   9.779  0.1905 -0.2043  0.2494
  243loPI   C1A 3879   7.135  14.618   9.551 -0.2749 -0.2478 -0.1988
  243loPI   C2A 3880   7.430  14.574   9.220 -0.1086 -0.1986 -0.2560
  243loPI   C3A 3881   7.583  14.445   8.853 -0.0375  0.2360  0.1009
  243loPI   C4A 3882   7.685  14.608   8.463  0.0895 -0.0015  0.2756
  243loPI   C5A 3883   7.756  14.462   7.988 -0.1753 -0.1462 -0.1542
  243loPI   C6A 3884   7.997  14.277   7.749 -0.0607 -0.2537 -0.0797
  243loPI   C1B 3885   6.770  14.449   9.279  0.0274 -0.2815 -0.0715
  243loPI   C2B 3886   6.626  14.443   8.988 -0.5011  0.3254  0.2318
  243loPI   C3B 3887   6.505  14.255   8.576  0.2209 -0.1242  0.1276
  243loPI   C4B 3888   6.251  14.346   8.237  0.0847  0.0187 -0.1891
  244loPI    C1 3889   0.983   1.635  10.260  0.0967  0.0132 -0.0167
  244loPI    C2 3890   0.919   1.332  10.513  0.1147 -0.0054 -0.0343
  244loPI    C3 3891   0.697   1.664  10.538  0.0734 -0.0329 -0.0357
  244loPI   PO4 3892   1.241   1.635  10.115  0.1770 -0.3319 -0.2605
  244loPI   GL1 3893   1.421   1.590   9.835 -0.0824 -0.0242  0.1900
  244loPI   GL2 3894   1.317   1.378   9.658  0.0016 -0.4515  0.1222
  244loPI   C1A 3895   1.625   1.698   9.472  0.0538 -0.2006 -0.0313
  244loPI   C2A 3896   1.694   1.730   9.016  0.1823 -0.2340  0.0240
  244loPI   C3A 3897   1.775   1.704   8.577 -0.0393 -0.0941 -0.0686
  244loPI   C4A 3898   1.919   1.922   8.261  0.0474 -0.1868 -0.0172
  244loPI   C5A 3899   1.978   1.958   7.789  0.3130  0.1919  0.1279
  244loPI   C6A 3900   2.114   1.769   7.437 -0.2612  0.2025 -0.2259
  244loPI   C1B 3901   1.173   1.501   9.259 -0.2466  0.0644 -0.2644
  244loPI   C2B 3902   1.277   1.542   8.861 -0.3018  0.0587  0.2113
  244loPI   C3B 3903   1.268   1.755   8.473  0.3585  0.4743  0.0245
  244loPI   C4B 3904   1.253   1.848   8.100  0.2469  0.3318 -0.0802
  245loPI    C1 3905   1.346   8.884  10.709  0.0740  0.0015 -0.0465
  245loPI    C2 3906   1.435   9.053  11.061 -0.0686  0.1502 -0.0804
  245loPI    C3 3907   1.095   8.846  11.018 -0.0133  0.0644 -0.1091
  245loPI   PO4 3908   1.539   9.042  10.516 -0.2976  0.1401 -0.0130
  245loPI   GL1 3909   1.300   9.337  10.277 -0.3339 -0.0412 -0.0979
  245loPI   GL2 3910   1.611   9.462  10.178 -0.0558  0.2492  0.0837
  245loPI   C1A 3911   1.191   9.247   9.831  0.0067  0.0182 -0.0630
  245loPI   C2A 3912   0.904   9.243   9.459 -0.1990  0.0127  0.0865
  245loPI   C3A 3913   0.843   9.162   9.020 -0.1395 -0.0695  0.0483
  245loPI   C4A 3914   0.915   9.143   8.519 -0.2075 -0.1309 -0.1120
  245loPI   C5A 3915   0.810   8.798   8.190  0.0852  0.1932 -0.1177
  245loPI   C6A 3916   0.673   8.539   7.836 -0.0001 -0.2976  0.1350
  245loPI   C1B 3917   1.454   9.656   9.801  0.0551 -0.0605  0.0222
  245loPI   C2B 3918   1.137   9.816   9.557  0.0726  0.3720 -0.1594
  245loPI   C3B 3919   1.163  10.043   9.071  0.2264 -0.0414  0.1009
  245loPI   C4B 3920   1.152  10.071   8.576  0.0798  0.2155  0.2283
  246loPI    C1 3921  11.929  13.021  10.683  0.1874 -0.3825  0.0730
  246loPI    C2 3922  11.615  13.191  10.862  0.1154 -0.3327 -0.0980
  246loPI    C3 3923  11.980  13.345  10.912  0.0170  0.0358 -0.4574
  246loPI   PO4 3924  11.779  12.795  10.594 -0.4754 -0.1047 -0.0964
  246loPI   GL1 3925  11.637  12.661  10.213  0.0326 -0.1353 -0.2449
  246loPI   GL2 3926  11.573  12.321  10.145 -0.0640 -0.1460  0.3406
  246loPI   C1A 3927  11.560  12.814   9.812 -0.1634  0.3043  0.1631
  246loPI   C2A 3928  11.644  12.941   9.353  0.1989 -0.4409  0.1643
  246loPI   C3A 3929  11.525  13.131   8.956 -0.1535  0.0223  0.1951
  246loPI   C4A 3930  11.602  13.221   8.551 -0.0291 -0.1268  0.0762
  246loPI   C5A 3931  11.676  13.457   8.271 -0.0498 -0.1858 -0.1070
  246loPI   C6A 3932  11.475  13.788   8.090  0.1498 -0.0135  0.0120
  246loPI   C1B 3933  11.475  12.169   9.850 -0.1289 -0.3454  0.1463
  246loPI   C2B 3934  11.521  12.042   9.331 -0.3822  0.0579  0.2363
  246loPI   C3B 3935  11.733  12.052   9.024 -0.1758  0.2013 -0.1193
  246loPI   C4B 3936  11.727  11.945   8.610 -0.0649  0.3929  0.2394
  247loPI    C1 3937   7.444  10.952  11.058 -0.4365 -0.1553  0.0831
  247loPI    C2 3938   7.369  10.723  11.378 -0.0765 -0.0163  0.2725
  247loPI    C3 3939   7.492  11.101  11.426  0.0107 -0.0031 -0.0305
  247loPI   PO4 3940   7.341  10.929  10.716 -0.0803 -0.1035 -0.1246
  247loPI   GL1 3941   7.622  11.036  10.294  0.0510 -0.1964  0.2924
  247loPI   GL2 3942   7.459  10.744  10.228  0.0634  0.1718  0.2417
  247loPI   C1A 3943   7.621  11.507  10.033 -0.2497 -0.1387 -0.1244
  247loPI   C2A 3944   7.676  11.623   9.642  0.1264 -0.0460  0.2165
  247loPI   C3A 3945   7.683  11.978   9.349 -0.1791  0.1452 -0.0225
  247loPI   C4A 3946   7.730  12.434   9.043  0.1690 -0.3125  0.0215
  247loPI   C5A 3947   7.733  12.702   8.699  0.1268  0.0578  0.1731
  247loPI   C6A 3948   7.743  13.097   8.541  0.0101  0.0301  0.1139
  247loPI   C1B 3949   7.569  10.807   9.817 -0.0734  0.2544 -0.1457
  247loPI   C2B 3950   7.556  10.855   9.410 -0.1019  0.2258  0.1574
  247loPI   C3B 3951   7.680  11.077   9.065  0.0449 -0.2403  0.0750
  247loPI   C4B 3952   8.000  11.193   8.764  0.3222  0.2630 -0.1082
  248loPI    C1 3953   0.507  17.636  10.114 -0.2397  0.0399  0.0511
  248loPI    C2 3954   0.582  17.392  10.421 -0.3216  0.0950  0.1152
  248loPI    C3 3955   0.645  17.785  10.459 -0.2033  0.0863  0.0168
  248loPI   PO4 3956   0.264  17.562   9.977 -0.0427 -0.2203 -0.0453
  248loPI   GL1 3957   0.139  17.720   9.605 -0.0287  0.2030 -0.4305
  248loPI   GL2 3958  -0.141  17.772   9.501 -0.1999 -0.0930  0.1992
  248loPI   C1A 3959   0.273  17.762   9.129  0.3022 -0.1482 -0.1158
  248loPI   C2A 3960   0.257  17.881   8.723 -0.2361 -0.1855 -0.1039
  248loPI   C3A 3961  -0.008  18.133   8.479 -0.2386  0.0642  0.1261
  248loPI   C4A 3962   0.226  18.401   8.092 -0.2089 -0.1653  0.0250
  248loPI   C5A 3963   0.213  18.811   7.907  0.0014 -0.1622  0.3926
  248loPI   C6A 3964   0.507  19.095   7.891 -0.2520 -0.1013 -0.3337
  248loPI   C1B 3965  -0.200  17.775   9.062 -0.1427 -0.1697 -0.0141
  248loPI   C2B 3966  -0.227  17.700   8.683 -0.2023 -0.3117  0.1952
  248loPI   C3B 3967  -0.202  17.632   8.168 -0.2110  0.4018 -0.1382
  248loPI   C4B 3968  -0.364  17.690   7.757  0.2000 -0.1137 -0.2713
  249loPI    C1 3969   6.479   3.330  11.375  0.1877  0.1746 -0.1981
  249loPI    C2 3970   6.794   3.280  11.616  0.0166 -0.0532 -0.0169
  249loPI    C3 3971   6.497   3.525  11.724  0.0351  0.0030 -0.0926
  249loPI   PO4 3972   6.574   3.389  11.109  0.2344  0.2790 -0.0084
  249loPI   GL1 3973   6.466   3.239  10.714 -0.3258 -0.0781  0.2566
  249loPI   GL2 3974   6.215   3.534  10.650  0.1980 -0.1631  0.1398
  249loPI   C1A 3975   6.355   3.065  10.394  0.0540  0.0937  0.1975
  249loPI   C2A 3976   6.107   3.059  10.044 -0.0099 -0.0086  0.1670
  249loPI   C3A 3977   5.975   3.016   9.691  0.0047 -0.2715  0.0227
  249loPI   C4A 3978   5.849   2.995   9.269 -0.1330  0.0289  0.1263
  249loPI   C5A 3979   6.014   3.034   8.856  0.0522  0.0153  0.4012
  249loPI   C6A 3980   6.322   2.908   8.631  0.1733 -0.0348  0.0453
  249loPI   C1B 3981   6.075   3.558  10.244  0.0779  0.0167 -0.1078
  249loPI   C2B 3982   6.017   3.498   9.761  0.1050  0.2496  0.1525
  249loPI   C3B 3983   5.913   3.458   9.369 -0.1372 -0.0686 -0.1527
  249loPI   C4B 3984   6.038   3.519   9.075 -0.0540 -0.2461  0.2629
  250loPI    C1 3985   1.475  10.329  10.520  0.1516 -0.1459  0.0959
  250loPI    C2 3986   1.688  10.612  10.333 -0.1228 -0.0285 -0.0449
  250loPI    C3 3987   1.771  10.517  10.713  0.0235  0.1845 -0.0217
  250loPI   PO4 3988   1.522  10.136  10.372  0.2930 -0.0217  0.1127
  250loPI   GL1 3989   1.721  10.086   9.948 -0.0237  0.0839  0.0124
  250loPI   GL2 3990   1.707  10.336   9.940  0.0892 -0.1932  0.2174
  250loPI   C1A 3991   1.613   9.966   9.475 -0.3047 -0.0253 -0.0666
  250loPI   C2A 3992   1.617   9.899   9.130  0.1026  0.1718  0.1913
  250loPI   C3A 3993   1.521   9.760   8.753  0.0702 -0.1846 -0.5787
  250loPI   C4A 3994   1.376   9.385   8.388 -0.0888  0.1143 -0.2704
  250loPI   C5A 3995   1.336   8.966   8.286  0.1666 -0.0667  0.1159
  250loPI   C6A 3996   1.228   8.589   8.444 -0.1795  0.2597  0.1750
  250loPI   C1B 3997   1.300  10.293   9.698  0.0969 -0.1103 -0.1663
  250loPI   C2B 3998   1.011  10.502   9.342  0.0700  0.6310  0.1153
  250loPI   C3B 3999   0.787  10.503   9.037  0.2095 -0.1107  0.1701
  250loPI   C4B 4000   0.798  10.457   8.656 -0.1509  0.1110  0.0379
  251loPI    C1 4001  11.973   0.917  10.610  0.0948 -0.1627 -0.0115
  251loPI    C2 4002  11.956   0.663  10.918  0.0712  0.0040  0.1259
  251loPI    C3 4003  11.687   0.957  10.886  0.2562  0.1745  0.1127
  251loPI   PO4 4004  11.977   0.834  10.350 -0.3663 -0.0944 -0.1305
  251loPI   GL1 4005  11.660   0.711  10.035  0.2807  0.1093  0.1390
  251loPI   GL2 4006  11.520   1.081   9.921  0.1376  0.3356 -0.0717
  251loPI   C1A 4007  11.623   0.775   9.577  0.1742  0.1194 -0.0249
  251loPI   C2A 4008  11.647   0.936   9.128  0.2995  0.0748  0.0615
  251loPI   C3A 4009  11.868   0.813   8.791 -0.0973 -0.1713  0.2914
  251loPI   C4A 4010  11.885   0.867   8.418 -0.0160 -0.4520 -0.1092
  251loPI   C5A 4011  12.035   1.172   8.024  0.1006 -0.3162 -0.0950
  251loPI   C6A 4012  12.087   1.348   7.572  0.0945  0.1395  0.0032
  251loPI   C1B 4013  11.453   1.237   9.548  0.3081  0.0475 -0.1416
  251loPI   C2B 4014  11.412   1.360   9.077 -0.2993 -0.1057 -0.0212
  251loPI   C3B 4015  11.514   1.508   8.640  0.1123  0.2177  0.0332
  251loPI   C4B 4016  11.486   1.202   8.474 -0.0127  0.0252 -0.0328
  252loPI    C1 4017  11.095  15.900  10.486 -0.0452  0.0469 -0.0721
  252loPI    C2 4018  11.347  16.155  10.664  0.0104 -0.0032 -0.0784
  252loPI    C3 4019  11.234  15.820  10.853 -0.0553  0.0211 -0.0738
  252loPI   PO4 4020  10.809  16.067  10.285 -0.0111  0.1055 -0.0842
  252loPI   GL1 4021  10.591  15.965  10.025  0.0918 -0.0772  0.0654
  252loPI   GL2 4022  10.783  15.972   9.788  0.0624  0.0375 -0.0332
  252loPI   C1A 4023  10.359  15.713   9.724 -0.1860  0.4478  0.0265
  252loPI   C2A 4024  10.377  15.606   9.257 -0.0831 -0.0506  0.0648
  252loPI   C3A 4025  10.649  15.370   8.922 -0.0476 -0.2194  0.1254
  252loPI   C4A 4026  10.882  15.378   8.586  0.0584  0.1524 -0.0514
  252loPI   C5A 4027  10.863  15.047   8.243  0.1237 -0.2398  0.0039
  252loPI   C6A 4028  10.650  14.966   7.843 -0.0633 -0.0666  0.3156
  252loPI   C1B 4029  10.912  15.691   9.441 -0.1639 -0.0979 -0.0384
  252loPI   C2B 4030  11.120  15.486   9.081  0.2005  0.2821  0.2813
  252loPI   C3B 4031  11.285  15.251   8.788 -0.0242 -0.1773 -0.4143
  252loPI   C4B 4032  11.272  15.048   8.523 -0.1383 -0.0157 -0.1966
  253loPI    C1 4033   1.688  11.146  10.279 -0.0221  0.0704  0.2021
  253loPI    C2 4034   1.543  11.340  10.597 -0.1705 -0.1026  0.2415
  253loPI    C3 4035   1.759  11.008  10.648  0.1523  0.0939  0.1780
  253loPI   PO4 4036   1.647  11.381  10.089  0.0214 -0.0293 -0.1147
  253loPI   GL1 4037   1.501  11.527   9.735 -0.2194  0.2610  0.2528
  253loPI   GL2 4038   1.195  11.575   9.696 -0.1461 -0.2510  0.0585
  253loPI   C1A 4039   1.678  11.496   9.370  0.5121 -0.2983  0.3578
  253loPI   C2A 4040   1.817  11.352   8.912  0.0279  0.0851  0.0836
  253loPI   C3A 4041   1.996  11.233   8.668 -0.3770  0.0220 -0.0868
  253loPI   C4A 4042   2.113  10.918   8.387 -0.1632 -0.2568 -0.2667
  253loPI   C5A 4043   1.762  10.795   8.208  0.0133  0.0947  0.2458
  253loPI   C6A 4044   1.691  10.509   8.108  0.1915 -0.0769  0.1925
  253loPI   C1B 4045   1.212  11.455   9.285 -0.1520  0.0354  0.0743
  253loPI   C2B 4046   1.149  11.363   8.804 -0.4176  0.0004 -0.0044
  253loPI   C3B 4047   1.137  11.449   8.435  0.1745  0.0013  0.1238
  253loPI   C4B 4048   1.339  11.551   8.067 -0.1080  0.2141 -0.1600
  254loPI    C1 4049   2.389  11.580  10.290  0.0020  0.0439 -0.3292
  254loPI    C2 4050   2.157  11.899  10.355  0.1471  0.0539  0.1854
  254loPI    C3 4051   2.036  11.537  10.474  0.2505  0.0103  0.1578
  254loPI   PO4 4052   2.583  11.738  10.067  0.0501  0.1653 -0.2064
  254loPI   GL1 4053   2.487  11.492   9.732  0.2131 -0.1173 -0.0590
  254loPI   GL2 4054   2.359  11.402   9.476  0.0922  0.0006 -0.2757
  254loPI   C1A 4055   2.848  11.351   9.541 -0.0032 -0.0353  0.2478
  254loPI   C2A 4056   3.051  11.344   9.172  0.0518 -0.0109  0.0070
  254loPI   C3A 4057   3.033  11.252   8.793 -0.2667 -0.3293 -0.1715
  254loPI   C4A 4058   3.002  10.865   8.618 -0.3320  0.3800 -0.0151
  254loPI   C5A 4059   2.672  10.666   8.586  0.1232  0.3732  0.0236
  254loPI   C6A 4060   2.473  10.535   8.260  0.0964  0.0964  0.2058
  254loPI   C1B 4061   2.567  11.686   9.251 -0.0752 -0.1145  0.2257
  254loPI   C2B 4062   2.664  11.660   8.734 -0.0572  0.3884 -0.1763
  254loPI   C3B 4063   2.762  11.513   8.243 -0.0653 -0.0492 -0.0970
  254loPI   C4B 4064   3.055  11.376   7.941 -0.0272  0.2043 -0.0858
  255loPI    C1 4065   3.913   5.028  10.457  0.0175 -0.2450  0.0900
  255loPI    C2 4066   4.151   5.279  10.657  0.0901 -0.0982 -0.1760
  255loPI    C3 4067   3.948   4.997  10.855 -0.0032  0.1761  0.1293
  255loPI   PO4 4068   3.840   5.147  10.218  0.0445 -0.0277 -0.2290
  255loPI   GL1 4069   3.719   5.045   9.837 -0.0548 -0.3074  0.1606
  255loPI   GL2 4070   3.961   5.122   9.679 -0.1642 -0.3571 -0.1003
  255loPI   C1A 4071   3.433   5.225   9.610  0.3451 -0.3544 -0.1599
  255loPI   C2A 4072   3.334   5.220   9.162  0.1148 -0.1953  0.0639
  255loPI   C3A 4073   3.039   5.439   8.795  0.0273 -0.0586 -0.1320
  255loPI   C4A 4074   3.054   5.235   8.412  0.0251 -0.3030 -0.2473
  255loPI   C5A 4075   2.963   4.992   7.998  0.1615  0.1411  0.2432
  255loPI   C6A 4076   2.896   4.606   7.822 -0.3515  0.1480 -0.1371
  255loPI   C1B 4077   3.812   4.932   9.360  0.3198 -0.1221  0.5285
  255loPI   C2B 4078   3.765   4.976   8.961 -0.1503  0.2572  0.0752
  255loPI   C3B 4079   3.910   4.833   8.521  0.1903 -0.1063  0.1306
  255loPI   C4B 4080   3.973   4.474   8.356 -0.0856 -0.2397  0.1474
  256loPI    C1 4081   8.655   8.017  10.321 -0.1171 -0.1264 -0.2757
  256loPI    C2 4082   8.376   8.117  10.589 -0.0055 -0.1553 -0.1475
  256loPI    C3 4083   8.650   8.385  10.476  0.0684 -0.2033 -0.0827
  256loPI   PO4 4084   8.568   7.697  10.407 -0.0043  0.1799 -0.0835
  256loPI   GL1 4085   8.425   7.545  10.005 -0.2479 -0.1106 -0.0233
  256loPI   GL2 4086   8.711   7.376  10.033 -0.1062 -0.2788 -0.0501
  256loPI   C1A 4087   8.486   7.614   9.561  0.1044  0.0123 -0.2124
  256loPI   C2A 4088   8.660   7.587   9.180  0.1896  0.2172  0.0824
  256loPI   C3A 4089   8.595   7.644   8.827  0.1143 -0.1642  0.0132
  256loPI   C4A 4090   8.279   7.611   8.411 -0.0014  0.1448 -0.2323
  256loPI   C5A 4091   8.170   7.723   8.001 -0.3105  0.0308 -0.1913
  256loPI   C6A 4092   8.100   7.518   7.653 -0.0292 -0.1411  0.0255
  256loPI   C1B 4093   8.846   7.303   9.578 -0.0207 -0.1304  0.0534
  256loPI   C2B 4094   9.128   7.344   9.233  0.0062 -0.1100  0.3785
  256loPI   C3B 4095   9.497   7.453   8.980  0.4156 -0.1696  0.1604
  256loPI   C4B 4096   9.646   7.637   8.549  0.0163 -0.1386 -0.3361
  257loPI    C1 4097  13.525   1.474  10.510  0.2092  0.0359  0.1932
  257loPI    C2 4098  13.709   1.258  10.792 -0.1838 -0.1464  0.3158
  257loPI    C3 4099  13.389   1.110  10.603 -0.0040  0.0274 -0.1383
  257loPI   PO4 4100  13.771   1.583  10.263  0.2119  0.2622 -0.5180
  257loPI   GL1 4101  13.879   1.911   9.971 -0.0459 -0.1315 -0.0133
  257loPI   GL2 4102  13.964   2.198   9.912  0.1171  0.2712 -0.2878
  257loPI   C1A 4103  14.045   1.818   9.540 -0.0876  0.1316 -0.3021
  257loPI   C2A 4104  13.954   1.758   9.072  0.0806 -0.2132 -0.1407
  257loPI   C3A 4105  13.843   1.828   8.645  0.0552  0.3190 -0.2179
  257loPI   C4A 4106  13.647   1.987   8.299 -0.0164 -0.0838  0.1350
  257loPI   C5A 4107  13.696   2.326   8.047  0.0020  0.1428 -0.0783
  257loPI   C6A 4108  14.065   2.433   7.921  0.2633 -0.3021  0.1340
  257loPI   C1B 4109  13.809   2.218   9.493 -0.1090  0.5002 -0.1585
  257loPI   C2B 4110  13.844   2.367   9.080  0.1233 -0.3301 -0.2079
  257loPI   C3B 4111  14.079   2.678   8.899 -0.3515  0.2655 -0.5477
  257loPI   C4B 4112  14.071   3.067   8.611  0.0254  0.2408 -0.1367
  258loPI    C1 4113   3.487  13.022  10.647 -0.0578 -0.0168 -0.0522
  258loPI    C2 4114   3.284  13.343  10.772  0.1558  0.0927  0.0202
  258loPI    C3 4115   3.358  13.042  11.025 -0.2441 -0.1226 -0.1090
  258loPI   PO4 4116   3.381  12.903  10.427 -0.2387 -0.0129  0.0760
  258loPI   GL1 4117   3.375  12.839  10.042 -0.1266 -0.1004  0.1152
  258loPI   GL2 4118   3.727  12.965  10.009 -0.1062 -0.0287  0.1566
  258loPI   C1A 4119   3.149  12.940   9.609  0.2767  0.3857 -0.4774
  258loPI   C2A 4120   2.959  13.025   9.183  0.0228 -0.0688  0.2529
  258loPI   C3A 4121   2.917  13.103   8.696 -0.0614 -0.2722 -0.1715
  258loPI   C4A 4122   2.783  13.031   8.327 -0.1473 -0.2696 -0.2041
  258loPI   C5A 4123   2.920  12.979   7.921  0.2307 -0.1349  0.0047
  258loPI   C6A 4124   2.678  13.094   7.609 -0.1518 -0.0523  0.2028
  258loPI   C1B 4125   3.661  13.098   9.531  0.0373 -0.0464  0.2470
  258loPI   C2B 4126   3.462  13.000   9.173 -0.0720  0.1030 -0.2237
  258loPI   C3B 4127   3.324  12.913   8.805  0.0352  0.1687 -0.1818
  258loPI   C4B 4128   3.255  12.840   8.378 -0.0239  0.0476  0.0696
  259loPI    C1 4129   6.350  11.016  10.882 -0.1388  0.1772 -0.0306
  259loPI    C2 4130   6.330  10.768  11.195  0.1807 -0.1470 -0.2591
  259loPI    C3 4131   6.043  10.762  10.917 -0.0774  0.1060 -0.0048
  259loPI   PO4 4132   6.645  10.994  10.802  0.1257  0.1079  0.0354
  259loPI   GL1 4133   6.849  10.854  10.476 -0.1073 -0.1960 -0.0810
  259loPI   GL2 4134   6.851  10.578  10.293 -0.1049 -0.1278 -0.4583
  259loPI   C1A 4135   6.751  11.027  10.066 -0.0530 -0.2412  0.2537
  259loPI   C2A 4136   6.688  10.927   9.664  0.0197  0.0453 -0.3657
  259loPI   C3A 4137   6.772  10.838   9.296  0.1095 -0.0347  0.1239
  259loPI   C4A 4138   6.720  10.926   8.921 -0.3768  0.1526  0.1266
  259loPI   C5A 4139   6.724  11.289   8.710  0.0929  0.2964 -0.2395
  259loPI   C6A 4140   6.844  11.679   8.825 -0.4055  0.2322  0.1223
  259loPI   C1B 4141   7.050  10.595   9.752  0.2278  0.1021  0.2136
  259loPI   C2B 4142   7.162  10.595   9.341 -0.1827 -0.1014  0.1295
  259loPI   C3B 4143   7.073  10.553   8.883  0.2391  0.0716 -0.3387
  259loPI   C4B 4144   6.728  10.536   8.590  0.0119 -0.1287 -0.0277
  260loPI    C1 4145   3.254  14.232  10.156 -0.0635  0.2046 -0.2624
  260loPI    C2 4146   3.131  14.570  10.332 -0.1919  0.0551 -0.0615
  260loPI    C3 4147   2.877  14.355  10.110 -0.3096 -0.2635  0.3682
  260loPI   PO4 4148   3.492  14.208  10.160  0.1362 -0.1498 -0.0273
  260loPI   GL1 4149   3.861  14.237   9.839  0.1897 -0.0983  0.1094
  260loPI   GL2 4150   4.147  14.103   9.934 -0.1726 -0.1281 -0.2527
  260loPI   C1A 4151   3.921  14.248   9.399  0.0776  0.1485  0.0234
  260loPI   C2A 4152   3.943  14.459   9.042 -0.0343 -0.0173 -0.3071
  260loPI   C3A 4153   3.942  14.706   8.745 -0.2256  0.0830  0.2031
  260loPI   C4A 4154   4.083  14.772   8.404 -0.0253 -0.0791 -0.0651
  260loPI   C5A 4155   4.316  15.049   8.120  0.3050 -0.2661  0.2909
  260loPI   C6A 4156   4.631  15.330   8.002  0.2434 -0.0481  0.2704
  260loPI   C1B 4157   4.245  13.842   9.563  0.0978 -0.0687  0.2732
  260loPI   C2B 4158   4.197  13.728   9.125 -0.1790  0.1328 -0.1130
  260loPI   C3B 4159   3.918  14.004   8.842 -0.1181  0.0007  0.0250
  260loPI   C4B 4160   3.846  14.166   8.544  0.0587  0.1830  0.0910
  261loPI    C1 4161  18.062   5.916  10.900 -0.2086  0.1277 -0.0151
  261loPI    C2 4162  17.973   5.528  10.866  0.0922  0.0610 -0.0623
  261loPI    C3 4163  18.260   5.646  11.118  0.0372  0.2478 -0.0860
  261loPI   PO4 4164  18.108   5.979  10.578  0.3595  0.0923 -0.0023
  261loPI   GL1 4165  18.083   5.792  10.137 -0.1596  0.3376 -0.2156
  261loPI   GL2 4166  17.838   5.883   9.999 -0.0024 -0.0005  0.3968
  261loPI   C1A 4167  18.307   5.943   9.818 -0.0427  0.0379 -0.3495
  261loPI   C2A 4168  18.351   6.006   9.462 -0.4596 -0.0815  0.0027
  261loPI   C3A 4169  18.269   6.023   9.056 -0.2310 -0.0479  0.1584
  261loPI   C4A 4170  18.097   6.108   8.635  0.1477 -0.3239  0.1531
  261loPI   C5A 4171  17.921   6.406   8.215 -0.1734 -0.0578  0.0069
  261loPI   C6A 4172  18.053   6.792   7.951  0.0550 -0.0867 -0.0070
  261loPI   C1B 4173  17.867   5.983   9.505 -0.0978 -0.1082  0.0585
  261loPI   C2B 4174  17.739   6.084   9.136  0.2212  0.0556 -0.0441
  261loPI   C3B 4175  17.654   6.347   8.691 -0.3982 -0.2372 -0.1692
  261loPI   C4B 4176  17.521   6.696   8.481 -0.0309 -0.0820 -0.2531
  262loPI    C1 4177   0.218   1.553  10.564  0.1914  0.2856  0.0400
  262loPI    C2 4178  -0.064   1.742  10.775 -0.0801 -0.0036 -0.0556
  262loPI    C3 4179   0.297   1.678  10.936 -0.1379  0.1755  0.1508
  262loPI   PO4 4180   0.280   1.670  10.328 -0.0699 -0.0783 -0.2135
  262loPI   GL1 4181   0.599   1.665   9.957 -0.2318 -0.2066 -0.0310
  262loPI   GL2 4182   0.825   1.493   9.855  0.0183  0.0336 -0.0438
  262loPI   C1A 4183   0.545   1.920   9.559  0.2873  0.0449 -0.1537
  262loPI   C2A 4184   0.410   2.138   9.147  0.2396 -0.0315  0.3108
  262loPI   C3A 4185   0.607   2.208   8.781 -0.1138 -0.0564 -0.2647
  262loPI   C4A 4186   0.557   2.178   8.409  0.2335 -0.2255  0.1309
  262loPI   C5A 4187   0.627   2.380   8.115 -0.0466 -0.1342  0.0862
  262loPI   C6A 4188   0.874   2.679   7.808 -0.0927  0.1869  0.1094
  262loPI   C1B 4189   0.692   1.468   9.436 -0.0427  0.0906 -0.0391
  262loPI   C2B 4190   0.583   1.691   8.987  0.0394  0.0855 -0.0506
  262loPI   C3B 4191   0.682   1.725   8.574 -0.0838  0.1363  0.0957
  262loPI   C4B 4192   0.797   1.727   8.129  0.0445 -0.3925 -0.0363
  263loPI    C1 4193  13.543  16.242  10.633  0.1970 -0.0575 -0.1151
  263loPI    C2 4194  13.757  16.525  10.817 -0.0553  0.2022 -0.2124
  263loPI    C3 4195  13.522  16.282  11.030 -0.0260  0.2268 -0.1517
  263loPI   PO4 4196  13.697  16.253  10.376 -0.0141  0.0673  0.3578
  263loPI   GL1 4197  13.682  16.474  10.058  0.2408 -0.3727  0.1165
  263loPI   GL2 4198  13.492  16.699  10.039 -0.1332 -0.0006  0.1180
  263loPI   C1A 4199  13.991  16.461   9.690  0.1979  0.2347 -0.2786
  263loPI   C2A 4200  13.930  16.288   9.280  0.2150  0.0226  0.1941
  263loPI   C3A 4201  13.922  16.116   8.868  0.1077  0.1330 -0.2859
  263loPI   C4A 4202  14.043  16.107   8.411  0.1412  0.0215  0.0222
  263loPI   C5A 4203  13.901  16.322   8.031 -0.0577 -0.0658  0.4634
  263loPI   C6A 4204  13.931  16.725   7.862  0.0269  0.2603 -0.1320
  263loPI   C1B 4205  13.478  16.702   9.604  0.1694  0.1706 -0.0351
  263loPI   C2B 4206  13.625  16.755   9.190  0.0592  0.2238  0.1482
  263loPI   C3B 4207  13.875  16.592   8.898  0.0123 -0.4100 -0.1380
  263loPI   C4B 4208  13.882  16.678   8.421  0.0121  0.0616 -0.0622
  264loPI    C1 4209   5.112   7.091  10.627 -0.2045  0.0799 -0.0527
  264loPI    C2 4210   5.439   6.961  10.817 -0.0700 -0.0450 -0.3613
  264loPI    C3 4211   5.076   6.853  10.946  0.0118 -0.0036 -0.0885
  264loPI   PO4 4212   5.160   7.087  10.419  0.4994 -0.0007  0.3150
  264loPI   GL1 4213   5.135   6.750  10.172  0.2530  0.2891 -0.1629
  264loPI   GL2 4214   5.450   6.771  10.134 -0.0739 -0.2050 -0.1003
  264loPI   C1A 4215   5.186   6.931   9.736 -0.2142  0.1014 -0.2417
  264loPI   C2A 4216   5.128   6.896   9.289  0.0074 -0.2331 -0.2473
  264loPI   C3A 4217   4.816   6.759   8.902  0.0384 -0.4843 -0.0248
  264loPI   C4A 4218   4.933   6.404   8.625 -0.0092 -0.0502 -0.1116
  264loPI   C5A 4219   4.819   5.903   8.479  0.0365 -0.1934 -0.1153
  264loPI   C6A 4220   4.959   5.634   8.105  0.1970  0.1814 -0.1106
  264loPI   C1B 4221   5.656   6.743   9.782  0.0214 -0.2175  0.0642
  264loPI   C2B 4222   5.603   6.681   9.356  0.1125  0.2651  0.1667
  264loPI   C3B 4223   5.328   6.552   9.017  0.0288  0.1346  0.0462
  264loPI   C4B 4224   5.404   6.188   8.727 -0.0221  0.1696  0.0610
  265loPI    C1 4225  16.554   4.275  10.429 -0.3666 -0.0416  0.1439
  265loPI    C2 4226  16.597   4.572  10.693  0.1709  0.1110 -0.1001
  265loPI    C3 4227  16.819   4.241  10.726 -0.0379 -0.0358 -0.1426
  265loPI   PO4 4228  16.567   4.413  10.183  0.1131  0.0762 -0.1213
  265loPI   GL1 4229  16.252   4.678   9.930  0.0850  0.1196  0.4788
  265loPI   GL2 4230  16.325   4.461   9.692 -0.2430 -0.0989  0.0227
  265loPI   C1A 4231  16.174   4.935   9.620  0.1513 -0.1268  0.0288
  265loPI   C2A 4232  16.286   5.074   9.244 -0.1098 -0.2498 -0.0860
  265loPI   C3A 4233  16.548   4.801   8.886  0.1461  0.4641 -0.5375
  265loPI   C4A 4234  16.658   4.656   8.573  0.0361  0.4520  0.2058
  265loPI   C5A 4235  16.748   4.518   8.229 -0.0509  0.1087  0.0684
  265loPI   C6A 4236  16.979   4.563   7.810  0.1943  0.1384 -0.0416
  265loPI   C1B 4237  16.313   4.359   9.224  0.1577  0.1659 -0.1402
  265loPI   C2B 4238  16.346   4.369   8.804  0.0789 -0.0983 -0.0939
  265loPI   C3B 4239  16.399   4.159   8.438  0.0243 -0.3079 -0.1766
  265loPI   C4B 4240  16.583   4.101   7.949 -0.0739 -0.1943 -0.3617
  266loPI    C1 4241   0.184  16.525  10.136  0.1835 -0.2486 -0.2272
  266loPI    C2 4242   0.555  16.648  10.048  0.0645  0.2304 -0.0887
  266loPI    C3 4243   0.404  16.712  10.413 -0.0945 -0.1217 -0.0882
  266loPI   PO4 4244   0.001  16.658   9.967  0.0707 -0.2107 -0.1026
  266loPI   GL1 4245  -0.034  16.574   9.629 -0.2038  0.1634  0.0926
  266loPI   GL2 4246   0.191  16.300   9.699 -0.1022  0.4585  0.1620
  266loPI   C1A 4247   0.130  16.681   9.321 -0.1618  0.0002  0.1550
  266loPI   C2A 4248  -0.039  16.825   8.951 -0.2174 -0.0533  0.5579
  266loPI   C3A 4249  -0.086  16.808   8.531  0.0134 -0.1919  0.3185
  266loPI   C4A 4250  -0.111  17.000   8.117 -0.2133 -0.2456 -0.4200
  266loPI   C5A 4251  -0.149  17.221   7.735 -0.2545 -0.0279 -0.0470
  266loPI   C6A 4252  -0.517  17.304   7.524  0.1405  0.1091 -0.0947
  266loPI   C1B 4253   0.341  15.988   9.326  0.1845  0.1110 -0.1603
  266loPI   C2B 4254   0.224  15.827   8.829  0.0144 -0.1514  0.2611
  266loPI   C3B 4255   0.363  15.941   8.369  0.3324 -0.0330 -0.1708
  266loPI   C4B 4256   0.203  15.856   7.896  0.1077 -0.0951 -0.2992
  267loPI    C1 4257  18.040   0.269  10.103 -0.3761  0.4123  0.1201
  267loPI    C2 4258  18.102   0.318  10.495 -0.2886  0.1089  0.1465
  267loPI    C3 4259  18.180   0.617  10.242  0.3280  0.0800  0.2860
  267loPI   PO4 4260  17.903   0.078  10.100 -0.0962  0.3161  0.0575
  267loPI   GL1 4261  17.727   0.196   9.684 -0.0677  0.2003  0.0800
  267loPI   GL2 4262  17.700  -0.211   9.666  0.0470  0.1651 -0.3345
  267loPI   C1A 4263  17.893   0.120   9.319 -0.0341 -0.0557 -0.2469
  267loPI   C2A 4264  17.743   0.063   8.903 -0.0959 -0.2132  0.0796
  267loPI   C3A 4265  17.749   0.172   8.520  0.0920  0.2985  0.1769
  267loPI   C4A 4266  17.798  -0.058   8.184  0.0392 -0.1717  0.0814
  267loPI   C5A 4267  18.055   0.009   7.766 -0.1439 -0.0801 -0.2990
  267loPI   C6A 4268  18.370   0.167   7.536  0.1709 -0.1772  0.0544
  267loPI   C1B 4269  17.525  -0.315   9.264 -0.1150  0.1646  0.3222
  267loPI   C2B 4270  17.390  -0.571   8.920  0.0623 -0.0522  0.0111
  267loPI   C3B 4271  17.553  -0.742   8.608  0.3485  0.3426 -0.1340
  267loPI   C4B 4272  17.894  -0.970   8.491  0.0198 -0.0583 -0.1860
  268loPI    C1 4273  17.746  13.170  10.601 -0.2299 -0.0914  0.3641
  268loPI    C2 4274  17.661  12.815  10.436 -0.2268  0.0877 -0.0336
  268loPI    C3 4275  18.019  12.878  10.604 -0.1621 -0.0399 -0.1220
  268loPI   PO4 4276  17.662  13.400  10.485 -0.0003  0.2861 -0.2587
  268loPI   GL1 4277  17.414  13.459  10.123 -0.1938  0.1454  0.0904
  268loPI   GL2 4278  17.566  13.207  10.030  0.0492 -0.0165  0.0499
  268loPI   C1A 4279  17.482  13.657   9.693  0.1730  0.1301  0.0587
  268loPI   C2A 4280  17.318  13.816   9.394  0.1633  0.1035  0.0301
  268loPI   C3A 4281  17.226  13.641   9.081  0.1193  0.0695  0.1376
  268loPI   C4A 4282  17.073  13.585   8.712  0.1593 -0.1774  0.0772
  268loPI   C5A 4283  16.789  13.183   8.588  0.0031  0.1307 -0.0589
  268loPI   C6A 4284  16.534  12.894   8.459 -0.3071 -0.0720  0.0895
  268loPI   C1B 4285  17.439  13.141   9.729 -0.1017 -0.0479  0.0091
  268loPI   C2B 4286  17.406  13.254   9.302  0.2699 -0.3364 -0.0248
  268loPI   C3B 4287  17.280  13.158   8.809  0.1374 -0.0135 -0.2403
  268loPI   C4B 4288  17.111  12.834   8.503 -0.1101 -0.0857 -0.2047
  269loPI    C1 4289  16.811   1.523  10.389 -0.3044  0.2232  0.2016
  269loPI    C2 4290  16.633   1.202  10.548 -0.0063 -0.1110 -0.1208
  269loPI    C3 4291  16.827   1.460  10.784 -0.3939 -0.0684  0.1611
  269loPI   PO4 4292  16.945   1.335  10.161  0.3200  0.0819  0.1338
  269loPI   GL1 4293  17.131   1.476   9.811  0.0535 -0.2820 -0.1709
  269loPI   GL2 4294  17.352   1.603   9.681 -0.3161  0.0065 -0.0400
  269loPI   C1A 4295  17.047   1.216   9.396  0.0067  0.2642  0.0252
  269loPI   C2A 4296  17.195   1.251   9.077 -0.2469 -0.3623 -0.1391
  269loPI   C3A 4297  17.019   1.239   8.732 -0.1365  0.0246 -0.1491
  269loPI   C4A 4298  16.823   1.501   8.426  0.2031 -0.0337 -0.0954
  269loPI   C5A 4299  16.557   1.780   8.258 -0.0558  0.0389 -0.1586
  269loPI   C6A 4300  16.714   2.134   8.030  0.2362 -0.0896  0.1868
  269loPI   C1B 4301  17.343   1.723   9.252  0.0353  0.1856 -0.3570
  269loPI   C2B 4302  17.416   1.675   8.809  0.2022 -0.0747  0.0411
  269loPI   C3B 4303  17.301   1.608   8.425  0.0164 -0.0120  0.1913
  269loPI   C4B 4304  17.194   1.252   8.173  0.0081  0.1221  0.0998
  270loPI    C1 4305   7.700   7.591  10.918  0.2118  0.1098  0.0359
  270loPI    C2 4306   7.990   7.400  11.116  0.2430  0.0534 -0.0634
  270loPI    C3 4307   7.608   7.300  11.176  0.2557 -0.0006 -0.0720
  270loPI   PO4 4308   7.839   7.653  10.698 -0.1555  0.2409 -0.3516
  270loPI   GL1 4309   7.621   7.538  10.339 -0.0857  0.0453 -0.0953
  270loPI   GL2 4310   7.509   7.253  10.295  0.0284 -0.2985  0.0654
  270loPI   C1A 4311   7.405   7.828  10.092  0.1149 -0.1023  0.1267
  270loPI   C2A 4312   7.392   7.769   9.587  0.0849  0.2230  0.0766
  270loPI   C3A 4313   7.513   7.737   9.195 -0.2217 -0.0360  0.2411
  270loPI   C4A 4314   7.552   7.438   8.841  0.0594  0.0561  0.0820
  270loPI   C5A 4315   7.778   7.046   8.571  0.2033 -0.3799  0.1104
  270loPI   C6A 4316   7.995   6.803   8.286 -0.3051 -0.3348 -0.2977
  270loPI   C1B 4317   7.749   7.286   9.887  0.0936  0.0104  0.3077
  270loPI   C2B 4318   7.908   7.279   9.449 -0.0837 -0.1940 -0.1869
  270loPI   C3B 4319   7.976   7.073   9.072 -0.0478 -0.1086  0.2859
  270loPI   C4B 4320   8.284   7.159   8.640  0.2682  0.0547  0.0157
  271loPI    C1 4321   0.776  10.986  10.441  0.1069  0.0245 -0.0384
  271loPI    C2 4322   0.783  10.620  10.280 -0.0317  0.0001  0.0097
  271loPI    C3 4323   0.814  10.665  10.676 -0.3066  0.0214  0.0304
  271loPI   PO4 4324   0.538  11.073  10.280 -0.0314 -0.1035  0.3175
  271loPI   GL1 4325   0.235  11.309   9.914 -0.0372 -0.0815 -0.1706
  271loPI   GL2 4326   0.559  11.469   9.864 -0.0940  0.0333  0.1321
  271loPI   C1A 4327   0.013  11.379   9.537 -0.0502  0.3589  0.1155
  271loPI   C2A 4328  -0.065  11.263   9.055  0.2343 -0.1461  0.2386
  271loPI   C3A 4329   0.179  11.287   8.692  0.5550 -0.0061  0.0459
  271loPI   C4A 4330   0.205  11.398   8.294 -0.2637  0.5835  0.0998
  271loPI   C5A 4331   0.316  11.701   8.112 -0.0555  0.0456  0.1308
  271loPI   C6A 4332   0.555  12.124   8.163  0.0599  0.1473 -0.2465
  271loPI   C1B 4333   0.560  11.335   9.337 -0.2428 -0.2643 -0.1772
  271loPI   C2B 4334   0.529  11.438   8.980  0.3013  0.2178  0.2001
  271loPI   C3B 4335   0.681  11.271   8.649  0.2443 -0.1063  0.3100
  271loPI   C4B 4336   0.706  11.264   8.202 -0.3481 -0.1941  0.1732
  272loPI    C1 4337  10.388   1.347  10.534  0.0470 -0.0065  0.2962
  272loPI    C2 4338  10.233   1.707  10.452 -0.2411 -0.2431 -0.2507
  272loPI    C3 4339  10.163   1.535  10.806 -0.0954  0.2339  0.0183
  272loPI   PO4 4340  10.390   1.248  10.356  0.2508  0.2827  0.3161
  272loPI   GL1 4341  10.641   1.097   9.988  0.2682 -0.1826 -0.1012
  272loPI   GL2 4342  10.490   1.374   9.850  0.0491 -0.0733  0.2090
  272loPI   C1A 4343  10.579   1.040   9.512  0.1515  0.0934  0.1775
  272loPI   C2A 4344  10.657   1.055   9.081  0.2196 -0.3582  0.0291
  272loPI   C3A 4345  10.827   1.110   8.718  0.2152  0.1626 -0.3656
  272loPI   C4A 4346  10.993   1.192   8.556  0.1390  0.2362 -0.1745
  272loPI   C5A 4347  11.119   1.179   8.124 -0.1376 -0.3462  0.2339
  272loPI   C6A 4348  11.080   1.377   7.747  0.2419 -0.3906 -0.1592
  272loPI   C1B 4349  10.381   1.466   9.430 -0.4825  0.0212  0.1146
  272loPI   C2B 4350  10.434   1.503   8.979 -0.0582 -0.3016  0.4535
  272loPI   C3B 4351  10.516   1.346   8.466  0.0050 -0.0338  0.0648
  272loPI   C4B 4352  10.306   1.320   8.153  0.0851 -0.0020  0.0722
  273loPI    C1 4353   0.326  15.530  10.358 -0.0314 -0.0533  0.1066
  273loPI    C2 4354   0.073  15.737  10.588 -0.1752 -0.0535 -0.0499
  273loPI    C3 4355   0.376  15.536  10.754 -0.0899  0.2047  0.1117
  273loPI   PO4 4356   0.186  15.481  10.152 -0.0648 -0.2611  0.1038
  273loPI   GL1 4357   0.036  15.650   9.732  0.2165  0.0674 -0.3166
  273loPI   GL2 4358  -0.264  15.554   9.722 -0.1034  0.2274 -0.0852
  273loPI   C1A 4359   0.032  15.494   9.322 -0.1436 -0.0456  0.1861
  273loPI   C2A 4360  -0.205  15.365   8.949  0.1671  0.1132 -0.0953
  273loPI   C3A 4361  -0.311  15.454   8.555 -0.1482 -0.1982 -0.0754
  273loPI   C4A 4362  -0.532  15.241   8.129  0.0375 -0.0680  0.1990
  273loPI   C5A 4363  -0.618  15.081   7.769  0.0299 -0.0243 -0.1823
  273loPI   C6A 4364  -1.019  15.241   7.637  0.0186  0.4118 -0.0346
  273loPI   C1B 4365  -0.432  15.492   9.359 -0.0662  0.1741 -0.2039
  273loPI   C2B 4366  -0.817  15.608   9.138  0.0139 -0.0139 -0.1855
  273loPI   C3B 4367  -0.762  15.585   8.709  0.1326  0.0628  0.2256
  273loPI   C4B 4368  -0.625  15.713   8.282 -0.0018 -0.0542  0.1196
  274loPI    C1 4369  15.015  10.836  10.576 -0.0755 -0.1437 -0.0040
  274loPI    C2 4370  14.750  10.593  10.752  0.0933 -0.1658  0.2233
  274loPI    C3 4371  14.954  10.859  10.971  0.0009  0.0967 -0.0045
  274loPI   PO4 4372  14.877  10.952  10.328  0.2798  0.1734 -0.2583
  274loPI   GL1 4373  14.928  10.749   9.986  0.3799 -0.2400 -0.0816
  274loPI   GL2 4374  14.645  10.993   9.914 -0.2154 -0.1327 -0.0957
  274loPI   C1A 4375  14.798  10.558   9.675 -0.2002 -0.0742  0.2541
  274loPI   C2A 4376  14.970  10.507   9.228  0.0905 -0.0454  0.0760
  274loPI   C3A 4377  15.016  10.280   8.946  0.0187  0.0691 -0.0101
  274loPI   C4A 4378  14.864  10.145   8.535 -0.2740  0.1004  0.0363
  274loPI   C5A 4379  14.802  10.323   8.080  0.1134  0.2454 -0.0365
  274loPI   C6A 4380  14.462  10.396   7.690  0.3160  0.1003 -0.2073
  274loPI   C1B 4381  14.383  10.902   9.599  0.1949 -0.1593 -0.1163
  274loPI   C2B 4382  14.486  10.674   9.232 -0.2054 -0.2890  0.0587
  274loPI   C3B 4383  14.622  10.599   8.857  0.2091  0.2049 -0.1295
  274loPI   C4B 4384  14.439  10.451   8.501 -0.1563 -0.2206 -0.2278
  275loPI    C1 4385  17.246  16.593  10.074 -0.0006  0.0859  0.0029
  275loPI    C2 4386  17.464  16.562  10.408  0.0362  0.1389 -0.0161
  275loPI    C3 4387  17.452  16.258  10.148  0.1686  0.1740 -0.0640
  275loPI   PO4 4388  17.275  16.870  10.050 -0.4153  0.1913 -0.0315
  275loPI   GL1 4389  17.385  17.123   9.725  0.2634  0.1894 -0.1278
  275loPI   GL2 4390  17.471  16.923   9.597 -0.0278  0.1747  0.1875
  275loPI   C1A 4391  17.174  17.175   9.346 -0.3014 -0.0621 -0.0670
  275loPI   C2A 4392  17.072  17.119   8.905  0.3431  0.4902  0.0168
  275loPI   C3A 4393  17.324  17.055   8.483 -0.0560 -0.0457  0.1007
  275loPI   C4A 4394  17.642  16.726   8.320  0.0736 -0.2744  0.3307
  275loPI   C5A 4395  17.576  16.412   8.104  0.4616 -0.1569  0.1463
  275loPI   C6A 4396  17.917  16.212   7.889  0.2592 -0.3196  0.1601
  275loPI   C1B 4397  17.329  16.712   9.176  0.1216  0.3061 -0.3278
  275loPI   C2B 4398  17.210  16.608   8.715  0.3265  0.0751  0.0118
  275loPI   C3B 4399  16.979  16.708   8.378  0.3070  0.2386  0.2024
  275loPI   C4B 4400  16.753  16.456   8.163 -0.0903  0.0130 -0.0786
  276loPI    C1 4401  17.010  15.209  10.486  0.0456 -0.0382 -0.0022
  276loPI    C2 4402  17.022  15.165  10.883  0.0212 -0.1769 -0.0165
  276loPI    C3 4403  17.196  15.482  10.712 -0.0033 -0.0954  0.1077
  276loPI   PO4 4404  17.037  14.976  10.357 -0.1583 -0.2046  0.0063
  276loPI   GL1 4405  17.232  14.990   9.929  0.0880  0.0168  0.0555
  276loPI   GL2 4406  17.476  15.230   9.831 -0.4258 -0.0525 -0.2991
  276loPI   C1A 4407  17.050  14.952   9.483 -0.0403 -0.2537  0.0203
  276loPI   C2A 4408  16.966  14.735   9.077  0.1715  0.3376  0.0590
  276loPI   C3A 4409  16.930  14.442   8.852  0.3516  0.0016 -0.0730
  276loPI   C4A 4410  17.056  14.473   8.353 -0.0252  0.1232 -0.1788
  276loPI   C5A 4411  17.068  14.465   7.880 -0.2314  0.0616  0.1540
  276loPI   C6A 4412  17.295  14.368   7.525  0.2652  0.0864  0.2192
  276loPI   C1B 4413  17.498  15.121   9.394 -0.0461 -0.3255 -0.0824
  276loPI   C2B 4414  17.568  15.155   8.951 -0.0102  0.2089 -0.2207
  276loPI   C3B 4415  17.551  14.945   8.551  0.1581 -0.0799  0.0069
  276loPI   C4B 4416  17.380  14.800   8.099  0.0199  0.2160 -0.2081
  277loPI    C1 4417   7.378  15.884  10.491 -0.1203 -0.1267 -0.3786
  277loPI    C2 4418   7.719  15.688  10.568 -0.0461  0.0297 -0.3047
  277loPI    C3 4419   7.508  15.847  10.868 -0.2661 -0.1999 -0.3349
  277loPI   PO4 4420   7.441  16.052  10.236  0.0756 -0.2003 -0.0276
  277loPI   GL1 4421   7.761  16.372  10.043 -0.1463  0.0745  0.0275
  277loPI   GL2 4422   7.704  16.627  10.026  0.1256  0.0156 -0.1979
  277loPI   C1A 4423   7.753  16.337   9.619  0.0983  0.0221 -0.0051
  277loPI   C2A 4424   7.869  16.253   9.215 -0.0774 -0.0868 -0.1928
  277loPI   C3A 4425   7.793  16.237   8.788  0.2572  0.0773  0.0525
  277loPI   C4A 4426   7.808  16.056   8.496  0.1482  0.1779 -0.1311
  277loPI   C5A 4427   7.674  16.006   8.168 -0.4050 -0.0507  0.1122
  277loPI   C6A 4428   7.622  15.964   7.792 -0.0460  0.0640  0.1237
  277loPI   C1B 4429   7.698  16.854   9.685 -0.0418 -0.4414 -0.2744
  277loPI   C2B 4430   7.838  16.770   9.284 -0.2664  0.0836  0.1668
  277loPI   C3B 4431   8.020  16.890   8.893 -0.0251 -0.0653 -0.1031
  277loPI   C4B 4432   8.154  17.154   8.492 -0.0761 -0.0663 -0.0974
  278loPI    C1 4433  15.451  10.981  10.448  0.0552  0.1935 -0.1081
  278loPI    C2 4434  15.266  11.335  10.468 -0.0995  0.1067  0.0197
  278loPI    C3 4435  15.352  11.134  10.804 -0.1268 -0.0354 -0.0576
  278loPI   PO4 4436  15.659  10.874  10.349  0.5596 -0.2108  0.1791
  278loPI   GL1 4437  15.694  10.841   9.885  0.1794 -0.0365  0.0943
  278loPI   GL2 4438  15.458  10.570   9.962  0.0915 -0.0137  0.1290
  278loPI   C1A 4439  15.545  10.646   9.478 -0.3705  0.0512  0.1078
  278loPI   C2A 4440  15.398  10.648   9.068 -0.0185 -0.1154  0.0067
  278loPI   C3A 4441  15.187  10.756   8.707 -0.5228  0.4864 -0.0968
  278loPI   C4A 4442  15.186  10.563   8.444 -0.6885  0.0987  0.0009
  278loPI   C5A 4443  15.235  10.611   8.028  0.0876 -0.1079  0.0375
  278loPI   C6A 4444  15.284  10.753   7.702 -0.1459 -0.3024 -0.2530
  278loPI   C1B 4445  15.249  10.248   9.677  0.0610 -0.4103 -0.3110
  278loPI   C2B 4446  15.042  10.057   9.404 -0.0031 -0.0892 -0.0553
  278loPI   C3B 4447  14.941   9.776   9.013  0.0908  0.3251  0.2542
  278loPI   C4B 4448  15.139   9.542   8.827 -0.0065  0.1186  0.0950
  279loPI    C1 4449  10.803  14.274  10.881 -0.0675  0.0286  0.0679
  279loPI    C2 4450  10.489  14.200  11.118 -0.1927 -0.0281 -0.1136
  279loPI    C3 4451  10.826  14.350  11.273 -0.3027  0.0163  0.0855
  279loPI   PO4 4452  10.630  14.337  10.644  0.1673  0.1896  0.0472
  279loPI   GL1 4453  10.586  14.111  10.238  0.2182 -0.0845 -0.4429
  279loPI   GL2 4454  10.279  13.851  10.190  0.2354  0.0549  0.0649
  279loPI   C1A 4455  10.786  13.921   9.879  0.3761  0.0805  0.3169
  279loPI   C2A 4456  10.973  13.783   9.553 -0.0513 -0.2631 -0.0701
  279loPI   C3A 4457  11.194  13.802   9.155  0.0142  0.1435  0.0666
  279loPI   C4A 4458  11.343  13.543   8.847  0.0391  0.6653  0.0434
  279loPI   C5A 4459  11.216  13.441   8.391 -0.4276 -0.0902 -0.0777
  279loPI   C6A 4460  11.120  13.200   8.032 -0.2752 -0.1238  0.3371
  279loPI   C1B 4461  10.284  14.051   9.762 -0.0339  0.0531 -0.2597
  279loPI   C2B 4462  10.097  14.070   9.342  0.0859  0.0459  0.3063
  279loPI   C3B 4463  10.373  13.956   8.935 -0.0104  0.2915 -0.1813
  279loPI   C4B 4464  10.198  13.867   8.481  0.0643 -0.1143  0.1201
  280loPI    C1 4465   4.677  14.104  10.136  0.1280 -0.1784  0.2622
  280loPI    C2 4466   4.540  14.280  10.468 -0.0816  0.2810 -0.0575
  280loPI    C3 4467   4.380  13.935  10.344 -0.1149  0.1921  0.2256
  280loPI   PO4 4468   4.649  14.240   9.865  0.1817  0.2794 -0.0775
  280loPI   GL1 4469   4.719  14.530   9.488  0.0189  0.3172  0.1260
  280loPI   GL2 4470   4.341  14.367   9.512  0.0101 -0.2191 -0.0515
  280loPI   C1A 4471   4.886  14.481   9.057  0.0865 -0.0820  0.0812
  280loPI   C2A 4472   4.856  14.374   8.604 -0.2468 -0.0254  0.2366
  280loPI   C3A 4473   4.943  14.371   8.172  0.0068 -0.0320  0.1925
  280loPI   C4A 4474   4.693  14.162   7.860 -0.0983 -0.2040 -0.1379
  280loPI   C5A 4475   4.502  13.921   7.512 -0.0249 -0.0616 -0.2852
  280loPI   C6A 4476   4.103  13.843   7.454  0.1973  0.1942 -0.3446
  280loPI   C1B 4477   4.460  14.206   9.144  0.2606 -0.0932  0.2032
  280loPI   C2B 4478   4.403  14.014   8.741 -0.0096 -0.2571  0.1747
  280loPI   C3B 4479   4.274  13.811   8.382  0.1195 -0.2768 -0.0439
  280loPI   C4B 4480   4.196  13.936   7.994 -0.4183  0.1510  0.0693
  281loPI    C1 4481   5.668   0.584  10.622 -0.2829 -0.2418 -0.1376
  281loPI    C2 4482   5.426   0.902  10.652  0.0530  0.0107 -0.0472
  281loPI    C3 4483   5.803   0.949  10.528  0.1087 -0.3541 -0.0267
  281loPI   PO4 4484   5.609   0.396  10.412 -0.3383 -0.1119 -0.0356
  281loPI   GL1 4485   5.664   0.437  10.088 -0.1634  0.0764 -0.3135
  281loPI   GL2 4486   5.592   0.790  10.119  0.2422  0.2872 -0.3657
  281loPI   C1A 4487   5.619   0.180   9.691  0.3828 -0.0696  0.3001
  281loPI   C2A 4488   5.516   0.214   9.342  0.0331 -0.3090 -0.0162
  281loPI   C3A 4489   5.212   0.103   9.088 -0.1379 -0.2970 -0.3866
  281loPI   C4A 4490   5.025   0.128   8.729  0.0552  0.1522 -0.1946
  281loPI   C5A 4491   4.597   0.194   8.532  0.1415 -0.0053  0.1356
  281loPI   C6A 4492   4.348   0.657   8.516  0.0256  0.1192  0.1433
  281loPI   C1B 4493   5.899   0.806   9.805  0.2695  0.4764  0.1006
  281loPI   C2B 4494   5.775   0.626   9.511  0.0695 -0.0362  0.1799
  281loPI   C3B 4495   5.702   0.702   9.159  0.2877 -0.4563 -0.0134
  281loPI   C4B 4496   5.635   1.082   8.999  0.0619  0.1605 -0.2333
  282loPI    C1 4497  17.366   0.923  10.233  0.0568 -0.2802  0.2133
  282loPI    C2 4498  17.010   0.847  10.399 -0.1021 -0.0991 -0.0369
  282loPI    C3 4499  17.237   1.145  10.539 -0.2513  0.0761 -0.1645
  282loPI   PO4 4500  17.285   0.943   9.976  0.0428 -0.1972 -0.1114
  282loPI   GL1 4501  17.273   0.735   9.602 -0.0998  0.0536 -0.0280
  282loPI   GL2 4502  17.352   0.488   9.673 -0.2772 -0.2934 -0.2953
  282loPI   C1A 4503  17.119   0.753   9.201  0.0400 -0.2947  0.0555
  282loPI   C2A 4504  17.181   0.764   8.801 -0.1624  0.0228  0.0143
  282loPI   C3A 4505  17.074   0.808   8.414 -0.0474 -0.0699  0.1562
  282loPI   C4A 4506  16.815   0.857   8.161 -0.1703 -0.0789  0.4029
  282loPI   C5A 4507  16.416   0.883   7.979  0.2525 -0.0374  0.0841
  282loPI   C6A 4508  16.190   0.705   7.635 -0.0992 -0.3180  0.0688
  282loPI   C1B 4509  17.410   0.374   9.320  0.4046  0.0237  0.6660
  282loPI   C2B 4510  17.321   0.262   8.901 -0.0620  0.0247 -0.2900
  282loPI   C3B 4511  17.274   0.230   8.394  0.0281 -0.0725 -0.2919
  282loPI   C4B 4512  17.389   0.351   8.000 -0.0896 -0.1369  0.0660
  283loPI    C1 4513  16.612  11.850  10.707  0.0214  0.1286 -0.0936
  283loPI    C2 4514  16.390  11.541  10.832 -0.1132  0.2483 -0.0343
  283loPI    C3 4515  16.539  11.801  11.098  0.3398  0.0105 -0.0455
  283loPI   PO4 4516  16.443  12.073  10.475  0.0181  0.2627 -0.0655
  283loPI   GL1 4517  16.350  11.969  10.015  0.0546  0.1032  0.1511
  283loPI   GL2 4518  16.462  12.257  10.013 -0.0643  0.0754 -0.3550
  283loPI   C1A 4519  16.336  12.027   9.585 -0.2007 -0.0007  0.0038
  283loPI   C2A 4520  16.097  12.082   9.217 -0.1427 -0.0297 -0.2355
  283loPI   C3A 4521  16.118  12.037   8.821  0.3894  0.0946  0.1224
  283loPI   C4A 4522  16.045  12.135   8.411  0.1550  0.1688  0.0459
  283loPI   C5A 4523  16.067  12.053   7.977  0.0129 -0.0171  0.3453
  283loPI   C6A 4524  15.798  12.088   7.652 -0.1103 -0.3502  0.0358
  283loPI   C1B 4525  16.260  12.720   9.952 -0.0395  0.1347 -0.1213
  283loPI   C2B 4526  15.997  12.900   9.614 -0.0967 -0.0911 -0.1849
  283loPI   C3B 4527  15.877  12.570   9.191  0.2035 -0.1457  0.0640
  283loPI   C4B 4528  15.870  12.456   8.720  0.2814  0.0724  0.1191
  284loPI    C1 4529   6.797   5.828  11.179 -0.0237  0.3446 -0.0782
  284loPI    C2 4530   6.793   5.920  11.568 -0.1674 -0.4188  0.1176
  284loPI    C3 4531   7.124   5.769  11.402 -0.1269 -0.1556 -0.0453
  284loPI   PO4 4532   6.503   5.618  11.159 -0.2043 -0.2827 -0.1868
  284loPI   GL1 4533   6.311   5.302  10.805  0.0822 -0.0313  0.0934
  284loPI   GL2 4534   6.123   5.123  10.621  0.0124  0.3815 -0.3866
  284loPI   C1A 4535   6.408   5.572  10.287  0.3125 -0.2905 -0.0974
  284loPI   C2A 4536   6.640   5.570   9.864  0.1322  0.0275 -0.1345
  284loPI   C3A 4537   6.696   5.672   9.454 -0.0346 -0.0703 -0.0641
  284loPI   C4A 4538   6.982   5.548   9.149 -0.0258  0.2837  0.1731
  284loPI   C5A 4539   7.115   5.481   8.750 -0.2040 -0.0375 -0.0341
  284loPI   C6A 4540   7.360   5.593   8.356  0.0294  0.1214  0.1750
  284loPI   C1B 4541   5.949   4.924  10.306  0.1643 -0.0098  0.0009
  284loPI   C2B 4542   5.846   4.979   9.834 -0.1289  0.1917  0.0219
  284loPI   C3B 4543   5.726   5.089   9.454  0.0760 -0.0223 -0.1764
  284loPI   C4B 4544   5.897   5.322   9.133 -0.1731  0.1132 -0.0004
  285loPI    C1 4545   6.222   7.002  11.110 -0.1555 -0.0123 -0.1101
  285loPI    C2 4546   6.189   7.388  11.012 -0.1972  0.0403  0.1053
  285loPI    C3 4547   6.176   7.278  11.396 -0.0410 -0.1613  0.0544
  285loPI   PO4 4548   6.407   6.975  10.856 -0.1332  0.3026 -0.1091
  285loPI   GL1 4549   6.480   6.688  10.397 -0.0668  0.0530  0.1853
  285loPI   GL2 4550   6.582   6.919  10.339  0.2480  0.0047  0.0760
  285loPI   C1A 4551   6.287   6.756   9.977 -0.0314  0.0569  0.0350
  285loPI   C2A 4552   6.154   6.838   9.676 -0.2728  0.3365  0.0588
  285loPI   C3A 4553   5.948   7.023   9.318 -0.0246  0.4133  0.1912
  285loPI   C4A 4554   5.943   7.389   9.258  0.1798 -0.1167  0.0105
  285loPI   C5A 4555   6.019   7.666   8.990  0.3214 -0.0367  0.1096
  285loPI   C6A 4556   6.259   7.671   8.658  0.2765  0.0237 -0.3116
  285loPI   C1B 4557   6.836   6.998   9.992 -0.2564  0.0418 -0.1346
  285loPI   C2B 4558   6.878   7.093   9.600 -0.2096 -0.0484 -0.2085
  285loPI   C3B 4559   6.895   7.103   9.205 -0.0164  0.0249 -0.2257
  285loPI   C4B 4560   7.104   7.168   8.979  0.2257 -0.0503  0.2378
  286loPI    C1 4561   6.787  12.614  10.836 -0.0574  0.1515 -0.2222
  286loPI    C2 4562   6.963  12.800  11.143  0.1186 -0.0714 -0.1858
  286loPI    C3 4563   6.643  12.964  10.968 -0.0315  0.0206  0.1658
  286loPI   PO4 4564   6.948  12.313  10.689  0.0576  0.0565  0.2122
  286loPI   GL1 4565   6.985  12.317  10.330  0.1413  0.0037  0.1354
  286loPI   GL2 4566   6.839  12.373  10.089 -0.2028  0.0241 -0.3702
  286loPI   C1A 4567   7.115  11.939  10.047 -0.0896  0.1912 -0.1387
  286loPI   C2A 4568   7.166  11.777   9.679 -0.0742  0.2385 -0.2467
  286loPI   C3A 4569   7.239  11.722   9.213  0.0512 -0.0057  0.0504
  286loPI   C4A 4570   7.315  11.519   8.865 -0.4098 -0.2419  0.0795
  286loPI   C5A 4571   7.520  11.327   8.538 -0.2874 -0.3962  0.3333
  286loPI   C6A 4572   7.859  11.157   8.272 -0.1018  0.0505 -0.0018
  286loPI   C1B 4573   6.790  12.179   9.657 -0.1190  0.1026  0.3331
  286loPI   C2B 4574   6.766  11.915   9.385 -0.2760 -0.0347 -0.1043
  286loPI   C3B 4575   6.454  11.723   9.101 -0.2185 -0.0968 -0.1583
  286loPI   C4B 4576   6.396  11.659   8.598 -0.2533  0.0348 -0.3229
  287loPI    C1 4577   6.175  14.422  10.399 -0.1509  0.1804 -0.0686
  287loPI    C2 4578   6.072  14.096  10.608  0.0043 -0.0016 -0.2718
  287loPI    C3 4579   6.313  14.370  10.771 -0.1354  0.0181 -0.0962
  287loPI   PO4 4580   6.085  14.265  10.135  0.0603 -0.0573  0.2491
  287loPI   GL1 4581   6.236  14.279   9.776  0.1873  0.3378  0.1585
  287loPI   GL2 4582   6.066  13.942   9.745 -0.2643 -0.2196 -0.1492
  287loPI   C1A 4583   5.940  14.364   9.464  0.1606 -0.2127 -0.0550
  287loPI   C2A 4584   5.836  14.331   9.119 -0.1722  0.1344 -0.0468
  287loPI   C3A 4585   5.889  14.473   8.762  0.0083 -0.4125  0.0970
  287loPI   C4A 4586   5.798  14.250   8.361 -0.0189 -0.1518  0.0928
  287loPI   C5A 4587   5.531  14.172   7.963  0.2418 -0.1654  0.1935
  287loPI   C6A 4588   5.285  13.998   7.613  0.3634  0.3720  0.0690
  287loPI   C1B 4589   6.148  13.952   9.324  0.0502  0.2056  0.0989
  287loPI   C2B 4590   6.203  14.028   8.905  0.3797  0.0093  0.3124
  287loPI   C3B 4591   5.876  13.861   8.705 -0.0471 -0.2629 -0.0691
  287loPI   C4B 4592   5.744  13.586   8.432  0.3784 -0.0470  0.1935
  288loPI    C1 4593  11.722   4.381  10.552  0.0033  0.1410 -0.1763
  288loPI    C2 4594  11.873   4.014  10.499  0.0481  0.1222  0.0683
  288loPI    C3 4595  11.590   4.076  10.775 -0.0611  0.2464 -0.0692
  288loPI   PO4 4596  11.688   4.495  10.323 -0.2014  0.1512  0.1358
  288loPI   GL1 4597  11.584   4.388   9.921 -0.2215 -0.1045  0.2577
  288loPI   GL2 4598  11.154   4.327   9.921  0.2135  0.0151 -0.0896
  288loPI   C1A 4599  11.504   4.328   9.394 -0.0829  0.2871  0.0417
  288loPI   C2A 4600  11.643   4.387   8.883 -0.2733  0.1581  0.2752
  288loPI   C3A 4601  11.895   4.579   8.734  0.0510 -0.1917 -0.1097
  288loPI   C4A 4602  11.876   4.611   8.254  0.2531  0.1781  0.0060
  288loPI   C5A 4603  11.966   4.952   7.904 -0.1710 -0.2948 -0.3259
  288loPI   C6A 4604  11.856   5.266   7.619 -0.0834  0.0511 -0.0696
  288loPI   C1B 4605  10.953   4.289   9.486  0.1979  0.1199 -0.0682
  288loPI   C2B 4606  11.023   4.195   9.033 -0.5080 -0.3754  0.0647
  288loPI   C3B 4607  11.236   4.079   8.696 -0.0153 -0.2073 -0.1509
  288loPI   C4B 4608  11.297   3.928   8.338 -0.2483 -0.0814 -0.0526
  289loPI    C1 4609   6.398   9.923  10.754  0.1052  0.0342 -0.2818
  289loPI    C2 4610   6.242  10.203  10.993  0.1374 -0.1257 -0.0691
  289loPI    C3 4611   6.124   9.823  11.028  0.3125 -0.1887 -0.1517
  289loPI   PO4 4612   6.341  10.001  10.510 -0.2235 -0.1444 -0.2717
  289loPI   GL1 4613   6.470  10.243  10.205 -0.0294 -0.0707  0.1173
  289loPI   GL2 4614   6.438  10.577  10.006 -0.0456 -0.4663 -0.0679
  289loPI   C1A 4615   6.712  10.136   9.849 -0.0026  0.1419 -0.1252
  289loPI   C2A 4616   6.935  10.157   9.434 -0.1850 -0.0841  0.0415
  289loPI   C3A 4617   7.186  10.108   8.950 -0.0581  0.4939  0.3091
  289loPI   C4A 4618   7.423  10.122   8.603  0.0227 -0.1325  0.3290
  289loPI   C5A 4619   7.234  10.232   8.140  0.0659 -0.0857 -0.2135
  289loPI   C6A 4620   7.119  10.504   7.786 -0.1472  0.0192  0.0820
  289loPI   C1B 4621   6.511  10.488   9.540 -0.0512  0.0711  0.1775
  289loPI   C2B 4622   6.605  10.419   9.096 -0.0970 -0.0393 -0.2760
  289loPI   C3B 4623   6.659  10.058   8.958  0.0771 -0.0154 -0.4009
  289loPI   C4B 4624   6.561   9.812   8.744  0.1847  0.4138 -0.1976
  290loPI    C1 4625  10.210  16.837  10.877 -0.1594  0.0623 -0.0758
  290loPI    C2 4626  10.014  17.185  10.898  0.1185  0.2032  0.2814
  290loPI    C3 4627  10.084  16.975  11.231  0.0532 -0.1414  0.0822
  290loPI   PO4 4628  10.359  16.896  10.652 -0.4281  0.1576  0.1505
  290loPI   GL1 4629  10.548  16.797  10.180 -0.0497  0.0435  0.0636
  290loPI   GL2 4630  10.714  16.565  10.018 -0.2480 -0.0196 -0.1394
  290loPI   C1A 4631  10.356  16.859   9.739 -0.3074 -0.0546 -0.4604
  290loPI   C2A 4632  10.393  16.779   9.225 -0.1168 -0.0500 -0.0456
  290loPI   C3A 4633  10.368  16.847   8.841 -0.1338 -0.1977  0.3985
  290loPI   C4A 4634  10.566  16.785   8.484 -0.0933  0.2214 -0.0176
  290loPI   C5A 4635  10.576  16.585   8.132  0.0986  0.2082  0.0275
  290loPI   C6A 4636  10.298  16.428   7.855  0.1129  0.0920 -0.0987
  290loPI   C1B 4637  10.684  16.487   9.656  0.2078 -0.1695 -0.0379
  290loPI   C2B 4638  10.591  16.134   9.350 -0.1596  0.0218  0.0469
  290loPI   C3B 4639  10.476  15.970   8.957 -0.2587 -0.1229 -0.1086
  290loPI   C4B 4640  10.519  15.755   8.603  0.2335 -0.0903 -0.0354
  291loPI    C1 4641   5.787   6.035  11.024 -0.0203  0.4599 -0.2588
  291loPI    C2 4642   5.957   6.268  11.301  0.0051  0.2324 -0.0799
  291loPI    C3 4643   6.185   6.032  11.071 -0.0386  0.2093 -0.0998
  291loPI   PO4 4644   5.687   6.174  10.830 -0.0407  0.0638 -0.2954
  291loPI   GL1 4645   5.612   6.200  10.403 -0.1780 -0.1915  0.0840
  291loPI   GL2 4646   5.806   6.005  10.386 -0.2612  0.0453 -0.0891
  291loPI   C1A 4647   5.858   6.368  10.073 -0.1882 -0.2256  0.0595
  291loPI   C2A 4648   6.042   6.351   9.651  0.2601 -0.0643 -0.1460
  291loPI   C3A 4649   6.096   6.521   9.271 -0.0024 -0.0937  0.1198
  291loPI   C4A 4650   6.052   6.717   8.931  0.0056  0.0843 -0.1152
  291loPI   C5A 4651   5.806   6.731   8.620  0.1485  0.0209  0.1982
  291loPI   C6A 4652   5.705   6.810   8.240 -0.1903  0.0740 -0.0111
  291loPI   C1B 4653   5.896   5.539  10.335 -0.3048  0.0102 -0.1007
  291loPI   C2B 4654   6.063   5.415   9.906  0.1367 -0.1622  0.1079
  291loPI   C3B 4655   6.254   5.465   9.461  0.0173 -0.2083  0.0755
  291loPI   C4B 4656   6.479   5.396   9.069 -0.0505 -0.0898 -0.2826
  292loPI    C1 4657   9.217   1.784  10.671  0.1975 -0.2348  0.0778
  292loPI    C2 4658   8.946   2.026  10.836  0.2738 -0.0692 -0.0375
  292loPI    C3 4659   8.856   1.642  10.769  0.1350 -0.0617  0.1002
  292loPI   PO4 4660   9.194   1.936  10.411 -0.3046  0.0036  0.1352
  292loPI   GL1 4661   8.972   2.056  10.107 -0.1129 -0.1920  0.2474
  292loPI   GL2 4662   8.986   2.338  10.238 -0.2822  0.1294  0.2895
  292loPI   C1A 4663   9.184   2.186   9.802  0.1622 -0.1659 -0.0452
  292loPI   C2A 4664   9.186   2.126   9.358  0.4382  0.0705 -0.1498
  292loPI   C3A 4665   9.114   2.227   8.979  0.0200  0.1030  0.4837
  292loPI   C4A 4666   8.836   2.199   8.592 -0.2775  0.0556 -0.2130
  292loPI   C5A 4667   8.927   2.437   8.230 -0.0200 -0.0320  0.1740
  292loPI   C6A 4668   8.664   2.841   8.172  0.3104 -0.0815  0.1652
  292loPI   C1B 4669   9.004   2.636   9.858  0.1419  0.1538  0.1292
  292loPI   C2B 4670   9.181   2.645   9.501  0.0699 -0.0871 -0.1382
  292loPI   C3B 4671   9.239   2.738   9.097  0.0312  0.1188  0.0255
  292loPI   C4B 4672   9.028   2.675   8.771 -0.2396 -0.2872 -0.0144
  293loPI    C1 4673  14.759   7.066  11.108  0.0678  0.2263  0.0570
  293loPI    C2 4674  15.032   6.840  10.921 -0.1108 -0.0971  0.1784
  293loPI    C3 4675  15.130   7.039  11.254  0.0411 -0.0147  0.0856
  293loPI   PO4 4676  14.599   7.120  10.857  0.2993  0.1814 -0.2233
  293loPI   GL1 4677  14.786   7.053  10.393 -0.1062  0.1181  0.1292
  293loPI   GL2 4678  15.058   7.077  10.461 -0.0210 -0.1604 -0.0298
  293loPI   C1A 4679  14.884   7.205   9.962 -0.1073 -0.0492 -0.3848
  293loPI   C2A 4680  14.853   7.494   9.659  0.0976  0.2552  0.0156
  293loPI   C3A 4681  14.725   7.668   9.208 -0.0694  0.0616  0.0974
  293loPI   C4A 4682  14.431   7.780   8.849 -0.1743 -0.0920 -0.0065
  293loPI   C5A 4683  14.255   7.818   8.372 -0.2001 -0.0117 -0.0814
  293loPI   C6A 4684  13.943   7.833   8.067  0.0216 -0.3158 -0.0517
  293loPI   C1B 4685  15.343   7.153  10.093  0.1431 -0.1491  0.0268
  293loPI   C2B 4686  15.573   6.951   9.808  0.0883 -0.2332 -0.0324
  293loPI   C3B 4687  15.577   6.775   9.438  0.2159  0.1158  0.2819
  293loPI   C4B 4688  15.888   6.951   9.171 -0.2765  0.1684  0.0985
  294loPI    C1 4689  14.483   5.623  10.823 -0.0497  0.3281 -0.2206
  294loPI    C2 4690  14.228   5.493  11.102 -0.0612 -0.0637 -0.4075
  294loPI    C3 4691  14.525   5.742  11.203 -0.0697 -0.1932 -0.0480
  294loPI   PO4 4692  14.450   5.530  10.661 -0.0208  0.3634 -0.0477
  294loPI   GL1 4693  14.587   5.540  10.143  0.2229 -0.0931  0.0996
  294loPI   GL2 4694  14.922   5.422   9.995 -0.2051  0.2959 -0.2756
  294loPI   C1A 4695  14.314   5.547   9.775 -0.0841  0.0601 -0.1840
  294loPI   C2A 4696  14.352   5.684   9.365 -0.1054 -0.0421 -0.1529
  294loPI   C3A 4697  14.239   5.912   8.999 -0.4385  0.3907 -0.1223
  294loPI   C4A 4698  14.228   6.220   8.791 -0.1140 -0.3151  0.1034
  294loPI   C5A 4699  13.940   6.509   8.739 -0.0549 -0.0702  0.0280
  294loPI   C6A 4700  14.049   6.898   8.567 -0.0044  0.0986  0.0817
  294loPI   C1B 4701  14.864   5.510   9.571 -0.0271  0.1489  0.1801
  294loPI   C2B 4702  14.764   5.564   9.197 -0.1527  0.2001  0.3149
  294loPI   C3B 4703  14.643   5.586   8.855  0.1676  0.2883 -0.2761
  294loPI   C4B 4704  14.385   5.347   8.523  0.4779 -0.6278 -0.1385
  295loPI    C1 4705  16.352  13.443  10.719 -0.1756 -0.1211  0.1167
  295loPI    C2 4706  16.472  13.713  10.989 -0.1354 -0.0615  0.0395
  295loPI    C3 4707  16.701  13.395  10.908 -0.1444 -0.0758  0.0703
  295loPI   PO4 4708  16.326  13.601  10.508 -0.3285  0.4401  0.2588
  295loPI   GL1 4709  16.715  13.809  10.191  0.0833 -0.1243 -0.1617
  295loPI   GL2 4710  16.513  13.541  10.028 -0.2053 -0.0869  0.0698
  295loPI   C1A 4711  16.757  13.913   9.750 -0.0844 -0.0668 -0.1818
  295loPI   C2A 4712  16.869  13.972   9.420 -0.0522  0.3843 -0.0281
  295loPI   C3A 4713  16.758  13.983   9.024 -0.1351  0.1383  0.1406
  295loPI   C4A 4714  16.658  13.892   8.657 -0.0020  0.2963  0.1782
  295loPI   C5A 4715  16.448  13.730   8.406 -0.0162  0.1434  0.1957
  295loPI   C6A 4716  16.548  13.262   8.117  0.1960 -0.0091  0.2139
  295loPI   C1B 4717  16.275  13.761   9.636 -0.1122  0.1302 -0.1246
  295loPI   C2B 4718  16.266  13.672   9.213 -0.2085 -0.0783  0.4140
  295loPI   C3B 4719  16.165  13.906   8.965  0.1290  0.2440  0.0863
  295loPI   C4B 4720  16.180  14.140   8.609  0.0531 -0.1016  0.2252
  296loPI    C1 4721  14.075  17.122  10.839 -0.1675 -0.0275 -0.0023
  296loPI    C2 4722  13.675  17.132  10.828 -0.1738  0.0757  0.2474
  296loPI    C3 4723  13.862  16.886  11.082 -0.0770  0.0007  0.1052
  296loPI   PO4 4724  14.134  17.076  10.567  0.0892  0.0066  0.1226
  296loPI   GL1 4725  14.059  16.949  10.080  0.1457 -0.0642  0.1044
  296loPI   GL2 4726  13.730  17.147   9.937  0.1732 -0.4811  0.3498
  296loPI   C1A 4727  14.244  16.942   9.740 -0.1025  0.2144  0.0879
  296loPI   C2A 4728  14.154  16.828   9.277  0.1101  0.0835 -0.0071
  296loPI   C3A 4729  14.201  16.981   8.758  0.2081  0.1061  0.2820
  296loPI   C4A 4730  14.002  17.332   8.548  0.3311 -0.1691 -0.0586
  296loPI   C5A 4731  14.140  17.593   8.253  0.1168  0.1347 -0.1317
  296loPI   C6A 4732  14.105  17.643   7.861  0.1026 -0.2296 -0.3833
  296loPI   C1B 4733  13.551  17.367   9.665 -0.1814  0.3465  0.1247
  296loPI   C2B 4734  13.366  17.319   9.218 -0.2571  0.0181 -0.1073
  296loPI   C3B 4735  13.135  17.141   8.850  0.0754  0.1750 -0.1579
  296loPI   C4B 4736  13.129  17.143   8.491 -0.0199  0.3914  0.1267
  297loPI    C1 4737   0.976  18.096  10.159 -0.1364 -0.0889  0.1044
  297loPI    C2 4738   0.814  18.307  10.457  0.0229 -0.1626  0.2449
  297loPI    C3 4739   1.193  18.375  10.347 -0.0776 -0.0392 -0.0352
  297loPI   PO4 4740   0.931  18.146   9.890  0.0731 -0.0458  0.1296
  297loPI   GL1 4741   1.031  18.173   9.447 -0.1635  0.2329 -0.0644
  297loPI   GL2 4742   1.270  17.955   9.492  0.1069 -0.0522 -0.1019
  297loPI   C1A 4743   1.260  18.210   9.038 -0.3316 -0.0258 -0.3046
  297loPI   C2A 4744   1.514  18.164   8.661 -0.0398  0.0585 -0.0398
  297loPI   C3A 4745   1.638  18.136   8.130 -0.0877 -0.0896 -0.1383
  297loPI   C4A 4746   1.384  18.131   7.719  0.2256 -0.4459 -0.2490
  297loPI   C5A 4747   0.968  18.045   7.600  0.2437 -0.0345  0.0932
  297loPI   C6A 4748   0.500  18.123   7.332 -0.1283 -0.3462 -0.2239
  297loPI   C1B 4749   1.298  17.435   9.376  0.0929 -0.2405  0.0105
  297loPI   C2B 4750   1.045  17.225   9.031  0.1368  0.2460 -0.2969
  297loPI   C3B 4751   1.116  17.133   8.595  0.2152 -0.1622  0.0115
  297loPI   C4B 4752   1.172  17.329   8.246 -0.0360 -0.0089  0.1410
  298loPI    C1 4753   4.024   1.342  10.472 -0.0719  0.0815 -0.1954
  298loPI    C2 4754   4.049   1.653  10.221 -0.3458  0.2061 -0.0718
  298loPI    C3 4755   3.844   1.687  10.563 -0.0873 -0.0040  0.1088
  298loPI   PO4 4756   4.035   1.105  10.187  0.2831  0.0162 -0.4243
  298loPI   GL1 4757   4.254   0.923   9.817 -0.1741 -0.2931  0.2041
  298loPI   GL2 4758   4.067   0.672   9.766 -0.2834 -0.1127  0.1010
  298loPI   C1A 4759   4.443   0.924   9.469  0.0294  0.2390  0.1384
  298loPI   C2A 4760   4.423   0.657   9.126  0.1564  0.0316 -0.0349
  298loPI   C3A 4761   4.685   0.476   8.957 -0.1720 -0.2956 -0.0170
  298loPI   C4A 4762   4.904   0.636   8.577  0.3415  0.0376  0.1005
  298loPI   C5A 4763   5.172   0.360   8.331  0.0248  0.1170 -0.2342
  298loPI   C6A 4764   5.436   0.081   8.042 -0.3546 -0.3792 -0.0381
  298loPI   C1B 4765   3.982   0.676   9.343 -0.0767 -0.0739  0.0235
  298loPI   C2B 4766   3.911   0.679   8.954 -0.0231  0.0513 -0.1528
  298loPI   C3B 4767   3.853   0.575   8.453  0.0844 -0.1907 -0.2196
  298loPI   C4B 4768   3.609   0.909   8.189 -0.1874  0.0785 -0.3799
  299loPI    C1 4769   3.121   2.561  10.363 -0.1484 -0.2024 -0.0632
  299loPI    C2 4770   3.514   2.618  10.319 -0.1444 -0.0528  0.1492
  299loPI    C3 4771   3.372   2.454  10.655 -0.2630 -0.1182  0.0678
  299loPI   PO4 4772   3.090   2.336  10.131  0.0176 -0.3405 -0.3034
  299loPI   GL1 4773   3.090   1.904   9.908 -0.1105  0.0604 -0.3177
  299loPI   GL2 4774   3.125   1.556   9.884 -0.0281  0.0137 -0.1035
  299loPI   C1A 4775   2.980   1.938   9.495 -0.0392  0.1804  0.1382
  299loPI   C2A 4776   3.141   2.008   9.092 -0.2010  0.2627  0.2582
  299loPI   C3A 4777   3.248   2.157   8.672  0.0235 -0.1108  0.0374
  299loPI   C4A 4778   3.408   2.013   8.304  0.1446  0.1806  0.1014
  299loPI   C5A 4779   3.772   2.139   8.031 -0.2248  0.0357  0.0204
  299loPI   C6A 4780   4.127   2.347   7.685  0.2680 -0.4265  0.0535
  299loPI   C1B 4781   3.436   1.682   9.543 -0.1533 -0.1225  0.2539
  299loPI   C2B 4782   3.563   1.695   9.186  0.0236 -0.0302  0.1824
  299loPI   C3B 4783   3.950   1.639   9.138 -0.1231  0.2288  0.1782
  299loPI   C4B 4784   4.110   1.570   8.725  0.0033 -0.0585 -0.1938
  300loPI    C1 4785  16.529   9.920  10.676  0.0835 -0.0996  0.1506
  300loPI    C2 4786  16.760  10.096  10.400  0.0317 -0.0631  0.1304
  300loPI    C3 4787  16.738  10.249  10.769 -0.0550  0.0045  0.0977
  300loPI   PO4 4788  16.599   9.572  10.644  0.0375 -0.0450  0.0797
  300loPI   GL1 4789  16.504   9.298  10.280 -0.1345  0.1992  0.0162
  300loPI   GL2 4790  16.584   9.062  10.486  0.1032 -0.2903 -0.1357
  300loPI   C1A 4791  16.579   9.347   9.754  0.0839  0.2627  0.2236
  300loPI   C2A 4792  16.686   9.322   9.386 -0.1324  0.1635  0.1850
  300loPI   C3A 4793  16.681   9.349   9.011 -0.1957  0.1558  0.1089
  300loPI   C4A 4794  16.659   9.656   8.552 -0.0336 -0.1748  0.0739
  300loPI   C5A 4795  16.706   9.878   8.195  0.0462 -0.0766  0.1581
  300loPI   C6A 4796  16.710  10.277   7.779 -0.0347  0.2663  0.2372
  300loPI   C1B 4797  16.697   8.824  10.114  0.0065 -0.0393  0.2668
  300loPI   C2B 4798  17.018   8.609   9.853  0.3596 -0.0978 -0.1164
  300loPI   C3B 4799  17.127   8.620   9.503  0.2793 -0.2253 -0.0028
  300loPI   C4B 4800  17.181   8.682   9.158  0.1787 -0.0179  0.0780
  301loPI    C1 4801   9.306  11.558  10.668  0.4159  0.0092  0.3323
  301loPI    C2 4802   9.294  11.807  10.981 -0.0820  0.2311  0.1477
  301loPI    C3 4803   9.206  11.420  11.030  0.0550  0.2202  0.3179
  301loPI   PO4 4804   9.109  11.629  10.489 -0.0156  0.1928  0.3450
  301loPI   GL1 4805   8.990  11.629  10.132 -0.0338  0.1346  0.2070
  301loPI   GL2 4806   9.089  11.216  10.199  0.0776  0.0869  0.0088
  301loPI   C1A 4807   9.031  11.615   9.684  0.1268 -0.3331  0.4498
  301loPI   C2A 4808   8.987  11.661   9.221 -0.1286  0.2475 -0.1157
  301loPI   C3A 4809   9.235  11.597   8.948  0.1699 -0.1315 -0.2875
  301loPI   C4A 4810   9.387  11.951   8.701  0.1979 -0.1560 -0.2689
  301loPI   C5A 4811   9.617  12.459   8.654  0.1898 -0.0879 -0.0782
  301loPI   C6A 4812   9.766  12.769   8.432 -0.2745  0.0202 -0.0926
  301loPI   C1B 4813   8.930  11.131   9.777  0.3097 -0.2132 -0.0374
  301loPI   C2B 4814   8.804  11.189   9.265 -0.4105 -0.1515  0.0356
  301loPI   C3B 4815   9.056  11.129   8.936  0.3242  0.1755 -0.0554
  301loPI   C4B 4816   9.374  11.151   8.682 -0.3450 -0.0574  0.0149
  302loPI    C1 4817   7.450   6.273  10.637 -0.0496 -0.1145 -0.0822
  302loPI    C2 4818   7.086   6.111  10.614 -0.1229  0.0530 -0.1230
  302loPI    C3 4819   7.179   6.350  10.921  0.0735 -0.2781  0.0819
  302loPI   PO4 4820   7.476   6.289  10.296 -0.4268 -0.0412  0.0291
  302loPI   GL1 4821   7.464   6.045   9.941 -0.1209  0.2284 -0.1952
  302loPI   GL2 4822   7.231   6.343   9.859 -0.0636 -0.0819 -0.0656
  302loPI   C1A 4823   7.397   5.991   9.457  0.2077  0.2513 -0.4834
  302loPI   C2A 4824   7.396   5.815   9.118 -0.1159 -0.0641  0.1594
  302loPI   C3A 4825   7.673   5.495   9.030 -0.0511  0.2844 -0.0098
  302loPI   C4A 4826   7.665   5.340   8.646  0.0313  0.1022 -0.1853
  302loPI   C5A 4827   7.422   5.142   8.442 -0.0821 -0.0493  0.1105
  302loPI   C6A 4828   7.107   4.872   8.398  0.1706  0.2549  0.1600
  302loPI   C1B 4829   6.997   6.275   9.546 -0.2475 -0.3149 -0.1052
  302loPI   C2B 4830   6.886   6.080   9.071 -0.1506 -0.0873 -0.0051
  302loPI   C3B 4831   6.651   5.881   8.909  0.2385 -0.0162  0.0527
  302loPI   C4B 4832   6.636   5.683   8.539 -0.1048  0.0149 -0.0497
  303loPI    C1 4833  12.909   1.668  10.568  0.2576 -0.2154  0.1384
  303loPI    C2 4834  12.920   1.323  10.367 -0.1477 -0.0826 -0.1242
  303loPI    C3 4835  12.717   1.348  10.710 -0.1013 -0.1097 -0.0947
  303loPI   PO4 4836  12.787   1.867  10.372 -0.0763 -0.3585 -0.0392
  303loPI   GL1 4837  12.884   1.978   9.944  0.1533 -0.3166  0.1118
  303loPI   GL2 4838  12.899   1.607   9.899  0.1167  0.0229  0.1213
  303loPI   C1A 4839  12.989   2.087   9.462 -0.1854  0.0577 -0.1969
  303loPI   C2A 4840  12.830   2.090   9.132 -0.1107 -0.2093 -0.1893
  303loPI   C3A 4841  12.830   2.087   8.787 -0.0396  0.5083 -0.0914
  303loPI   C4A 4842  12.835   1.956   8.489  0.3664 -0.2116  0.1471
  303loPI   C5A 4843  12.578   1.895   8.104 -0.3135 -0.0250  0.1830
  303loPI   C6A 4844  12.088   1.856   8.029 -0.1013 -0.1073  0.0677
  303loPI   C1B 4845  12.909   1.546   9.451 -0.0227 -0.2643 -0.1689
  303loPI   C2B 4846  12.969   1.619   8.979 -0.0614 -0.2522 -0.1709
  303loPI   C3B 4847  13.238   1.618   8.569  0.2504  0.0101  0.0421
  303loPI   C4B 4848  13.124   1.867   8.114 -0.1036 -0.1488 -0.1003
  304loPI    C1 4849   9.519   8.259  10.724 -0.0387 -0.1073  0.0454
  304loPI    C2 4850   9.495   8.416  11.091 -0.2660 -0.0063 -0.0103
  304loPI    C3 4851   9.439   8.024  11.037 -0.0668 -0.0488  0.0825
  304loPI   PO4 4852   9.647   8.418  10.592 -0.1814  0.1715  0.0088
  304loPI   GL1 4853   9.826   8.694  10.325  0.1102 -0.2530  0.1588
  304loPI   GL2 4854   9.482   8.782  10.338  0.1360 -0.3142  0.0183
  304loPI   C1A 4855   9.711   8.628   9.889 -0.1292 -0.1964  0.2795
  304loPI   C2A 4856   9.593   8.812   9.566  0.0092 -0.0475  0.0255
  304loPI   C3A 4857   9.637   8.817   9.137  0.1959  0.2608 -0.0893
  304loPI   C4A 4858   9.488   9.016   8.793 -0.0401  0.1014 -0.3143
  304loPI   C5A 4859   9.437   9.213   8.370 -0.2627 -0.0720  0.1633
  304loPI   C6A 4860   9.130   9.380   8.239  0.0896 -0.3595 -0.2880
  304loPI   C1B 4861   9.100   8.817   9.938  0.1090 -0.1715 -0.0076
  304loPI   C2B 4862   9.045   8.885   9.511 -0.1293 -0.1740 -0.0290
  304loPI   C3B 4863   8.986   8.950   9.076 -0.1161 -0.0419 -0.3308
  304loPI   C4B 4864   9.039   8.985   8.637 -0.2140  0.1414 -0.0928
  305loPI    C1 4865  11.498   2.813  10.626  0.0312  0.0065  0.0334
  305loPI    C2 4866  11.313   2.496  10.785 -0.0459  0.1231  0.1781
  305loPI    C3 4867  11.202   2.866  10.890  0.1011  0.1970  0.0752
  305loPI   PO4 4868  11.528   2.779  10.339  0.2174 -0.0345 -0.0676
  305loPI   GL1 4869  11.241   2.886  10.036 -0.1705 -0.4523  0.2671
  305loPI   GL2 4870  11.285   2.505   9.968 -0.0602 -0.1427 -0.1238
  305loPI   C1A 4871  11.132   2.772   9.492 -0.3151  0.1510 -0.1357
  305loPI   C2A 4872  11.094   2.709   9.057 -0.1316  0.0033 -0.0940
  305loPI   C3A 4873  10.954   2.895   8.741 -0.1571 -0.2258 -0.1573
  305loPI   C4A 4874  11.127   3.056   8.242  0.0551 -0.0263 -0.1316
  305loPI   C5A 4875  11.018   3.478   8.196 -0.0168 -0.0203 -0.0114
  305loPI   C6A 4876  11.037   3.976   7.969  0.2779 -0.0345 -0.1810
  305loPI   C1B 4877  11.426   2.349   9.609 -0.3954  0.0131 -0.1017
  305loPI   C2B 4878  11.504   2.353   9.173  0.2035  0.0048  0.2509
  305loPI   C3B 4879  11.488   2.436   8.825  0.2819 -0.1501 -0.0203
  305loPI   C4B 4880  11.309   2.616   8.412 -0.0309  0.2049  0.0661
  306loPI    C1 4881  10.756  14.792  10.531 -0.0104  0.0606  0.3602
  306loPI    C2 4882  11.098  14.850  10.333 -0.1382  0.0373  0.1284
  306loPI    C3 4883  11.063  14.540  10.583 -0.0618 -0.0870 -0.0125
  306loPI   PO4 4884  10.548  14.929  10.348  0.0807 -0.1638 -0.0289
  306loPI   GL1 4885  10.640  14.852   9.945  0.1099  0.0802 -0.0759
  306loPI   GL2 4886  10.878  14.903   9.886 -0.2620 -0.0705  0.0359
  306loPI   C1A 4887  10.630  14.410   9.732  0.1952 -0.2036  0.0041
  306loPI   C2A 4888  10.655  14.077   9.333 -0.3070  0.0333  0.0591
  306loPI   C3A 4889  10.878  14.119   8.978 -0.1017  0.0348 -0.0697
  306loPI   C4A 4890  10.705  14.300   8.756 -0.0767 -0.0710  0.0988
  306loPI   C5A 4891  10.446  14.301   8.419 -0.1750  0.1425  0.2074
  306loPI   C6A 4892  10.339  14.064   8.019 -0.2293 -0.0302  0.2090
  306loPI   C1B 4893  11.150  14.994   9.617  0.1400  0.0065 -0.2211
  306loPI   C2B 4894  11.125  14.919   9.180 -0.0812 -0.0709  0.1302
  306loPI   C3B 4895  10.859  14.962   8.805 -0.1342  0.3028  0.0847
  306loPI   C4B 4896  10.622  14.721   8.445  0.1184 -0.3971 -0.0398
  307loPI    C1 4897  14.208   6.591  10.825  0.0620  0.1594 -0.0373
  307loPI    C2 4898  14.606   6.611  10.856  0.0651 -0.0514  0.0713
  307loPI    C3 4899  14.376   6.741  11.156  0.0594 -0.2305  0.1464
  307loPI   PO4 4900  14.225   6.521  10.582  0.0138 -0.0207  0.0120
  307loPI   GL1 4901  14.267   6.920  10.398  0.2138  0.1932  0.0970
  307loPI   GL2 4902  14.335   7.269  10.341  0.4499 -0.0521 -0.0408
  307loPI   C1A 4903  14.426   6.887   9.942  0.2850 -0.0103  0.3564
  307loPI   C2A 4904  14.621   7.036   9.496 -0.1911  0.1710 -0.2651
  307loPI   C3A 4905  14.684   7.200   9.132  0.1145 -0.1584 -0.0540
  307loPI   C4A 4906  14.415   7.337   8.644 -0.2240 -0.0029  0.1868
  307loPI   C5A 4907  14.156   7.342   8.424  0.0078  0.1888  0.2497
  307loPI   C6A 4908  14.029   7.331   7.951  0.0015  0.0034  0.2256
  307loPI   C1B 4909  14.272   7.413   9.866  0.2142  0.0900 -0.0668
  307loPI   C2B 4910  14.193   7.256   9.503 -0.0114 -0.0407  0.1791
  307loPI   C3B 4911  14.003   6.858   9.577 -0.4507  0.1126 -0.2771
  307loPI   C4B 4912  13.751   6.513   9.678 -0.1185 -0.1546  0.3093
  308loPI    C1 4913   0.693   5.778  10.682  0.0833 -0.0792  0.2334
  308loPI    C2 4914   0.357   5.970  10.783  0.0264 -0.0209 -0.0570
  308loPI    C3 4915   0.617   5.859  11.066 -0.2631 -0.1182  0.1761
  308loPI   PO4 4916   0.767   5.890  10.526  0.2407  0.4747  0.2725
  308loPI   GL1 4917   0.843   6.092  10.155 -0.1711 -0.0218 -0.0717
  308loPI   GL2 4918   0.990   6.417  10.136  0.3024 -0.0701  0.1528
  308loPI   C1A 4919   0.582   6.108   9.762  0.0554  0.1250 -0.1555
  308loPI   C2A 4920   0.625   6.061   9.284 -0.0878 -0.4248 -0.3597
  308loPI   C3A 4921   0.512   5.958   8.908  0.1789  0.0475  0.1234
  308loPI   C4A 4922   0.408   6.015   8.496 -0.1882  0.1291 -0.2419
  308loPI   C5A 4923   0.546   5.974   8.106  0.0866  0.1359  0.1602
  308loPI   C6A 4924   0.789   5.829   7.807  0.2230 -0.0346  0.2650
  308loPI   C1B 4925   0.838   6.501   9.662  0.4318  0.1339 -0.0284
  308loPI   C2B 4926   0.929   6.515   9.242 -0.2896  0.0748 -0.3069
  308loPI   C3B 4927   0.879   6.361   8.909  0.1234  0.1873 -0.0740
  308loPI   C4B 4928   0.785   6.574   8.610  0.0746 -0.2680  0.1819
  309loPI    C1 4929  10.693  13.196  10.534 -0.1561 -0.0980  0.0880
  309loPI    C2 4930  10.343  13.005  10.504 -0.2322  0.0481  0.0345
  309loPI    C3 4931  10.579  12.942  10.820 -0.3295 -0.0137  0.0952
  309loPI   PO4 4932  10.825  13.112  10.305  0.2349 -0.2826  0.0396
  309loPI   GL1 4933  10.930  13.309   9.910 -0.1087 -0.2933  0.1093
  309loPI   GL2 4934  11.236  13.090   9.963  0.1423  0.2632  0.3464
  309loPI   C1A 4935  10.801  13.046   9.573  0.1577 -0.3109 -0.0206
  309loPI   C2A 4936  10.545  12.978   9.164  0.3096  0.3432 -0.0528
  309loPI   C3A 4937  10.653  12.643   8.909  0.1989  0.2302  0.1173
  309loPI   C4A 4938  10.808  12.269   8.603 -0.0132  0.2366  0.1501
  309loPI   C5A 4939  10.884  11.791   8.722 -0.1126  0.2155  0.1738
  309loPI   C6A 4940  10.744  11.515   9.098 -0.3139 -0.1747  0.3790
  309loPI   C1B 4941  11.499  13.314   9.692  0.1888 -0.0890  0.0478
  309loPI   C2B 4942  11.220  13.280   9.432 -0.1414 -0.0375 -0.1736
  309loPI   C3B 4943  11.001  13.239   9.007 -0.0446 -0.0845  0.0644
  309loPI   C4B 4944  10.965  13.063   8.650  0.1633 -0.1172 -0.0449
  310loPI    C1 4945   9.106   4.247  10.668 -0.1661 -0.3247  0.0563
  310loPI    C2 4946   9.307   4.060  10.959  0.0644 -0.0786  0.0597
  310loPI    C3 4947   9.023   4.325  11.051  0.2811  0.1546  0.0669
  310loPI   PO4 4948   9.305   4.382  10.446 -0.2644  0.2672 -0.1353
  310loPI   GL1 4949   9.258   4.630  10.180  0.3359 -0.1091  0.3379
  310loPI   GL2 4950   8.975   4.409  10.143  0.0680  0.0184 -0.1465
  310loPI   C1A 4951   9.340   4.544   9.732 -0.1195 -0.2491 -0.0120
  310loPI   C2A 4952   9.435   4.704   9.310  0.1362 -0.1522  0.0227
  310loPI   C3A 4953   9.694   4.766   8.888  0.2056 -0.1651 -0.2519
  310loPI   C4A 4954   9.593   4.940   8.423 -0.0961  0.1643  0.2251
  310loPI   C5A 4955   9.286   5.102   8.202  0.0259  0.0358  0.2236
  310loPI   C6A 4956   8.949   5.402   8.169 -0.2263  0.3289 -0.1087
  310loPI   C1B 4957   8.823   4.572   9.770 -0.2010 -0.0233  0.2257
  310loPI   C2B 4958   8.787   4.625   9.274  0.1414  0.1852 -0.0694
  310loPI   C3B 4959   8.575   4.588   8.873 -0.0768 -0.1072 -0.0335
  310loPI   C4B 4960   8.159   4.597   8.661  0.0067  0.1690  0.0888
  311loPI    C1 4961   9.740   9.093  10.695  0.0257 -0.1603  0.2232
  311loPI    C2 4962   9.962   9.114  11.026  0.0336 -0.0202  0.2096
  311loPI    C3 4963   9.903   8.761  10.847  0.4296 -0.0299  0.0874
  311loPI   PO4 4964   9.788   9.307  10.641  0.0582 -0.1996 -0.0021
  311loPI   GL1 4965  10.076   9.408  10.309 -0.0966  0.1475 -0.2441
  311loPI   GL2 4966   9.945   9.617  10.203  0.0378  0.1737 -0.0635
  311loPI   C1A 4967  10.080   9.091  10.047 -0.1415  0.0024  0.3683
  311loPI   C2A 4968   9.957   9.128   9.586 -0.3952  0.0524  0.0863
  311loPI   C3A 4969   9.926   9.202   9.174 -0.0850  0.0800 -0.0320
  311loPI   C4A 4970   9.952   9.142   8.712  0.0018  0.1695  0.2549
  311loPI   C5A 4971   9.839   9.455   8.408 -0.3318 -0.0291 -0.1284
  311loPI   C6A 4972   9.556   9.753   8.315 -0.1478 -0.1094  0.2698
  311loPI   C1B 4973   9.950   9.608   9.752  0.2217 -0.0103  0.0682
  311loPI   C2B 4974   9.930   9.710   9.394  0.3051 -0.2011 -0.1013
  311loPI   C3B 4975   9.889   9.640   8.917  0.1114 -0.0243  0.3572
  311loPI   C4B 4976  10.089   9.896   8.567 -0.2286  0.1408 -0.2380
  312loPI    C1 4977   6.481  16.268  10.420  0.0630  0.1207 -0.1497
  312loPI    C2 4978   6.735  16.086  10.669 -0.0688  0.1011 -0.0281
  312loPI    C3 4979   6.704  16.484  10.672 -0.0444  0.1031 -0.0387
  312loPI   PO4 4980   6.541  16.133  10.207  0.0507  0.0014  0.0749
  312loPI   GL1 4981   6.567  16.172   9.781 -0.0733  0.1969  0.2201
  312loPI   GL2 4982   6.770  15.976   9.816 -0.1159  0.1629  0.0671
  312loPI   C1A 4983   6.513  16.234   9.468  0.1887  0.0926  0.2035
  312loPI   C2A 4984   6.425  16.340   9.021 -0.0516 -0.0824 -0.2184
  312loPI   C3A 4985   6.408  16.322   8.732  0.0365  0.1824  0.0895
  312loPI   C4A 4986   6.335  16.090   8.338  0.1007  0.1335 -0.1116
  312loPI   C5A 4987   6.069  16.225   8.043  0.1193  0.2744 -0.2979
  312loPI   C6A 4988   5.726  16.529   8.064  0.1032 -0.0580 -0.0218
  312loPI   C1B 4989   6.948  16.039   9.533  0.0352  0.0942  0.2419
  312loPI   C2B 4990   6.927  16.293   9.195 -0.0396  0.3475  0.1395
  312loPI   C3B 4991   6.908  16.290   8.759 -0.1817 -0.0815  0.1614
  312loPI   C4B 4992   6.884  16.251   8.351 -0.2583  0.1514  0.0014
  313loPI    C1 4993  11.434  12.338  10.675  0.3234  0.3538 -0.0856
  313loPI    C2 4994  11.370  12.269  11.063  0.4791 -0.1356 -0.1395
  313loPI    C3 4995  11.392  12.645  10.928 -0.4000  0.0579  0.1819
  313loPI   PO4 4996  11.525  11.971  10.558  0.1445 -0.2586  0.0480
  313loPI   GL1 4997  11.738  11.658  10.342  0.3213 -0.2739 -0.1089
  313loPI   GL2 4998  11.901  11.403  10.441  0.0931  0.3293 -0.0453
  313loPI   C1A 4999  11.473  11.575  10.032 -0.0604  0.1594  0.0782
  313loPI   C2A 5000  11.438  11.695   9.673  0.2777  0.1411 -0.1733
  313loPI   C3A 5001  11.607  11.611   9.214  0.5094  0.3787 -0.1434
  313loPI   C4A 5002  11.918  11.580   8.851  0.3569 -0.1513  0.1940
  313loPI   C5A 5003  11.899  11.507   8.526  0.1580  0.1338 -0.0687
  313loPI   C6A 5004  12.162  11.703   8.325 -0.0499  0.1257  0.0524
  313loPI   C1B 5005  11.979  11.354  10.035 -0.1904 -0.0827  0.0594
  313loPI   C2B 5006  11.830  11.409   9.646  0.1436 -0.1896  0.4092
  313loPI   C3B 5007  11.752  11.168   9.394  0.1994  0.0659 -0.1018
  313loPI   C4B 5008  11.457  11.177   9.025  0.0773  0.2466  0.0478
  314loPI    C1 5009   2.941  13.305  10.225 -0.0333 -0.1466  0.1340
  314loPI    C2 5010   2.850  12.929  10.125 -0.0104 -0.1871  0.2628
  314loPI    C3 5011   2.571  13.166  10.285 -0.1422 -0.0142 -0.2058
  314loPI   PO4 5012   3.246  13.327  10.181 -0.1649 -0.2608 -0.0444
  314loPI   GL1 5013   3.571  13.415   9.833  0.0142 -0.0626  0.3217
  314loPI   GL2 5014   3.605  13.745   9.953 -0.1113  0.2022 -0.0414
  314loPI   C1A 5015   3.713  13.551   9.372 -0.0105 -0.1528  0.2249
  314loPI   C2A 5016   3.728  13.435   8.922 -0.3689 -0.1381  0.2956
  314loPI   C3A 5017   3.811  13.056   8.588 -0.0881 -0.0097 -0.0442
  314loPI   C4A 5018   4.082  12.817   8.317 -0.0604  0.1435 -0.1579
  314loPI   C5A 5019   4.279  12.976   7.955  0.0017  0.3217 -0.2584
  314loPI   C6A 5020   4.415  12.916   7.549  0.1233 -0.1271  0.2955
  314loPI   C1B 5021   3.476  13.972   9.587 -0.0155 -0.1452  0.0475
  314loPI   C2B 5022   3.351  13.877   9.161 -0.0408  0.4486  0.1168
  314loPI   C3B 5023   3.489  13.806   8.683 -0.0814  0.1549  0.3242
  314loPI   C4B 5024   3.765  13.621   8.384 -0.0839 -0.1701 -0.4096
  315loPI    C1 5025   7.952   4.942  10.960 -0.1912 -0.0507  0.0985
  315loPI    C2 5026   7.561   4.868  10.921 -0.1773 -0.1274  0.1024
  315loPI    C3 5027   7.770   4.690  11.212 -0.0929 -0.2623 -0.0395
  315loPI   PO4 5028   8.064   5.182  10.936  0.2942 -0.1263  0.2352
  315loPI   GL1 5029   8.253   5.404  10.494 -0.0270  0.0564  0.1009
  315loPI   GL2 5030   8.507   5.379  10.273 -0.5834 -0.0324  0.2690
  315loPI   C1A 5031   8.180   5.629  10.039 -0.2871  0.2422 -0.3608
  315loPI   C2A 5032   8.215   5.501   9.634  0.1645 -0.0405 -0.0212
  315loPI   C3A 5033   8.167   5.453   9.188  0.1031 -0.0923  0.1286
  315loPI   C4A 5034   8.166   5.623   8.735  0.0074  0.1928  0.1449
  315loPI   C5A 5035   8.257   5.732   8.328 -0.0353  0.0155 -0.0012
  315loPI   C6A 5036   8.479   6.023   8.174 -0.0570  0.0582 -0.2288
  315loPI   C1B 5037   8.672   5.458   9.853  0.3085 -0.3936 -0.1874
  315loPI   C2B 5038   8.709   5.383   9.459  0.0050  0.3068 -0.1245
  315loPI   C3B 5039   8.704   5.439   9.069 -0.1640 -0.2450  0.1223
  315loPI   C4B 5040   8.779   5.468   8.645 -0.2262  0.1033 -0.1707
  316loPI    C1 5041   2.107  13.627  10.528 -0.0616  0.2705 -0.0999
  316loPI    C2 5042   1.814  13.354  10.542  0.1326  0.0414 -0.3732
  316loPI    C3 5043   1.974  13.495  10.881 -0.0704 -0.0734 -0.2276
  316loPI   PO4 5044   2.301  13.551  10.364  0.0553 -0.0849  0.0893
  316loPI   GL1 5045   2.573  13.655  10.081 -0.1099  0.1154 -0.2459
  316loPI   GL2 5046   2.540  13.996   9.932 -0.1571 -0.1294  0.0563
  316loPI   C1A 5047   2.562  13.236   9.786  0.1378 -0.1868 -0.0259
  316loPI   C2A 5048   2.551  13.137   9.437  0.0426 -0.0601  0.2433
  316loPI   C3A 5049   2.506  13.180   9.006  0.0088  0.1832  0.1783
  316loPI   C4A 5050   2.338  13.190   8.582 -0.0658  0.1111  0.0106
  316loPI   C5A 5051   2.408  13.284   8.141 -0.1310 -0.0313  0.3311
  316loPI   C6A 5052   2.296  13.373   7.709  0.0564 -0.3045  0.0869
  316loPI   C1B 5053   2.709  13.699   9.543 -0.0615  0.0732 -0.2383
  316loPI   C2B 5054   2.777  13.604   9.168 -0.2164  0.2944 -0.1179
  316loPI   C3B 5055   2.864  13.586   8.678  0.2409 -0.2062  0.0470
  316loPI   C4B 5056   2.849  13.620   8.303 -0.1056  0.0603 -0.1204
  317loPI    C1 5057  12.271  15.451  10.095 -0.0107 -0.3519  0.0985
  317loPI    C2 5058  11.941  15.481  10.319  0.1018 -0.0783  0.2315
  317loPI    C3 5059  12.242  15.739  10.370  0.0765  0.0752 -0.3258
  317loPI   PO4 5060  12.304  15.091  10.151 -0.0535  0.1436 -0.4178
  317loPI   GL1 5061  12.281  14.654   9.904 -0.0063 -0.0466 -0.0291
  317loPI   GL2 5062  12.046  14.552   9.925 -0.1005 -0.0728  0.2985
  317loPI   C1A 5063  12.643  14.814   9.723  0.1693 -0.0327 -0.0038
  317loPI   C2A 5064  12.629  15.038   9.297  0.4741  0.3332 -0.2684
  317loPI   C3A 5065  12.764  15.305   8.888 -0.1175  0.2993  0.2222
  317loPI   C4A 5066  12.841  15.437   8.591 -0.1899  0.1606  0.0122
  317loPI   C5A 5067  13.084  15.173   8.166  0.2192 -0.4555  0.0406
  317loPI   C6A 5068  13.118  14.828   8.002 -0.1313  0.0612  0.4235
  317loPI   C1B 5069  12.114  14.541   9.442  0.1669  0.0710  0.0370
  317loPI   C2B 5070  12.434  14.604   9.150 -0.2125  0.0535 -0.0349
  317loPI   C3B 5071  12.536  14.866   8.790 -0.2845  0.0075  0.4197
  317loPI   C4B 5072  12.634  14.960   8.292  0.0917  0.1524 -0.0299
  318loPI    C1 5073   9.946   8.227  11.052  0.1812  0.0687  0.0945
  318loPI    C2 5074   9.918   8.340  11.434  0.2444  0.3170  0.0277
  318loPI    C3 5075   9.811   7.970  11.327  0.2322  0.2435  0.2856
  318loPI   PO4 5076  10.093   8.289  10.956 -0.2279  0.2432 -0.2862
  318loPI   GL1 5077  10.133   8.363  10.510 -0.1851  0.0751 -0.3172
  318loPI   GL2 5078  10.267   8.050  10.404 -0.4521 -0.0755  0.0742
  318loPI   C1A 5079  10.249   8.534  10.190 -0.0712 -0.3757  0.2563
  318loPI   C2A 5080  10.624   8.653  10.015  0.0606  0.2176  0.0596
  318loPI   C3A 5081  10.768   8.827   9.681 -0.0142  0.0651 -0.0247
  318loPI   C4A 5082  11.052   8.763   9.320  0.0057 -0.0423 -0.1439
  318loPI   C5A 5083  11.432   8.794   9.114 -0.1164  0.2274 -0.2825
  318loPI   C6A 5084  11.588   8.631   8.750 -0.0031  0.0500  0.0053
  318loPI   C1B 5085  10.494   8.095   9.963 -0.2642  0.4200 -0.0038
  318loPI   C2B 5086  10.750   8.253   9.634  0.0438 -0.0334  0.2423
  318loPI   C3B 5087  10.574   8.585   9.300  0.1494 -0.1797  0.2399
  318loPI   C4B 5088  10.706   8.478   8.935  0.1660  0.2641  0.0420
  319loPI    C1 5089  13.588   0.471  10.444 -0.1267  0.0660 -0.0207
  319loPI    C2 5090  13.707   0.694  10.753  0.1133 -0.0550 -0.0232
  319loPI    C3 5091  13.617   0.308  10.808  0.1715 -0.0807 -0.1065
  319loPI   PO4 5092  13.476   0.663  10.298  0.2735  0.3141 -0.3987
  319loPI   GL1 5093  13.515   0.685   9.921 -0.1649  0.1028 -0.2771
  319loPI   GL2 5094  13.754   0.884   9.782 -0.0529  0.2056 -0.1761
  319loPI   C1A 5095  13.456   0.364   9.629  0.1219  0.3334 -0.0372
  319loPI   C2A 5096  13.666   0.308   9.298 -0.2286 -0.0506  0.0955
  319loPI   C3A 5097  13.784   0.007   8.938  0.2587 -0.2000  0.1389
  319loPI   C4A 5098  13.811  -0.019   8.500 -0.0259 -0.3711  0.0297
  319loPI   C5A 5099  13.832  -0.247   8.078  0.1743 -0.1194 -0.1654
  319loPI   C6A 5100  13.532  -0.431   7.808 -0.2693 -0.2659  0.1364
  319loPI   C1B 5101  13.754   0.835   9.411  0.0544 -0.1686 -0.2246
  319loPI   C2B 5102  13.775   0.745   9.000 -0.1677 -0.0067  0.1416
  319loPI   C3B 5103  13.803   0.910   8.615  0.4550  0.3055  0.1682
  319loPI   C4B 5104  13.817   1.002   8.130  0.0912  0.2234  0.0099
  320loPI    C1 5105  17.541   8.791  10.759  0.1682  0.0027 -0.2361
  320loPI    C2 5106  17.514   8.409  10.874  0.0258  0.0664 -0.0525
  320loPI    C3 5107  17.710   8.673  11.102  0.1920  0.0881 -0.2182
  320loPI   PO4 5108  17.602   8.863  10.518  0.2651 -0.3450  0.2956
  320loPI   GL1 5109  17.499   9.099  10.245  0.0377 -0.3732 -0.2615
  320loPI   GL2 5110  17.370   8.912  10.016 -0.1281 -0.0155  0.3446
  320loPI   C1A 5111  17.737   9.296   9.999 -0.1401 -0.2702  0.2251
  320loPI   C2A 5112  17.954   9.155   9.532 -0.4888 -0.0021 -0.4741
  320loPI   C3A 5113  18.185   9.312   9.169 -0.0407 -0.1260  0.0310
  320loPI   C4A 5114  18.204   9.302   8.739 -0.0840 -0.2292  0.2248
  320loPI   C5A 5115  18.222   9.218   8.260 -0.0007 -0.3060 -0.1331
  320loPI   C6A 5116  18.079   8.870   8.088 -0.0308  0.1340 -0.1069
  320loPI   C1B 5117  17.522   8.907   9.592  0.1304  0.1155 -0.0943
  320loPI   C2B 5118  17.723   8.751   9.322 -0.0999 -0.2680  0.1457
  320loPI   C3B 5119  17.608   8.613   8.878 -0.1033 -0.0126 -0.1452
  320loPI   C4B 5120  17.185   8.702   8.595 -0.0717  0.0666  0.2736
  321loPI    C1 5121   7.655  14.301  10.736  0.0937  0.1955 -0.1528
  321loPI    C2 5122   7.319  14.111  10.844  0.2369  0.1303  0.1902
  321loPI    C3 5123   7.303  14.490  10.717 -0.0049  0.0169 -0.1280
  321loPI   PO4 5124   7.710  14.139  10.509  0.0407  0.1938 -0.1407
  321loPI   GL1 5125   7.564  14.040  10.020 -0.3499 -0.2566 -0.2022
  321loPI   GL2 5126   7.719  13.834  10.013 -0.1083 -0.1300  0.0658
  321loPI   C1A 5127   7.396  14.232   9.616 -0.1801 -0.0653 -0.0594
  321loPI   C2A 5128   7.199  14.144   9.251  0.2354 -0.3093 -0.0943
  321loPI   C3A 5129   7.095  14.267   8.858 -0.0601 -0.0327  0.0456
  321loPI   C4A 5130   7.037  14.299   8.479  0.0538 -0.1388  0.0110
  321loPI   C5A 5131   6.854  14.148   8.187 -0.0276 -0.0793 -0.3790
  321loPI   C6A 5132   6.608  13.867   8.006 -0.2233 -0.1156  0.1589
  321loPI   C1B 5133   7.798  13.939   9.608  0.1026 -0.2714  0.1678
  321loPI   C2B 5134   7.711  14.035   9.217  0.1867  0.1303 -0.1066
  321loPI   C3B 5135   7.469  13.958   8.820 -0.4210  0.3116  0.2564
  321loPI   C4B 5136   7.392  13.877   8.319 -0.1471  0.0215  0.0152
  322loPI    C1 5137   8.279  11.651  11.031 -0.2322  0.0416 -0.1183
  322loPI    C2 5138   8.529  11.909  11.206  0.0215 -0.2681 -0.0125
  322loPI    C3 5139   8.156  11.866  11.345  0.0476 -0.1192  0.1067
  322loPI   PO4 5140   8.345  11.603  10.766 -0.1087 -0.2719  0.3975
  322loPI   GL1 5141   8.575  11.388  10.405 -0.2568  0.0687  0.2743
  322loPI   GL2 5142   8.524  10.968  10.312 -0.1598 -0.1135  0.1458
  322loPI   C1A 5143   8.507  11.486   9.980 -0.0210  0.1578  0.0362
  322loPI   C2A 5144   8.514  11.559   9.651 -0.4107  0.1325 -0.0620
  322loPI   C3A 5145   8.487  11.569   9.147  0.3556  0.1478 -0.0300
  322loPI   C4A 5146   8.299  11.592   8.839 -0.0225  0.0555  0.0408
  322loPI   C5A 5147   8.283  11.889   8.524 -0.0685  0.0897 -0.1941
  322loPI   C6A 5148   8.398  12.320   8.400 -0.1735  0.3062 -0.0611
  322loPI   C1B 5149   8.517  10.924   9.934  0.0021  0.1371  0.1654
  322loPI   C2B 5150   8.469  10.903   9.534 -0.0022 -0.1012 -0.3127
  322loPI   C3B 5151   8.303  10.982   9.142  0.2847  0.2418  0.2297
  322loPI   C4B 5152   8.603  11.136   8.767 -0.1601 -0.0551 -0.2439
  323loPI    C1 5153  17.055   8.983  10.834  0.1362 -0.2915 -0.0783
  323loPI    C2 5154  16.769   8.738  10.968  0.0976 -0.1165  0.1659
  323loPI    C3 5155  17.151   8.675  11.069  0.1047 -0.1561  0.1144
  323loPI   PO4 5156  17.092   9.039  10.569 -0.1228  0.0773  0.1448
  323loPI   GL1 5157  17.019   9.472  10.385  0.0445 -0.1445 -0.0497
  323loPI   GL2 5158  16.991   9.225  10.123 -0.1417  0.0594 -0.1235
  323loPI   C1A 5159  16.851   9.677  10.048  0.0823  0.4481  0.0808
  323loPI   C2A 5160  17.002   9.676   9.658 -0.2402 -0.0275  0.0274
  323loPI   C3A 5161  17.068   9.625   9.240 -0.1416  0.1318  0.1068
  323loPI   C4A 5162  17.068   9.592   8.787 -0.3108 -0.2406 -0.1436
  323loPI   C5A 5163  17.180   9.627   8.307 -0.2034  0.1216  0.1694
  323loPI   C6A 5164  17.187   9.892   7.963 -0.0027 -0.2522 -0.1830
  323loPI   C1B 5165  16.992   9.081   9.716 -0.3541  0.0133  0.0223
  323loPI   C2B 5166  17.159   9.139   9.302  0.1567 -0.1901 -0.0828
  323loPI   C3B 5167  17.263   9.161   8.876 -0.0158  0.1635 -0.0014
  323loPI   C4B 5168  17.320   9.178   8.445  0.2597 -0.1998  0.1993
  324loPI    C1 5169   4.993  12.704  10.673 -0.2003 -0.1963 -0.0318
  324loPI    C2 5170   5.054  12.940  10.990 -0.0843  0.1012 -0.2708
  324loPI    C3 5171   4.730  12.706  10.975 -0.0063 -0.0413  0.1389
  324loPI   PO4 5172   5.038  12.877  10.433 -0.0697  0.1668  0.1225
  324loPI   GL1 5173   4.857  13.070  10.157  0.4664  0.1114 -0.1508
  324loPI   GL2 5174   5.020  13.186   9.998 -0.2220 -0.2068 -0.1005
  324loPI   C1A 5175   4.668  12.935   9.737 -0.0712  0.2107  0.1095
  324loPI   C2A 5176   4.493  12.902   9.334  0.1548  0.2653  0.1308
  324loPI   C3A 5177   4.576  12.826   8.959 -0.3869 -0.0417 -0.0736
  324loPI   C4A 5178   4.539  12.859   8.534  0.2514  0.1564  0.3274
  324loPI   C5A 5179   4.697  13.230   8.187  0.2485 -0.0582 -0.2460
  324loPI   C6A 5180   4.545  13.563   7.956  0.2185  0.0624 -0.1457
  324loPI   C1B 5181   5.294  13.049   9.648  0.3416  0.1630 -0.1006
  324loPI   C2B 5182   5.485  12.975   9.298 -0.0380 -0.0285  0.0324
  324loPI   C3B 5183   5.583  13.002   8.880 -0.1902 -0.1076  0.1893
  324loPI   C4B 5184   5.587  13.135   8.440 -0.1438 -0.1976 -0.1076
  325loPI    C1 5185  15.721  16.238  10.676 -0.0435 -0.0974 -0.2256
  325loPI    C2 5186  15.548  15.897  10.795  0.0003 -0.0177  0.0735
  325loPI    C3 5187  15.881  16.027  10.975  0.0704  0.1062 -0.1408
  325loPI   PO4 5188  15.770  16.194  10.339  0.0354 -0.0446 -0.2072
  325loPI   GL1 5189  15.786  16.101   9.927  0.3196 -0.1536  0.2004
  325loPI   GL2 5190  16.040  16.070   9.899 -0.1082  0.1072  0.2497
  325loPI   C1A 5191  15.715  16.195   9.524 -0.0321 -0.0133 -0.0042
  325loPI   C2A 5192  15.926  16.365   9.139 -0.2258 -0.3451  0.0388
  325loPI   C3A 5193  15.937  16.160   8.695 -0.0637 -0.1273 -0.2312
  325loPI   C4A 5194  16.003  16.496   8.355 -0.0759  0.5004  0.0705
  325loPI   C5A 5195  15.637  16.621   8.066 -0.2719  0.0573 -0.2857
  325loPI   C6A 5196  15.505  17.032   7.880  0.0813  0.1971  0.0996
  325loPI   C1B 5197  16.206  16.149   9.452 -0.0972 -0.4542  0.1074
  325loPI   C2B 5198  16.299  15.993   9.015 -0.0942  0.0983  0.3643
  325loPI   C3B 5199  16.279  15.744   8.678 -0.1204 -0.3248 -0.2728
  325loPI   C4B 5200  16.278  15.703   8.174  0.0137 -0.2991 -0.2617
  326loPI    C1 5201   9.471   5.040  10.829 -0.2217 -0.0106  0.2898
  326loPI    C2 5202   9.437   4.644  10.874 -0.0868 -0.0193  0.3201
  326loPI    C3 5203   9.647   4.857  11.138 -0.0183  0.0494  0.2107
  326loPI   PO4 5204   9.445   5.038  10.562  0.2424 -0.1838  0.1239
  326loPI   GL1 5205   9.427   5.106  10.094 -0.1464 -0.0088 -0.1498
  326loPI   GL2 5206   9.565   4.948   9.902 -0.0195  0.0284  0.0793
  326loPI   C1A 5207   9.221   5.434   9.731 -0.1326 -0.4008 -0.1833
  326loPI   C2A 5208   9.128   5.665   9.381 -0.1534  0.0114 -0.0755
  326loPI   C3A 5209   9.221   5.579   9.004 -0.1460 -0.0223  0.0322
  326loPI   C4A 5210   9.290   5.384   8.626  0.1181  0.0701 -0.1512
  326loPI   C5A 5211   9.431   5.552   8.280 -0.1115  0.0854  0.5082
  326loPI   C6A 5212   9.374   5.486   7.826 -0.3116  0.1125 -0.2014
  326loPI   C1B 5213   9.566   5.095   9.578 -0.2845 -0.1468 -0.1215
  326loPI   C2B 5214   9.554   5.173   9.150 -0.1599  0.4242 -0.1067
  326loPI   C3B 5215   9.789   5.326   8.814 -0.1539  0.1283 -0.0744
  326loPI   C4B 5216   9.983   5.397   8.473  0.0944 -0.0426 -0.0821
  327loPI    C1 5217   2.531  15.646  10.549 -0.2405  0.1275  0.3139
  327loPI    C2 5218   2.469  15.925  10.269  0.1724  0.0300  0.1168
  327loPI    C3 5219   2.431  16.019  10.656 -0.1670  0.2284  0.0401
  327loPI   PO4 5220   2.336  15.431  10.345 -0.2124 -0.0666 -0.0020
  327loPI   GL1 5221   2.463  15.078  10.036 -0.0558 -0.3837  0.0552
  327loPI   GL2 5222   2.434  15.438   9.864  0.1193  0.0370  0.0046
  327loPI   C1A 5223   2.635  14.719   9.870  0.0234 -0.0254  0.0810
  327loPI   C2A 5224   2.703  14.460   9.622 -0.0291  0.3000  0.3960
  327loPI   C3A 5225   2.656  14.540   9.165 -0.0789  0.1424  0.2875
  327loPI   C4A 5226   2.774  14.884   9.143 -0.0796  0.0909 -0.3155
  327loPI   C5A 5227   2.984  14.874   8.853 -0.0640  0.1910 -0.1649
  327loPI   C6A 5228   3.393  14.886   8.797  0.1786 -0.1592 -0.2369
  327loPI   C1B 5229   2.304  15.524   9.551 -0.2429 -0.0447 -0.0513
  327loPI   C2B 5230   2.506  15.354   9.199 -0.2315  0.3718 -0.0830
  327loPI   C3B 5231   2.818  15.358   8.992 -0.0481 -0.1123  0.4622
  327loPI   C4B 5232   2.947  15.391   8.560  0.0771  0.2715 -0.1984
  328loPI    C1 5233   5.616   8.624  10.758 -0.1494  0.0274 -0.0668
  328loPI    C2 5234   5.347   8.490  10.494 -0.2930 -0.1829  0.1804
  328loPI    C3 5235   5.262   8.806  10.723 -0.1855 -0.0275  0.0090
  328loPI   PO4 5236   5.839   8.623  10.629  0.0287 -0.0461  0.3597
  328loPI   GL1 5237   5.970   8.738  10.301  0.1541 -0.1791  0.3246
  328loPI   GL2 5238   6.136   8.990  10.315 -0.1337 -0.1584  0.1462
  328loPI   C1A 5239   5.967   8.762   9.796 -0.1231  0.0590  0.0678
  328loPI   C2A 5240   6.027   8.752   9.400 -0.0079 -0.3274  0.1015
  328loPI   C3A 5241   6.065   8.643   9.001  0.0913  0.0917  0.1014
  328loPI   C4A 5242   5.872   8.531   8.637 -0.1308 -0.0567  0.1861
  328loPI   C5A 5243   5.771   8.359   8.304  0.1477  0.2815 -0.1394
  328loPI   C6A 5244   5.771   8.309   7.922  0.2227  0.1870  0.0651
  328loPI   C1B 5245   6.258   9.204   9.951  0.2255 -0.3952 -0.0335
  328loPI   C2B 5246   6.253   9.199   9.496 -0.0794  0.2413 -0.2830
  328loPI   C3B 5247   6.418   9.120   9.152  0.1890  0.1034 -0.2786
  328loPI   C4B 5248   6.685   9.292   8.892 -0.1741 -0.0931 -0.0200
  329loPI    C1 5249  13.199  15.773  10.930  0.0411  0.2517 -0.0104
  329loPI    C2 5250  13.029  15.457  10.755  0.0845  0.2662 -0.0792
  329loPI    C3 5251  13.040  15.483  11.154  0.1176  0.1610 -0.0731
  329loPI   PO4 5252  13.219  15.884  10.783  0.3485 -0.3292 -0.1035
  329loPI   GL1 5253  13.255  15.915  10.370 -0.3156  0.2725  0.1045
  329loPI   GL2 5254  13.192  16.165  10.155 -0.0904  0.0363 -0.0884
  329loPI   C1A 5255  13.215  15.649   9.936 -0.1430  0.1902  0.3103
  329loPI   C2A 5256  13.085  15.683   9.567  0.3601 -0.2413 -0.0109
  329loPI   C3A 5257  13.033  15.651   9.038 -0.2533 -0.1304 -0.2175
  329loPI   C4A 5258  13.046  15.905   8.594  0.0845  0.0662  0.1251
  329loPI   C5A 5259  13.002  15.733   8.154 -0.2105  0.1171  0.1024
  329loPI   C6A 5260  12.653  15.466   8.092  0.0601  0.0994 -0.0905
  329loPI   C1B 5261  12.875  16.032   9.856  0.3514 -0.1255 -0.2581
  329loPI   C2B 5262  12.579  16.132   9.616  0.2298 -0.0343 -0.0048
  329loPI   C3B 5263  12.168  16.139   9.358  0.1362 -0.1393 -0.0887
  329loPI   C4B 5264  11.923  15.878   8.996  0.2103 -0.0860 -0.2179
  330loPI    C1 5265   1.700   1.280  10.206  0.0590 -0.2301  0.0686
  330loPI    C2 5266   1.910   1.408  10.521  0.0345 -0.0408  0.0094
  330loPI    C3 5267   1.511   1.395  10.539  0.0354 -0.0771  0.0033
  330loPI   PO4 5268   1.761   1.346  10.040 -0.2946 -0.1215 -0.2140
  330loPI   GL1 5269   1.827   1.250   9.679 -0.0761 -0.0792  0.4213
  330loPI   GL2 5270   2.021   0.983   9.751 -0.5323  0.0003  0.0973
  330loPI   C1A 5271   1.715   1.287   9.265  0.0951 -0.1258 -0.0122
  330loPI   C2A 5272   1.836   1.235   8.795 -0.2083  0.1423 -0.0210
  330loPI   C3A 5273   1.981   1.215   8.298 -0.1112  0.2782 -0.2670
  330loPI   C4A 5274   2.113   0.986   8.002 -0.1086  0.0231  0.1545
  330loPI   C5A 5275   2.376   1.044   7.691  0.0233 -0.0181  0.1101
  330loPI   C6A 5276   2.728   0.994   7.547  0.1568  0.2156 -0.0401
  330loPI   C1B 5277   2.168   1.029   9.341 -0.2094 -0.1195 -0.2430
  330loPI   C2B 5278   2.330   0.955   8.911 -0.1255  0.1408 -0.0428
  330loPI   C3B 5279   2.383   0.976   8.457  0.0705  0.0608  0.1950
  330loPI   C4B 5280   2.618   0.965   8.054 -0.1138  0.1098 -0.3983
  331loPI    C1 5281  13.291  17.900  10.536  0.3201  0.2205  0.0176
  331loPI    C2 5282  13.507  17.931  10.871 -0.2251  0.1101  0.3926
  331loPI    C3 5283  13.415  17.570  10.726  0.2032  0.1563 -0.0161
  331loPI   PO4 5284  13.351  18.190  10.438  0.2786 -0.4027 -0.2670
  331loPI   GL1 5285  13.361  18.304  10.029 -0.1679 -0.0137  0.0237
  331loPI   GL2 5286  13.528  18.017   9.910  0.3043  0.2410  0.1279
  331loPI   C1A 5287  12.984  18.294   9.665  0.0701 -0.2706  0.1776
  331loPI   C2A 5288  12.787  18.437   9.416 -0.0004 -0.1895 -0.0938
  331loPI   C3A 5289  12.830  18.549   8.913  0.0922 -0.0617 -0.1563
  331loPI   C4A 5290  12.913  18.706   8.446 -0.0360 -0.4386  0.0261
  331loPI   C5A 5291  13.118  18.706   8.064 -0.1195  0.0936 -0.0389
  331loPI   C6A 5292  13.046  18.455   7.731  0.0625 -0.2432  0.1132
  331loPI   C1B 5293  13.503  18.100   9.438 -0.3408  0.1991 -0.3295
  331loPI   C2B 5294  13.229  18.358   9.103 -0.2206 -0.1462 -0.0102
  331loPI   C3B 5295  13.206  18.282   8.680  0.0180  0.1362  0.0540
  331loPI   C4B 5296  13.378  17.990   8.429  0.2350 -0.1194  0.3362
  332loPI    C1 5297   7.612  14.881  10.067 -0.0076 -0.3548 -0.1685
  332loPI    C2 5298   7.341  14.923  10.358  0.1727 -0.1535 -0.0266
  332loPI    C3 5299   7.676  14.714  10.424  0.2651 -0.0151 -0.0525
  332loPI   PO4 5300   7.653  15.132  10.001 -0.1998  0.1465 -0.1086
  332loPI   GL1 5301   7.253  15.079   9.648  0.4461  0.2658  0.0527
  332loPI   GL2 5302   7.606  14.922   9.516  0.0523  0.0669  0.0908
  332loPI   C1A 5303   7.165  15.079   9.284  0.2150 -0.1687 -0.0021
  332loPI   C2A 5304   7.049  14.855   8.986  0.0192 -0.0132  0.1962
  332loPI   C3A 5305   7.204  14.729   8.621 -0.3663  0.0012  0.0357
  332loPI   C4A 5306   7.267  14.810   8.254  0.2238  0.0823  0.3809
  332loPI   C5A 5307   7.139  14.913   7.880  0.1536  0.2302  0.0051
  332loPI   C6A 5308   7.038  14.797   7.551  0.0701 -0.0289 -0.3265
  332loPI   C1B 5309   7.654  15.075   9.115 -0.1884 -0.1469  0.0743
  332loPI   C2B 5310   7.632  15.109   8.655  0.0742  0.2107  0.1390
  332loPI   C3B 5311   7.584  15.280   8.235  0.0234  0.1821 -0.1141
  332loPI   C4B 5312   7.439  15.463   7.893 -0.0098 -0.0030  0.0021
  333loPI    C1 5313  15.831   6.444  10.348  0.1462  0.0328  0.0636
  333loPI    C2 5314  15.846   6.045  10.319  0.1200  0.0337  0.0389
  333loPI    C3 5315  16.168   6.249  10.441  0.2275  0.0283 -0.2287
  333loPI   PO4 5316  15.594   6.563  10.436 -0.1341  0.5166  0.2163
  333loPI   GL1 5317  15.204   6.646  10.273 -0.0444 -0.1053 -0.2588
  333loPI   GL2 5318  15.408   6.438   9.980 -0.1565  0.0427  0.1535
  333loPI   C1A 5319  14.990   6.677   9.923  0.4566  0.0797 -0.0804
  333loPI   C2A 5320  15.069   6.839   9.647 -0.0211 -0.3303 -0.2895
  333loPI   C3A 5321  15.112   7.050   9.327  0.1659  0.1001 -0.2424
  333loPI   C4A 5322  15.116   7.210   8.857  0.1066 -0.0898  0.0529
  333loPI   C5A 5323  15.287   7.329   8.451 -0.1959  0.1081 -0.0225
  333loPI   C6A 5324  15.281   7.482   8.110 -0.0598  0.0164  0.3181
  333loPI   C1B 5325  15.742   6.292   9.694  0.3045  0.0661  0.0684
  333loPI   C2B 5326  15.743   6.370   9.192 -0.2526 -0.1601  0.1814
  333loPI   C3B 5327  15.518   6.132   8.938  0.3703 -0.0795 -0.1451
  333loPI   C4B 5328  15.442   5.672   8.729  0.3702 -0.0633 -0.4292
  334loPI    C1 5329  12.270  15.314  10.654  0.0081  0.2068  0.2824
  334loPI    C2 5330  12.287  14.915  10.683  0.0997  0.2018  0.1664
  334loPI    C3 5331  11.936  15.096  10.619  0.0743  0.1321  0.1078
  334loPI   PO4 5332  12.630  15.286  10.519 -0.3296 -0.2368 -0.1386
  334loPI   GL1 5333  13.046  15.296  10.299 -0.1398  0.3722  0.0272
  334loPI   GL2 5334  12.780  15.263  10.037  0.3636  0.2340  0.0391
  334loPI   C1A 5335  13.077  14.911  10.000 -0.0186 -0.0688 -0.1287
  334loPI   C2A 5336  13.330  14.727   9.594 -0.5251 -0.3290 -0.3711
  334loPI   C3A 5337  13.449  14.700   9.229  0.3346 -0.0635 -0.1764
  334loPI   C4A 5338  13.613  14.628   8.867  0.0525  0.1043  0.2311
  334loPI   C5A 5339  13.855  14.573   8.588 -0.3353  0.2903  0.0725
  334loPI   C6A 5340  13.978  14.786   8.205 -0.1847  0.1410 -0.0939
  334loPI   C1B 5341  12.620  15.431   9.584 -0.1884  0.0136 -0.2281
  334loPI   C2B 5342  12.595  15.747   9.279 -0.0076 -0.0139  0.0021
  334loPI   C3B 5343  12.559  15.823   8.875 -0.0892 -0.1910  0.1514
  334loPI   C4B 5344  12.389  15.829   8.406  0.0431 -0.3252  0.0371
  335loPI    C1 5345   9.778   7.332  10.674  0.0347  0.0222 -0.0994
  335loPI    C2 5346   9.502   7.559  10.854  0.1614  0.1822 -0.1050
  335loPI    C3 5347   9.808   7.413  11.065  0.0081 -0.0978 -0.0721
  335loPI   PO4 5348   9.755   7.426  10.394 -0.1300 -0.4175  0.1757
  335loPI   GL1 5349   9.675   7.675   9.974 -0.0241  0.0822 -0.0310
  335loPI   GL2 5350   9.387   7.904   9.930  0.1141 -0.2682  0.1445
  335loPI   C1A 5351   9.944   7.543   9.589 -0.0223  0.1561 -0.0137
  335loPI   C2A 5352  10.011   7.400   9.169  0.1426 -0.1208  0.0541
  335loPI   C3A 5353  10.113   7.168   8.815  0.3277  0.0841  0.1362
  335loPI   C4A 5354  10.241   7.054   8.477  0.3619 -0.2118 -0.3047
  335loPI   C5A 5355  10.662   6.889   8.452  0.3213 -0.1168  0.0448
  335loPI   C6A 5356  10.823   6.670   8.300 -0.0210  0.2094 -0.0102
  335loPI   C1B 5357   9.618   8.154   9.566 -0.1395  0.4127  0.3406
  335loPI   C2B 5358   9.772   8.307   9.234 -0.1075 -0.1688 -0.0663
  335loPI   C3B 5359  10.083   8.620   9.337  0.0496  0.0082  0.0059
  335loPI   C4B 5360  10.242   8.688   9.667  0.0495 -0.1847 -0.1303
  336loPI    C1 5361   4.300  15.924  10.478 -0.1202  0.2872 -0.3604
  336loPI    C2 5362   3.919  15.813  10.426 -0.0316 -0.2226  0.0028
  336loPI    C3 5363   4.035  15.974  10.773  0.0656  0.0302 -0.1446
  336loPI   PO4 5364   4.374  16.006  10.269  0.2779  0.0976 -0.2389
  336loPI   GL1 5365   4.162  16.103   9.983  0.0045  0.1219  0.2006
  336loPI   GL2 5366   4.296  15.794   9.829 -0.1074  0.1518 -0.1708
  336loPI   C1A 5367   4.054  16.131   9.634 -0.1468  0.1629  0.0962
  336loPI   C2A 5368   3.980  16.257   9.174 -0.1185  0.1688 -0.1042
  336loPI   C3A 5369   4.077  16.170   8.794 -0.2666 -0.0160  0.1540
  336loPI   C4A 5370   4.007  15.994   8.444 -0.2560 -0.1290  0.2625
  336loPI   C5A 5371   3.812  15.720   8.124  0.1404  0.3079  0.4450
  336loPI   C6A 5372   3.329  15.464   8.187 -0.3263  0.0150  0.0699
  336loPI   C1B 5373   4.450  15.878   9.452  0.4663  0.1962  0.0434
  336loPI   C2B 5374   4.364  15.857   9.044  0.2472  0.0129 -0.2194
  336loPI   C3B 5375   4.445  15.789   8.612  0.4027  0.0606  0.3322
  336loPI   C4B 5376   4.436  15.808   8.149  0.2693 -0.0744 -0.0693
  337loPI    C1 5377   3.437   1.329  10.593  0.1844  0.1027 -0.0152
  337loPI    C2 5378   3.194   1.504  10.859  0.0836 -0.2784  0.1504
  337loPI    C3 5379   3.581   1.452  10.946  0.1238 -0.0991  0.0818
  337loPI   PO4 5380   3.238   1.233  10.419  0.1251 -0.1321  0.1224
  337loPI   GL1 5381   3.250   0.958  10.075  0.2396 -0.1773  0.4469
  337loPI   GL2 5382   2.946   0.991   9.872 -0.0084 -0.0332  0.0532
  337loPI   C1A 5383   3.583   0.887   9.620 -0.0241  0.1169 -0.1358
  337loPI   C2A 5384   3.552   1.121   9.148  0.1514 -0.0715 -0.0211
  337loPI   C3A 5385   3.605   0.986   8.801  0.0684  0.2163 -0.1156
  337loPI   C4A 5386   3.896   1.168   8.485  0.1145 -0.2225 -0.1853
  337loPI   C5A 5387   4.112   1.465   8.182  0.2490  0.0928  0.0484
  337loPI   C6A 5388   3.992   1.752   7.867 -0.3549 -0.1101 -0.2141
  337loPI   C1B 5389   3.146   1.203   9.481  0.1174 -0.0216 -0.1599
  337loPI   C2B 5390   3.104   1.466   9.194 -0.0608 -0.0935  0.0639
  337loPI   C3B 5391   3.211   1.671   8.752 -0.0189  0.0087 -0.0902
  337loPI   C4B 5392   3.210   1.430   8.358  0.0674  0.0139  0.2450
  338loPI    C1 5393   8.835   7.902  10.827 -0.0972 -0.0284  0.1305
  338loPI    C2 5394   9.037   7.674  11.087 -0.0666 -0.0223  0.1123
  338loPI    C3 5395   8.806   7.503  10.808  0.2403 -0.0449 -0.1333
  338loPI   PO4 5396   9.058   7.987  10.682 -0.0337 -0.0617  0.0337
  338loPI   GL1 5397   9.081   8.209  10.271  0.0798  0.3497  0.1839
  338loPI   GL2 5398   9.320   8.325  10.167  0.0169 -0.0352 -0.1767
  338loPI   C1A 5399   8.853   8.344   9.968 -0.0862  0.0700 -0.3948
  338loPI   C2A 5400   8.799   8.419   9.547 -0.1223 -0.0552 -0.3157
  338loPI   C3A 5401   8.738   8.532   9.180  0.0561 -0.1854 -0.1674
  338loPI   C4A 5402   8.795   8.584   8.808  0.1134  0.0829 -0.0995
  338loPI   C5A 5403   8.827   8.589   8.359 -0.4118  0.0478  0.0610
  338loPI   C6A 5404   8.574   8.752   8.003  0.0087 -0.1624  0.0103
  338loPI   C1B 5405   9.281   8.398   9.765 -0.0118 -0.1443  0.2412
  338loPI   C2B 5406   9.299   8.428   9.331 -0.2290 -0.0398  0.0623
  338loPI   C3B 5407   9.243   8.538   8.883 -0.1146 -0.0995 -0.0913
  338loPI   C4B 5408   9.328   8.660   8.383  0.0570  0.1038 -0.0853
  339POPI    C1 5409   8.859   0.324  10.690 -0.0956 -0.1147 -0.0660
  339POPI    C2 5410   8.986   0.665  10.858  0.3545 -0.2149 -0.1902
  339POPI    C3 5411   8.865   0.361  11.089 -0.1359  0.0530 -0.0801
  339POPI   PO4 5412   8.780   0.427  10.459  0.3281 -0.0817 -0.1408
  339POPI   GL1 5413   8.645   0.211  10.024  0.0176  0.1387 -0.0800
  339POPI   GL2 5414   8.977   0.235   9.907 -0.1936 -0.0884  0.2357
  339POPI   C1A 5415   8.686   0.589   9.810  0.1251  0.1407  0.0587
  339POPI   D2A 5416   8.585   0.721   9.381 -0.1641  0.3501  0.2621
  339POPI   C3A 5417   8.629   0.533   9.055 -0.1959 -0.2623  0.1822
  339POPI   C4A 5418   8.752   0.429   8.613  0.0595  0.0643  0.1875
  339POPI   C1B 5419   8.764   0.173   9.441  0.1373 -0.0723 -0.1644
  339POPI   C2B 5420   8.917   0.040   9.045  0.0112 -0.0924 -0.3321
  339POPI   C3B 5421   9.222   0.348   8.803 -0.0733 -0.1404  0.0560
  339POPI   C4B 5422   9.246   0.533   8.322  0.1224 -0.1326  0.2272
  340POPI    C1 5423  12.585  10.030  11.104 -0.1003 -0.1140  0.0370
  340POPI    C2 5424  12.892  10.251  11.234 -0.1853 -0.0598  0.1473
  340POPI    C3 5425  12.565  10.211  11.460 -0.3357  0.0361 -0.0507
  340POPI   PO4 5426  12.737   9.959  10.855 -0.1221  0.3819  0.0486
  340POPI   GL1 5427  12.562  10.090  10.517 -0.0858  0.1010 -0.1257
  340POPI   GL2 5428  12.342  10.202  10.357  0.2992 -0.2972  0.0335
  340POPI   C1A 5429  12.876  10.009  10.136  0.3969  0.0627  0.0448
  340POPI   D2A 5430  12.957   9.903   9.749 -0.0407  0.1183 -0.0124
  340POPI   C3A 5431  12.879   9.682   9.540  0.3893  0.2713  0.1402
  340POPI   C4A 5432  13.006   9.662   9.142 -0.1006 -0.0347  0.3519
  340POPI   C1B 5433  12.218  10.350   9.926  0.1613  0.2045 -0.0888
  340POPI   C2B 5434  12.208  10.476   9.519 -0.0078 -0.0884  0.0370
  340POPI   C3B 5435  12.290  10.368   9.158  0.1480 -0.0154 -0.0377
  340POPI   C4B 5436  12.228  10.063   8.870 -0.2968 -0.2433 -0.2621
  341POPI    C1 5437  14.646   8.342  11.075  0.0845 -0.0101  0.0111
  341POPI    C2 5438  14.359   8.276  10.805  0.2777  0.1537 -0.2393
  341POPI    C3 5439  14.391   8.039  11.126 -0.1146  0.1148 -0.2247
  341POPI   PO4 5440  14.844   8.264  10.837  0.1242 -0.0629  0.0643
  341POPI   GL1 5441  14.770   8.063  10.440 -0.1679  0.1034 -0.0978
  341POPI   GL2 5442  14.406   8.233  10.289 -0.0703  0.1383  0.1370
  341POPI   C1A 5443  14.878   8.376  10.093 -0.1933 -0.1721 -0.3513
  341POPI   D2A 5444  15.025   8.833  10.074  0.3333  0.0949  0.0691
  341POPI   C3A 5445  15.255   8.874   9.702  0.0008 -0.1893 -0.0055
  341POPI   C4A 5446  15.604   8.653   9.515  0.1507 -0.3576 -0.0711
  341POPI   C1B 5447  14.064   8.013   9.972  0.1733  0.3260 -0.1200
  341POPI   C2B 5448  13.751   8.011   9.742 -0.3949  0.1655 -0.0820
  341POPI   C3B 5449  13.641   8.067   9.305 -0.2981 -0.3496 -0.0502
  341POPI   C4B 5450  13.337   8.237   9.084  0.3411  0.1666 -0.0597
  342POPI    C1 5451  17.700  11.153  10.294  0.1777 -0.2099 -0.0271
  342POPI    C2 5452  17.809  11.362  10.617 -0.1247 -0.1472  0.0365
  342POPI    C3 5453  17.579  11.037  10.657  0.2847 -0.4570 -0.0684
  342POPI   PO4 5454  17.597  11.207  10.131 -0.1965 -0.2277 -0.2033
  342POPI   GL1 5455  17.369  11.244   9.827  0.5218  0.0338 -0.1286
  342POPI   GL2 5456  17.104  11.150   9.966  0.0894  0.2218  0.1904
  342POPI   C1A 5457  17.417  11.505   9.528 -0.2763  0.1309  0.0229
  342POPI   D2A 5458  17.341  11.504   9.113  0.2040  0.5494 -0.1644
  342POPI   C3A 5459  17.573  11.181   8.852 -0.2372 -0.0961  0.0576
  342POPI   C4A 5460  17.795  11.212   8.526 -0.2223 -0.0622  0.0440
  342POPI   C1B 5461  17.037  11.229   9.477  0.1981 -0.0075  0.1820
  342POPI   C2B 5462  16.757  11.178   9.135  0.0675  0.0640  0.0412
  342POPI   C3B 5463  16.854  11.017   8.668 -0.1991 -0.1219  0.1581
  342POPI   C4B 5464  17.065  10.886   8.321 -0.0271 -0.0782  0.0790
  343POPI    C1 5465  14.873  16.937  10.362 -0.0255 -0.1303 -0.1381
  343POPI    C2 5466  14.602  17.195  10.221  0.0479 -0.0011 -0.0455
  343POPI    C3 5467  14.506  16.810  10.268 -0.0898  0.0258 -0.1016
  343POPI   PO4 5468  15.078  16.932  10.304  0.0117  0.1281  0.0967
  343POPI   GL1 5469  15.084  16.961   9.839  0.1902  0.1258 -0.0334
  343POPI   GL2 5470  14.770  16.932   9.847  0.0164  0.3154  0.3301
  343POPI   C1A 5471  15.113  16.937   9.468 -0.1921 -0.0329  0.3837
  343POPI   D2A 5472  15.087  16.834   9.016  0.2032  0.3044  0.1259
  343POPI   C3A 5473  15.085  16.546   8.519 -0.0098  0.2960 -0.2282
  343POPI   C4A 5474  14.755  16.292   8.353  0.2270  0.1451  0.2908
  343POPI   C1B 5475  14.648  17.015   9.480 -0.1342  0.4527  0.0738
  343POPI   C2B 5476  14.614  17.048   9.054 -0.0667 -0.1758 -0.2254
  343POPI   C3B 5477  14.641  16.736   8.653 -0.0543 -0.5394 -0.2699
  343POPI   C4B 5478  14.362  16.597   8.322 -0.1535 -0.2029  0.2752
  344POPI    C1 5479   1.317  16.668  10.327  0.0621 -0.2800 -0.2819
  344POPI    C2 5480   1.687  16.660  10.175  0.3272 -0.0572  0.3206
  344POPI    C3 5481   1.591  16.932  10.452 -0.3886  0.0922 -0.0517
  344POPI   PO4 5482   1.137  16.654  10.139  0.1769 -0.1161  0.0203
  344POPI   GL1 5483   0.987  16.900   9.660  0.2306  0.0267  0.0445
  344POPI   GL2 5484   0.804  16.962   9.430 -0.1055 -0.2306 -0.1876
  344POPI   C1A 5485   1.329  16.860   9.288  0.2552  0.0942  0.2677
  344POPI   D2A 5486   1.551  16.623   8.978 -0.1189 -0.0419  0.1627
  344POPI   C3A 5487   1.449  16.797   8.583  0.2088 -0.0286  0.1551
  344POPI   C4A 5488   1.297  16.798   8.118  0.2507  0.1047  0.0319
  344POPI   C1B 5489   0.966  16.738   8.921  0.4409  0.2617  0.1255
  344POPI   C2B 5490   0.788  16.695   8.457  0.3027 -0.0353 -0.1371
  344POPI   C3B 5491   0.787  16.691   8.022  0.0102 -0.0040  0.1713
  344POPI   C4B 5492   0.518  16.693   7.608  0.1840 -0.0266 -0.0717
  345POPI    C1 5493   6.838  16.885  10.425  0.2140 -0.2885  0.2487
  345POPI    C2 5494   6.713  17.011  10.784  0.3146  0.3574  0.0689
  345POPI    C3 5495   7.083  16.865  10.741  0.3072  0.2906  0.2231
  345POPI   PO4 5496   6.679  17.132  10.273  0.4225 -0.0894 -0.0995
  345POPI   GL1 5497   6.756  17.278   9.913  0.0603  0.3170 -0.0353
  345POPI   GL2 5498   6.874  17.561   9.920 -0.2777  0.0407  0.0684
  345POPI   C1A 5499   6.954  17.059   9.479 -0.1154 -0.0756 -0.1831
  345POPI   D2A 5500   7.054  17.293   9.052  0.0426  0.1976 -0.1072
  345POPI   C3A 5501   7.163  17.011   8.637 -0.0485 -0.1144  0.0386
  345POPI   C4A 5502   7.275  17.088   8.228  0.1223  0.2057  0.2477
  345POPI   C1B 5503   6.707  17.539   9.508 -0.1068 -0.0418 -0.0604
  345POPI   C2B 5504   6.453  17.180   9.198 -0.0361 -0.0060 -0.1257
  345POPI   C3B 5505   6.162  17.322   8.918 -0.1809 -0.1536 -0.1566
  345POPI   C4B 5506   6.041  17.705   8.873  0.1886  0.3056  0.1716
  346POPI    C1 5507  10.636   9.214  10.936  0.0222  0.3657  0.1733
  346POPI    C2 5508  10.727   8.921  11.193 -0.1441  0.1096 -0.0540
  346POPI    C3 5509  10.396   9.138  11.247 -0.1560  0.0848 -0.0279
  346POPI   PO4 5510  10.700   9.127  10.706 -0.1548 -0.0772  0.2531
  346POPI   GL1 5511  10.697   8.911  10.422 -0.3719 -0.2828 -0.3308
  346POPI   GL2 5512  10.568   9.119  10.174 -0.0617 -0.0665 -0.1868
  346POPI   C1A 5513  10.750   8.448  10.465  0.1224 -0.1196 -0.2630
  346POPI   D2A 5514  10.961   8.134  10.281 -0.0046 -0.0333  0.0477
  346POPI   C3A 5515  11.039   7.964   9.839 -0.0130  0.2332 -0.0148
  346POPI   C4A 5516  10.986   7.795   9.511  0.3894 -0.2860 -0.0672
  346POPI   C1B 5517  10.437   9.241   9.702 -0.0408 -0.1431 -0.1535
  346POPI   C2B 5518  10.400   9.037   9.342  0.3996  0.0223 -0.0183
  346POPI   C3B 5519  10.324   8.927   9.024  0.3240 -0.2724 -0.2389
  346POPI   C4B 5520   9.923   8.635   8.755  0.1504 -0.3427  0.1523
  347POPI    C1 5521  14.101   0.672  10.252  0.0090 -0.1110  0.0405
  347POPI    C2 5522  13.907   1.023  10.255 -0.1302 -0.1875  0.2267
  347POPI    C3 5523  14.113   0.905  10.577  0.2607 -0.0916  0.0194
  347POPI   PO4 5524  13.993   0.545  10.111  0.2046  0.1417 -0.0166
  347POPI   GL1 5525  13.966   0.387   9.782  0.1103  0.1902  0.0237
  347POPI   GL2 5526  13.921   0.080   9.747  0.1844 -0.2478 -0.2225
  347POPI   C1A 5527  14.171   0.482   9.439  0.1611 -0.2185  0.3114
  347POPI   D2A 5528  14.195   0.339   9.053  0.3648 -0.4854  0.3004
  347POPI   C3A 5529  14.032   0.425   8.612 -0.1304  0.2888  0.0797
  347POPI   C4A 5530  13.914   0.453   8.230  0.1057  0.2202  0.3547
  347POPI   C1B 5531  14.281   0.014   9.373 -0.0563  0.1006  0.0319
  347POPI   C2B 5532  14.294  -0.200   8.969  0.1810  0.1745  0.0327
  347POPI   C3B 5533  14.268  -0.266   8.497 -0.1301 -0.2099 -0.2100
  347POPI   C4B 5534  14.305   0.056   8.122  0.1671  0.0525  0.1367
  348POPI    C1 5535  17.322  12.517  10.585 -0.2125  0.2668 -0.1705
  348POPI    C2 5536  17.139  12.759  10.846 -0.2820  0.1060 -0.0685
  348POPI    C3 5537  17.307  12.419  10.973  0.1889  0.3039 -0.1416
  348POPI   PO4 5538  17.199  12.591  10.416  0.0324  0.0727  0.1267
  348POPI   GL1 5539  17.359  12.578  10.044 -0.1791  0.0604 -0.1231
  348POPI   GL2 5540  17.685  12.762   9.943 -0.0751 -0.3514 -0.1142
  348POPI   C1A 5541  17.346  12.508   9.661 -0.0915  0.1157  0.2827
  348POPI   D2A 5542  17.478  12.483   9.224 -0.5168 -0.0725 -0.1262
  348POPI   C3A 5543  17.215  12.398   8.812 -0.1289  0.2533 -0.0378
  348POPI   C4A 5544  16.884  12.326   8.451  0.0222 -0.2084 -0.1012
  348POPI   C1B 5545  17.887  12.571   9.501  0.1523  0.0994  0.1110
  348POPI   C2B 5546  17.973  12.493   9.044  0.2949  0.1237  0.1411
  348POPI   C3B 5547  18.090  12.524   8.594 -0.2404 -0.2504 -0.0389
  348POPI   C4B 5548  18.237  12.501   8.147  0.1584 -0.0478 -0.0200
  349POPI    C1 5549  12.849   7.350  11.253 -0.2187  0.2405  0.0075
  349POPI    C2 5550  12.651   7.534  11.547  0.1368  0.2916  0.2213
  349POPI    C3 5551  12.958   7.293  11.634 -0.0585 -0.0767 -0.0818
  349POPI   PO4 5552  13.013   7.548  11.073 -0.2652 -0.0043  0.1049
  349POPI   GL1 5553  13.202   7.509  10.671 -0.0817 -0.2755 -0.1821
  349POPI   GL2 5554  13.022   7.744  10.551  0.0227  0.1359  0.4823
  349POPI   C1A 5555  13.320   7.530  10.195 -0.0244  0.1389  0.0856
  349POPI   D2A 5556  13.352   7.669   9.752 -0.0305  0.0017  0.0396
  349POPI   C3A 5557  13.279   7.674   9.284  0.1962 -0.0520 -0.0022
  349POPI   C4A 5558  13.481   7.740   8.931 -0.1930  0.0843 -0.2720
  349POPI   C1B 5559  12.920   7.807  10.127 -0.2425 -0.0797 -0.0343
  349POPI   C2B 5560  12.515   7.873   9.762 -0.0450 -0.1245  0.0637
  349POPI   C3B 5561  12.458   7.712   9.391  0.0575  0.1810  0.0309
  349POPI   C4B 5562  12.427   7.739   9.043 -0.0003 -0.0485 -0.0804
  350POPI    C1 5563   4.189  13.356  10.707  0.2100 -0.2545 -0.0089
  350POPI    C2 5564   3.893  13.602  10.812  0.4778  0.1343 -0.1438
  350POPI    C3 5565   3.873  13.215  10.908  0.1034  0.2249  0.1740
  350POPI   PO4 5566   4.194  13.394  10.445  0.1578  0.0407  0.1469
  350POPI   GL1 5567   4.399  13.227  10.154  0.0999  0.0404  0.1583
  350POPI   GL2 5568   4.277  12.941  10.060 -0.1720 -0.1054 -0.0278
  350POPI   C1A 5569   4.544  13.435   9.748  0.0431  0.0203 -0.0556
  350POPI   D2A 5570   4.802  13.291   9.439  0.0630 -0.0832  0.2852
  350POPI   C3A 5571   4.979  12.849   9.301 -0.1784 -0.2086 -0.0142
  350POPI   C4A 5572   5.169  12.674   8.921 -0.1807 -0.0335  0.0389
  350POPI   C1B 5573   4.196  13.133   9.716  0.0562 -0.0290  0.3886
  350POPI   C2B 5574   4.103  13.258   9.292  0.0194  0.2728 -0.2834
  350POPI   C3B 5575   4.279  13.209   8.925 -0.3497 -0.0127 -0.2111
  350POPI   C4B 5576   4.221  13.322   8.512  0.0000  0.4716 -0.1446
  351POPI    C1 5577   8.950   1.147  10.113 -0.0756  0.0626 -0.1362
  351POPI    C2 5578   8.922   0.873  10.403  0.2640 -0.1018 -0.2525
  351POPI    C3 5579   9.070   1.236  10.485 -0.2349  0.0739 -0.0869
  351POPI   PO4 5580   8.671   1.237  10.006  0.2727  0.0136 -0.3149
  351POPI   GL1 5581   8.570   1.191   9.670 -0.0054  0.0375  0.3637
  351POPI   GL2 5582   8.830   1.071   9.575  0.3105 -0.0738  0.2781
  351POPI   C1A 5583   8.482   1.250   9.292  0.2882  0.0432 -0.1533
  351POPI   D2A 5584   8.526   1.288   8.887  0.1896  0.0032 -0.0671
  351POPI   C3A 5585   8.901   1.378   8.737 -0.4297 -0.1529 -0.0443
  351POPI   C4A 5586   9.187   1.402   8.928  0.1317  0.1525 -0.2217
  351POPI   C1B 5587   8.899   1.107   9.181  0.1599  0.0311  0.1383
  351POPI   C2B 5588   8.763   0.896   8.733 -0.0249  0.1435  0.0816
  351POPI   C3B 5589   8.881   0.901   8.305  0.1872  0.0274 -0.2417
  351POPI   C4B 5590   8.688   0.671   7.926 -0.1439  0.3597 -0.1447
  352POPI    C1 5591  12.454  14.392  10.648  0.0265  0.1206 -0.0530
  352POPI    C2 5592  12.147  14.163  10.763  0.2012 -0.2788 -0.3591
  352POPI    C3 5593  12.494  14.148  10.962  0.2018 -0.2532 -0.3583
  352POPI   PO4 5594  12.461  14.377  10.393  0.0967 -0.2697 -0.1625
  352POPI   GL1 5595  12.515  14.236  10.011 -0.0546 -0.1457  0.1921
  352POPI   GL2 5596  12.866  14.225  10.141  0.1886 -0.1071  0.0420
  352POPI   C1A 5597  12.549  14.301   9.605  0.0541 -0.0576  0.0678
  352POPI   D2A 5598  12.682  14.211   9.126  0.0283 -0.0547  0.0572
  352POPI   C3A 5599  12.656  14.381   8.724  0.0792 -0.3999  0.3188
  352POPI   C4A 5600  12.885  14.239   8.357  0.1371 -0.0871  0.0299
  352POPI   C1B 5601  12.929  14.422   9.860 -0.0598 -0.3076 -0.4470
  352POPI   C2B 5602  12.961  14.563   9.399  0.2497  0.0662  0.1140
  352POPI   C3B 5603  12.996  14.642   8.983 -0.1946 -0.0180  0.0686
  352POPI   C4B 5604  13.034  14.743   8.588 -0.1175 -0.0284  0.0713
  353POPI    C1 5605   3.162   9.648  10.466 -0.1721 -0.1947 -0.1333
  353POPI    C2 5606   3.401   9.663  10.787  0.0606 -0.1431 -0.3056
  353POPI    C3 5607   3.124   9.375  10.756 -0.0835 -0.0442  0.0214
  353POPI   PO4 5608   3.234   9.765  10.300  0.0793 -0.1047 -0.1947
  353POPI   GL1 5609   3.212   9.492   9.910  0.0798 -0.1667  0.4047
  353POPI   GL2 5610   3.470   9.718   9.860 -0.2204  0.0812  0.2861
  353POPI   C1A 5611   3.083   9.687   9.489  0.1252  0.1166 -0.0943
  353POPI   D2A 5612   2.939   9.940   9.130 -0.2881 -0.1939  0.0105
  353POPI   C3A 5613   3.099   9.867   8.696 -0.1501 -0.1417  0.2565
  353POPI   C4A 5614   3.354   9.934   8.290 -0.0229 -0.3067 -0.0709
  353POPI   C1B 5615   3.520   9.520   9.474  0.0293 -0.6669  0.1855
  353POPI   C2B 5616   3.381   9.656   9.077 -0.2728 -0.1883  0.1438
  353POPI   C3B 5617   3.633   9.664   8.594  0.0741 -0.2199  0.3120
  353POPI   C4B 5618   3.525   9.441   8.220  0.0483 -0.1162  0.1718
  354POPI    C1 5619   4.896  15.356  10.315 -0.0021 -0.0641 -0.0593
  354POPI    C2 5620   5.121  15.032  10.380  0.1162  0.0094 -0.0979
  354POPI    C3 5621   4.886  15.174  10.671  0.2124  0.0038 -0.0170
  354POPI   PO4 5622   4.855  15.358  10.130 -0.0638  0.4120  0.1475
  354POPI   GL1 5623   4.790  15.497   9.709  0.0301 -0.0881 -0.1039
  354POPI   GL2 5624   5.127  15.584   9.725  0.1458  0.1245 -0.2114
  354POPI   C1A 5625   4.850  15.570   9.167  0.2873 -0.1355 -0.1433
  354POPI   D2A 5626   4.954  15.530   8.719  0.1090  0.2870  0.1735
  354POPI   C3A 5627   5.289  15.673   8.364  0.3815 -0.2765 -0.1727
  354POPI   C4A 5628   5.129  15.391   7.948 -0.1332  0.3836 -0.1232
  354POPI   C1B 5629   5.292  15.772   9.322 -0.0184 -0.0217  0.1032
  354POPI   C2B 5630   5.457  15.945   8.929  0.0674 -0.1634  0.0479
  354POPI   C3B 5631   5.342  16.044   8.633 -0.0863  0.3609 -0.4533
  354POPI   C4B 5632   5.371  16.150   8.136 -0.0158 -0.1946 -0.2598
  355POPI    C1 5633   9.103   2.523  10.795 -0.2547 -0.1100  0.2455
  355POPI    C2 5634   9.164   2.876  10.973  0.3577 -0.1704  0.1753
  355POPI    C3 5635   9.295   2.539  11.146  0.0190 -0.3401  0.1103
  355POPI   PO4 5636   8.827   2.481  10.677  0.2858  0.4002 -0.0141
  355POPI   GL1 5637   8.497   2.559  10.306  0.0331  0.1870 -0.0542
  355POPI   GL2 5638   8.792   2.793  10.280  0.1600  0.1122  0.1131
  355POPI   C1A 5639   8.247   2.571   9.867 -0.2210  0.1945 -0.1579
  355POPI   D2A 5640   8.241   2.784   9.458 -0.0983  0.2162 -0.1483
  355POPI   C3A 5641   8.089   2.770   9.028  0.0433 -0.3444  0.0336
  355POPI   C4A 5642   7.894   2.505   8.704  0.2996  0.1635 -0.3312
  355POPI   C1B 5643   9.104   3.073  10.051 -0.0514 -0.1924 -0.1905
  355POPI   C2B 5644   9.197   3.188   9.645 -0.1641 -0.1685  0.2414
  355POPI   C3B 5645   9.227   3.343   9.199  0.2810 -0.1699  0.1159
  355POPI   C4B 5646   9.217   3.439   8.754  0.0355  0.1373 -0.0184
  356POPI    C1 5647   0.659  12.779  10.271  0.1371  0.1518 -0.0096
  356POPI    C2 5648   0.370  12.711  10.539  0.0650 -0.0391 -0.1340
  356POPI    C3 5649   0.711  12.885  10.654 -0.0812  0.1496  0.0221
  356POPI   PO4 5650   0.523  12.721  10.052  0.1053 -0.0688  0.1671
  356POPI   GL1 5651   0.669  12.752   9.687  0.2115 -0.4172  0.1717
  356POPI   GL2 5652   0.639  13.053   9.594  0.1738  0.0875 -0.1852
  356POPI   C1A 5653   0.737  12.663   9.279 -0.2112  0.0336 -0.2015
  356POPI   D2A 5654   0.743  12.792   8.831 -0.1587  0.0287 -0.1471
  356POPI   C3A 5655   0.764  12.821   8.475 -0.2741  0.0003  0.0645
  356POPI   C4A 5656   0.532  12.633   8.085 -0.1193 -0.1408 -0.2070
  356POPI   C1B 5657   0.807  13.191   9.177  0.2533 -0.4014 -0.1065
  356POPI   C2B 5658   0.831  13.297   8.683  0.2161  0.3410 -0.0053
  356POPI   C3B 5659   0.954  13.233   8.265 -0.1536 -0.1173  0.0685
  356POPI   C4B 5660   0.626  13.141   7.984  0.1185 -0.0511  0.1307
  357POPI    C1 5661   9.282   9.391  10.715 -0.0361  0.2162  0.0312
  357POPI    C2 5662   8.888   9.427  10.654 -0.0568  0.1237  0.1077
  357POPI    C3 5663   9.095   9.144  10.462 -0.0780 -0.0080  0.2770
  357POPI   PO4 5664   9.289   9.696  10.655 -0.0709 -0.2687 -0.3920
  357POPI   GL1 5665   9.322   9.799  10.302 -0.0795 -0.0560  0.3001
  357POPI   GL2 5666   9.629  10.028  10.177 -0.1302  0.1639  0.1900
  357POPI   C1A 5667   9.128  10.120  10.053  0.1594  0.2719 -0.2723
  357POPI   D2A 5668   9.413  10.340   9.652 -0.0562  0.4243  0.0190
  357POPI   C3A 5669   9.806  10.160   9.422  0.0971 -0.1218  0.0356
  357POPI   C4A 5670   9.983  10.281   8.985 -0.0833  0.0202  0.0440
  357POPI   C1B 5671   9.467   9.794   9.853 -0.2835  0.1176 -0.3503
  357POPI   C2B 5672   9.351   9.871   9.421  0.1770 -0.3335 -0.0028
  357POPI   C3B 5673   9.548   9.984   8.995  0.1901 -0.1135  0.0897
  357POPI   C4B 5674   9.605  10.181   8.587 -0.2017  0.2858 -0.3090
  358POPI    C1 5675   8.624   8.802  10.997 -0.1700  0.1923  0.0682
  358POPI    C2 5676   8.404   8.468  10.998  0.2308 -0.0790  0.1506
  358POPI    C3 5677   8.651   8.545  11.302 -0.0313  0.4169  0.2480
  358POPI   PO4 5678   8.698   8.871  10.744  0.1602 -0.0069 -0.0771
  358POPI   GL1 5679   8.524   8.891  10.332 -0.2404 -0.0708  0.0758
  358POPI   GL2 5680   8.596   9.190  10.269 -0.4034  0.4728 -0.2793
  358POPI   C1A 5681   8.444   8.765   9.884  0.2393  0.1173 -0.1176
  358POPI   D2A 5682   8.373   8.749   9.455 -0.1260 -0.2351 -0.1428
  358POPI   C3A 5683   8.220   8.880   9.126 -0.1627  0.0892 -0.1575
  358POPI   C4A 5684   8.516   8.999   8.793 -0.0381 -0.3257  0.2591
  358POPI   C1B 5685   8.734   9.154   9.900  0.0681  0.1580  0.2395
  358POPI   C2B 5686   8.646   9.217   9.646 -0.3359 -0.0405  0.0686
  358POPI   C3B 5687   8.616   9.271   9.258 -0.3365 -0.2018 -0.2991
  358POPI   C4B 5688   8.919   9.403   8.903  0.1774  0.0769  0.3862
  359POPI    C1 5689  16.606   2.458  10.524  0.1863  0.0729  0.1354
  359POPI    C2 5690  16.383   2.303  10.818  0.0252 -0.0011 -0.0236
  359POPI    C3 5691  16.720   2.501  10.905  0.0020 -0.0598  0.2069
  359POPI   PO4 5692  16.390   2.468  10.275 -0.2382  0.3054 -0.1517
  359POPI   GL1 5693  16.448   2.265   9.844  0.1280 -0.1318 -0.0299
  359POPI   GL2 5694  16.103   2.224   9.841  0.0511  0.0457 -0.0978
  359POPI   C1A 5695  16.650   2.481   9.470 -0.2059  0.0851  0.0188
  359POPI   D2A 5696  16.827   2.602   9.200 -0.1709  0.0041  0.0500
  359POPI   C3A 5697  16.678   2.526   8.912  0.0273  0.0227  0.1437
  359POPI   C4A 5698  16.801   2.472   8.507 -0.1174 -0.0133  0.5240
  359POPI   C1B 5699  16.024   2.363   9.525  0.3429 -0.1046  0.3749
  359POPI   C2B 5700  16.226   2.453   9.199 -0.1750 -0.1492 -0.3518
  359POPI   C3B 5701  16.260   2.367   8.678 -0.0512  0.3012 -0.0669
  359POPI   C4B 5702  16.367   2.193   8.392 -0.0603  0.2030 -0.1830
  360POPI    C1 5703  16.656   5.166  10.536 -0.0535  0.0309 -0.2023
  360POPI    C2 5704  17.038   5.189  10.654 -0.0306  0.0512 -0.2800
  360POPI    C3 5705  16.768   5.003  10.884  0.0031  0.1367 -0.1706
  360POPI   PO4 5706  16.720   5.376  10.329 -0.0594  0.0303  0.1119
  360POPI   GL1 5707  16.559   5.490   9.955 -0.0009 -0.0178 -0.0077
  360POPI   GL2 5708  16.476   5.845   9.766 -0.3052  0.1867 -0.2113
  360POPI   C1A 5709  16.577   5.360   9.530 -0.0828  0.0634  0.0117
  360POPI   D2A 5710  16.740   5.273   9.038 -0.2804 -0.0307 -0.0868
  360POPI   C3A 5711  16.992   5.207   8.578  0.1322  0.3775 -0.1474
  360POPI   C4A 5712  16.987   5.127   8.173 -0.2025 -0.0019  0.1213
  360POPI   C1B 5713  16.265   5.850   9.427 -0.0885  0.1290 -0.1376
  360POPI   C2B 5714  16.350   5.572   9.007  0.1389  0.2448 -0.3929
  360POPI   C3B 5715  16.356   5.696   8.594 -0.2807  0.2064 -0.1049
  360POPI   C4B 5716  16.749   5.603   8.355  0.1110  0.3022  0.0407
  361POPI    C1 5717   2.685   3.155  10.753 -0.0897 -0.1222 -0.1891
  361POPI    C2 5718   2.324   2.991  10.800 -0.0556 -0.1376  0.0316
  361POPI    C3 5719   2.639   2.836  10.991  0.0439 -0.0423 -0.0543
  361POPI   PO4 5720   2.766   3.130  10.496  0.0731  0.1153  0.4035
  361POPI   GL1 5721   2.906   3.039  10.063  0.4639  0.3048  0.1060
  361POPI   GL2 5722   3.048   2.785   9.949 -0.0989  0.0263 -0.0275
  361POPI   C1A 5723   2.737   3.125   9.694 -0.0597  0.2524 -0.0070
  361POPI   D2A 5724   2.246   3.119   9.528  0.1974 -0.1547  0.5119
  361POPI   C3A 5725   2.212   3.116   9.039  0.0980  0.0383 -0.0437
  361POPI   C4A 5726   2.067   3.118   8.656 -0.1031 -0.1776  0.2683
  361POPI   C1B 5727   3.073   2.478   9.544 -0.0390  0.0315  0.0640
  361POPI   C2B 5728   3.109   2.514   9.175  0.1553 -0.0432  0.0020
  361POPI   C3B 5729   3.005   2.595   8.719 -0.1624 -0.0115 -0.0897
  361POPI   C4B 5730   3.140   2.502   8.271 -0.0991 -0.0695  0.1286
  362POPI    C1 5731  12.666   3.876  10.472  0.0767 -0.0386 -0.1824
  362POPI    C2 5732  12.718   4.193  10.710  0.1180 -0.0088 -0.2311
  362POPI    C3 5733  12.883   3.842  10.807 -0.0145 -0.0423 -0.1232
  362POPI   PO4 5734  12.398   4.020  10.299 -0.1462  0.0245  0.3158
  362POPI   GL1 5735  12.117   4.350  10.105  0.2371 -0.1558  0.3678
  362POPI   GL2 5736  12.047   4.687   9.937  0.1945 -0.4608 -0.1120
  362POPI   C1A 5737  12.039   4.315   9.647  0.1132 -0.0429 -0.1105
  362POPI   D2A 5738  12.088   4.393   9.178 -0.1894 -0.2006 -0.2256
  362POPI   C3A 5739  11.950   3.937   9.053  0.1215  0.0659 -0.3473
  362POPI   C4A 5740  11.697   3.833   8.840  0.0190  0.0893  0.3521
  362POPI   C1B 5741  12.194   4.833   9.565 -0.0142  0.2022  0.1672
  362POPI   C2B 5742  12.253   4.825   9.226 -0.1262  0.2598  0.1648
  362POPI   C3B 5743  12.430   4.657   8.758 -0.1065 -0.0245 -0.2622
  362POPI   C4B 5744  12.366   4.420   8.370 -0.0599 -0.2328  0.2804
  363POPI    C1 5745  10.285   7.351  10.834 -0.0304  0.1791  0.1705
  363POPI    C2 5746  10.639   7.300  11.012  0.0053  0.1105  0.0802
  363POPI    C3 5747  10.305   7.310  11.231  0.0329 -0.1394  0.1370
  363POPI   PO4 5748  10.272   7.556  10.627  0.0306 -0.0820  0.0461
  363POPI   GL1 5749  10.491   7.558  10.168  0.0098 -0.2133  0.2297
  363POPI   GL2 5750  10.171   7.646  10.080 -0.4825 -0.1844  0.0980
  363POPI   C1A 5751  10.899   7.438   9.847  0.1503  0.3033  0.0911
  363POPI   D2A 5752  11.254   7.292   9.654  0.0742 -0.2522 -0.0779
  363POPI   C3A 5753  11.145   7.425   9.275  0.3535  0.1056 -0.0078
  363POPI   C4A 5754  10.930   7.590   8.987 -0.1437  0.1082 -0.1351
  363POPI   C1B 5755  10.487   7.666   9.670  0.0152 -0.3446  0.1265
  363POPI   C2B 5756  10.559   7.783   9.193  0.3393 -0.2051  0.2922
  363POPI   C3B 5757  10.736   7.978   8.844  0.4734 -0.4296 -0.0349
  363POPI   C4B 5758  10.719   8.215   8.525  0.2468  0.0008  0.1488
  364POPI    C1 5759  17.748   4.163  10.482  0.0355 -0.1804 -0.1123
  364POPI    C2 5760  17.458   4.311  10.714  0.1041  0.0026 -0.1413
  364POPI    C3 5761  17.793   4.522  10.654  0.3167 -0.2802  0.0289
  364POPI   PO4 5762  17.636   4.065  10.296 -0.1284  0.1517 -0.0682
  364POPI   GL1 5763  17.602   3.917  10.031  0.1989  0.0208 -0.1239
  364POPI   GL2 5764  17.383   3.657   9.932  0.2229 -0.1304 -0.0037
  364POPI   C1A 5765  17.956   3.848   9.703  0.3984 -0.2520 -0.1150
  364POPI   D2A 5766  17.941   3.907   9.258  0.0142 -0.1453  0.0796
  364POPI   C3A 5767  17.724   4.198   9.003 -0.1801  0.0053  0.1164
  364POPI   C4A 5768  17.384   4.358   8.750 -0.1167  0.0296 -0.2585
  364POPI   C1B 5769  17.596   3.531   9.501 -0.2634  0.1728  0.0902
  364POPI   C2B 5770  17.745   3.583   8.967 -0.0832 -0.0174  0.2951
  364POPI   C3B 5771  17.964   3.878   8.651 -0.0637  0.1362  0.0676
  364POPI   C4B 5772  17.776   4.213   8.470 -0.3023  0.0883  0.0387
  365POPI    C1 5773  10.907  15.492  10.777 -0.3358  0.1407  0.0350
  365POPI    C2 5774  10.617  15.216  10.777 -0.1834 -0.0238 -0.2079
  365POPI    C3 5775  10.756  15.361  11.123 -0.2541 -0.2641 -0.0771
  365POPI   PO4 5776  11.026  15.376  10.469 -0.1968 -0.0269 -0.0278
  365POPI   GL1 5777  10.839  15.465  10.073  0.0338 -0.1111  0.2353
  365POPI   GL2 5778  11.059  15.640  10.006 -0.0829  0.0306 -0.1401
  365POPI   C1A 5779  10.770  15.344   9.725  0.1951 -0.0263 -0.3994
  365POPI   D2A 5780  10.724  15.201   9.376  0.1522  0.1314  0.2340
  365POPI   C3A 5781  10.665  14.812   9.417  0.0137  0.1417 -0.1768
  365POPI   C4A 5782  10.779  14.555   9.233 -0.3381  0.0284 -0.1452
  365POPI   C1B 5783  11.359  15.593   9.673 -0.1612 -0.1317  0.2687
  365POPI   C2B 5784  11.441  15.272   9.378 -0.3072  0.3122 -0.0062
  365POPI   C3B 5785  11.714  15.367   9.027 -0.0330 -0.1350  0.1046
  365POPI   C4B 5786  11.850  15.341   8.576 -0.1858  0.3249  0.0234
  366POPI    C1 5787   9.739  17.491  10.622 -0.1341 -0.0738  0.0775
  366POPI    C2 5788   9.473  17.742  10.784 -0.0451 -0.0062  0.1195
  366POPI    C3 5789   9.538  17.384  10.951  0.0520  0.0666  0.2393
  366POPI   PO4 5790   9.702  17.486  10.332  0.2307 -0.1118  0.0485
  366POPI   GL1 5791   9.654  17.310   9.900 -0.0423 -0.2054 -0.0134
  366POPI   GL2 5792   9.455  17.274   9.979 -0.1090  0.0047  0.0122
  366POPI   C1A 5793   9.644  17.239   9.441  0.0549 -0.0236  0.3024
  366POPI   D2A 5794   9.562  17.373   9.023  0.0799  0.2065  0.3286
  366POPI   C3A 5795   9.612  17.272   8.550 -0.0527 -0.1104 -0.3921
  366POPI   C4A 5796   9.590  17.216   8.078  0.1396 -0.1429  0.1520
  366POPI   C1B 5797   9.218  17.483   9.610 -0.2335  0.5148 -0.0385
  366POPI   C2B 5798   9.367  17.799   9.404  0.0321  0.3831 -0.3427
  366POPI   C3B 5799   9.399  18.064   9.010 -0.2301 -0.2986  0.0111
  366POPI   C4B 5800   9.304  18.211   8.568  0.0130  0.5321  0.1301
  367POPI    C1 5801  16.264  16.332  10.240 -0.1274 -0.1569  0.0436
  367POPI    C2 5802  16.445  16.059  10.469  0.0565  0.0394  0.1355
  367POPI    C3 5803  16.196  16.325  10.634  0.0151  0.0394  0.0734
  367POPI   PO4 5804  16.413  16.402  10.063  0.1334 -0.4530 -0.1542
  367POPI   GL1 5805  16.443  16.535   9.751 -0.0714  0.0447 -0.1039
  367POPI   GL2 5806  16.427  16.868   9.756 -0.2954  0.0270  0.0602
  367POPI   C1A 5807  16.601  16.508   9.398 -0.1806  0.4519 -0.1935
  367POPI   D2A 5808  16.519  16.655   8.966 -0.0062  0.1649 -0.2956
  367POPI   C3A 5809  16.507  16.652   8.531 -0.0422 -0.2215  0.1555
  367POPI   C4A 5810  16.300  16.972   8.292 -0.1404 -0.1620  0.2535
  367POPI   C1B 5811  16.180  16.736   9.364 -0.2149  0.0550  0.4722
  367POPI   C2B 5812  16.189  17.115   9.077  0.2384  0.0720 -0.1549
  367POPI   C3B 5813  16.063  17.332   8.638 -0.0219  0.1451 -0.2828
  367POPI   C4B 5814  16.038  17.458   8.197  0.0720 -0.0049  0.0197
  368POPI    C1 5815   2.463   6.071  10.495  0.0911 -0.1708  0.1762
  368POPI    C2 5816   2.098   5.934  10.405  0.0434 -0.0030  0.1096
  368POPI    C3 5817   2.187   6.031  10.782 -0.0510  0.1612  0.0902
  368POPI   PO4 5818   2.457   6.255  10.283  0.0845 -0.0727  0.1310
  368POPI   GL1 5819   2.202   6.380   9.912 -0.1545 -0.2203  0.1024
  368POPI   GL2 5820   2.292   6.737  10.006  0.1601  0.1041  0.0945
  368POPI   C1A 5821   2.034   6.610   9.563 -0.1168  0.0566  0.0606
  368POPI   D2A 5822   1.740   6.665   9.300  0.4205  0.1770  0.1781
  368POPI   C3A 5823   1.848   6.979   8.988  0.0967 -0.2826 -0.3363
  368POPI   C4A 5824   2.092   6.904   8.687 -0.0112  0.1504  0.1736
  368POPI   C1B 5825   2.414   6.941   9.697  0.2607  0.0991  0.2109
  368POPI   C2B 5826   2.524   7.218   9.456 -0.0084  0.2452  0.3979
  368POPI   C3B 5827   2.613   7.532   9.218  0.1517  0.1252  0.2645
  368POPI   C4B 5828   2.943   7.473   8.964  0.2082  0.0248 -0.2379
  369POPI    C1 5829   2.595  18.042  10.406  0.3890 -0.0532  0.1725
  369POPI    C2 5830   2.438  18.255  10.707 -0.0816 -0.0696 -0.0531
  369POPI    C3 5831   2.639  17.918  10.784 -0.1322 -0.0336  0.2474
  369POPI   PO4 5832   2.356  18.038  10.231 -0.0084 -0.0130 -0.4960
  369POPI   GL1 5833   2.344  17.663   9.857 -0.1321  0.0578 -0.1367
  369POPI   GL2 5834   2.620  17.662  10.063  0.0056 -0.1499 -0.2014
  369POPI   C1A 5835   2.301  17.722   9.413 -0.0010 -0.2955 -0.0738
  369POPI   D2A 5836   2.172  17.473   9.188 -0.0631  0.2806  0.3484
  369POPI   C3A 5837   2.286  17.262   8.779  0.0533  0.1392 -0.1350
  369POPI   C4A 5838   2.326  17.127   8.455  0.0292  0.1212 -0.2646
  369POPI   C1B 5839   2.919  17.709   9.653 -0.1614  0.0903  0.1845
  369POPI   C2B 5840   2.859  17.758   9.325 -0.2130 -0.2795  0.0466
  369POPI   C3B 5841   2.564  17.732   8.967  0.1738  0.1312 -0.0340
  369POPI   C4B 5842   2.438  17.781   8.607  0.2193  0.3047  0.2266
  370POPI    C1 5843   4.624   7.136  10.801  0.0100 -0.1571 -0.0359
  370POPI    C2 5844   4.434   7.469  10.916  0.1265 -0.0570 -0.1304
  370POPI    C3 5845   4.749   7.335  11.124 -0.0372 -0.2157  0.0185
  370POPI   PO4 5846   4.444   7.174  10.490 -0.2877  0.1161  0.2961
  370POPI   GL1 5847   4.505   7.280  10.117  0.0587  0.0558 -0.0339
  370POPI   GL2 5848   4.777   7.154  10.003  0.0463 -0.0855  0.1980
  370POPI   C1A 5849   4.646   7.547   9.737  0.2980  0.0180 -0.2511
  370POPI   D2A 5850   4.725   7.692   9.486 -0.0667  0.3639  0.2996
  370POPI   C3A 5851   5.002   7.604   9.082  0.0545 -0.1384  0.1712
  370POPI   C4A 5852   5.146   7.305   8.874 -0.2304 -0.1021  0.2326
  370POPI   C1B 5853   4.732   7.089   9.589 -0.0899 -0.0899  0.0532
  370POPI   C2B 5854   4.586   7.198   9.228 -0.3070  0.1927  0.0108
  370POPI   C3B 5855   4.640   7.318   8.813 -0.0257  0.1259 -0.1286
  370POPI   C4B 5856   4.379   7.096   8.434  0.0108 -0.0264  0.3298
  371POPI    C1 5857   5.521   3.492  11.245 -0.1073 -0.0449  0.0704
  371POPI    C2 5858   5.132   3.436  11.317 -0.0838  0.0474  0.2737
  371POPI    C3 5859   5.357   3.637  11.579  0.0509  0.2001  0.0442
  371POPI   PO4 5860   5.624   3.425  10.858  0.1958 -0.1388  0.1026
  371POPI   GL1 5861   5.644   3.308  10.416 -0.0968 -0.1581 -0.0832
  371POPI   GL2 5862   5.269   3.388  10.362 -0.1097  0.2183 -0.4423
  371POPI   C1A 5863   5.672   3.269   9.956  0.1933  0.2535 -0.0775
  371POPI   D2A 5864   5.421   3.221   9.544  0.0402  0.1459  0.0037
  371POPI   C3A 5865   5.369   3.323   9.164  0.1483  0.0034  0.0731
  371POPI   C4A 5866   5.397   3.312   8.788 -0.1842 -0.2087 -0.1067
  371POPI   C1B 5867   5.181   3.460   9.980 -0.0831  0.0159  0.0896
  371POPI   C2B 5868   5.088   3.571   9.543  0.0729 -0.0622 -0.0941
  371POPI   C3B 5869   5.078   3.950   9.163 -0.0742  0.2448 -0.2919
  371POPI   C4B 5870   5.119   3.925   8.666 -0.0464  0.1650 -0.1150
  372POPI    C1 5871   7.437   1.605  10.528 -0.1760  0.0066  0.0062
  372POPI    C2 5872   7.455   2.001  10.577 -0.1473 -0.0107  0.1373
  372POPI    C3 5873   7.696   1.822  10.313  0.0374  0.0267  0.2781
  372POPI   PO4 5874   7.117   1.543  10.546  0.0590  0.0416 -0.0922
  372POPI   GL1 5875   6.798   1.414  10.288 -0.0092  0.1774 -0.1867
  372POPI   GL2 5876   6.648   1.099  10.300 -0.2091  0.0732  0.0542
  372POPI   C1A 5877   6.905   1.511   9.840  0.1836  0.0281 -0.1139
  372POPI   D2A 5878   6.872   1.606   9.298  0.3114 -0.0460 -0.0955
  372POPI   C3A 5879   6.956   1.959   8.960 -0.0689 -0.1915  0.1334
  372POPI   C4A 5880   7.097   2.334   8.688 -0.1147  0.2850  0.1375
  372POPI   C1B 5881   6.500   1.006   9.860 -0.0472  0.1025  0.0491
  372POPI   C2B 5882   6.603   1.151   9.408 -0.0011  0.3779 -0.0472
  372POPI   C3B 5883   6.691   1.305   8.985 -0.2316 -0.1716  0.0169
  372POPI   C4B 5884   6.782   1.220   8.608  0.0018  0.0667 -0.0066
  373POPI    C1 5885  17.003   6.130  10.695 -0.0710  0.2159 -0.1143
  373POPI    C2 5886  16.620   6.177  10.590 -0.1521 -0.1951 -0.0205
  373POPI    C3 5887  16.799   6.451  10.820 -0.3791  0.0152 -0.0893
  373POPI   PO4 5888  17.148   6.078  10.541  0.2518  0.3156 -0.1142
  373POPI   GL1 5889  17.269   6.120  10.109  0.2187  0.0693  0.1496
  373POPI   GL2 5890  17.244   5.836   9.963  0.3070 -0.3277 -0.0599
  373POPI   C1A 5891  17.195   6.516   9.953 -0.0905  0.1454  0.0284
  373POPI   D2A 5892  17.086   6.668   9.657  0.0088 -0.1044  0.3704
  373POPI   C3A 5893  17.263   6.731   9.441 -0.0328 -0.3623  0.0945
  373POPI   C4A 5894  17.520   6.543   9.180 -0.1708 -0.0292 -0.1919
  373POPI   C1B 5895  16.959   5.712   9.567 -0.0469  0.2604 -0.1842
  373POPI   C2B 5896  16.805   5.768   9.173  0.0095  0.4169  0.1598
  373POPI   C3B 5897  16.880   5.793   8.831  0.3266  0.1434  0.0194
  373POPI   C4B 5898  16.667   6.061   8.472 -0.1110  0.0864  0.2397
  374POPI    C1 5899   6.016   3.754  11.063  0.1139 -0.0312  0.1170
  374POPI    C2 5900   5.943   3.732  11.456  0.2048 -0.0625  0.1324
  374POPI    C3 5901   6.316   3.794  11.325  0.1603  0.0414  0.0533
  374POPI   PO4 5902   5.808   3.842  10.935 -0.0000  0.0774 -0.0076
  374POPI   GL1 5903   5.963   4.078  10.608 -0.1563 -0.1620 -0.1250
  374POPI   GL2 5904   6.178   4.044  10.468  0.1281 -0.0831 -0.4178
  374POPI   C1A 5905   5.637   3.941  10.195  0.1295  0.2043  0.1940
  374POPI   D2A 5906   5.575   3.786   9.736  0.2512  0.3300  0.1294
  374POPI   C3A 5907   5.477   3.777   9.345  0.0342 -0.1465 -0.0188
  374POPI   C4A 5908   5.562   3.762   8.998  0.1456 -0.0769  0.0446
  374POPI   C1B 5909   6.070   4.084  10.034  0.0077  0.2647 -0.0156
  374POPI   C2B 5910   5.997   3.994   9.485 -0.0688  0.2243 -0.0681
  374POPI   C3B 5911   6.008   4.000   9.074 -0.2379  0.0650  0.0858
  374POPI   C4B 5912   5.911   3.719   8.638  0.1950  0.1616 -0.1025
  375POPI    C1 5913   0.192  13.836  10.262 -0.0988 -0.2992 -0.1197
  375POPI    C2 5914   0.269  13.797  10.652 -0.1547  0.2426 -0.0459
  375POPI    C3 5915   0.462  14.074  10.437 -0.3597  0.1685 -0.3311
  375POPI   PO4 5916   0.214  13.632  10.179 -0.1174  0.1869 -0.2030
  375POPI   GL1 5917   0.135  13.307   9.862 -0.4370 -0.4470  0.0092
  375POPI   GL2 5918   0.220  13.074   9.956 -0.6321  0.2380  0.3249
  375POPI   C1A 5919   0.110  13.311   9.330  0.0593  0.2921  0.4798
  375POPI   D2A 5920   0.158  13.358   8.948 -0.1015  0.2170 -0.0493
  375POPI   C3A 5921   0.014  13.496   8.554 -0.1353  0.1457  0.2317
  375POPI   C4A 5922  -0.090  13.429   8.195  0.1511 -0.3495 -0.0608
  375POPI   C1B 5923  -0.152  13.003   9.657  0.0095 -0.2172  0.0190
  375POPI   C2B 5924  -0.369  13.018   9.240 -0.0898  0.2558  0.0164
  375POPI   C3B 5925  -0.273  12.990   8.891  0.2513 -0.3012  0.0483
  375POPI   C4B 5926  -0.201  12.972   8.462  0.0050 -0.2796  0.0593
  376POPI    C1 5927  17.794  16.108  10.489  0.0806 -0.1826  0.1202
  376POPI    C2 5928  17.535  15.807  10.438  0.0474 -0.1363  0.0109
  376POPI    C3 5929  17.773  15.814  10.759 -0.1439 -0.1377  0.1540
  376POPI   PO4 5930  17.920  16.235  10.225  0.1099  0.1645  0.3397
  376POPI   GL1 5931  17.955  16.142   9.788  0.0271 -0.1000  0.2745
  376POPI   GL2 5932  17.660  15.912   9.887  0.2649  0.4475  0.2450
  376POPI   C1A 5933  18.048  16.063   9.463 -0.0726 -0.0656 -0.1160
  376POPI   D2A 5934  17.957  15.827   9.028 -0.1098  0.2335  0.3146
  376POPI   C3A 5935  17.884  15.986   8.536  0.2000  0.0588  0.2869
  376POPI   C4A 5936  18.080  15.829   8.341  0.0938  0.1139  0.1457
  376POPI   C1B 5937  17.361  15.816   9.671 -0.2871 -0.1416 -0.0003
  376POPI   C2B 5938  17.060  15.446   9.503 -0.1709 -0.0617  0.3570
  376POPI   C3B 5939  16.929  15.276   9.142  0.2549 -0.0981  0.1206
  376POPI   C4B 5940  17.070  15.006   8.722  0.0160 -0.1566  0.1737
  377POPI    C1 5941   8.887  16.787  10.635  0.0623 -0.1653 -0.2735
  377POPI    C2 5942   9.014  16.681  10.999 -0.0651 -0.0082 -0.1817
  377POPI    C3 5943   9.200  16.974  10.800 -0.0759 -0.0057 -0.1882
  377POPI   PO4 5944   8.883  16.526  10.518 -0.2030 -0.4253 -0.1393
  377POPI   GL1 5945   8.996  16.410  10.118 -0.4693 -0.0071 -0.1236
  377POPI   GL2 5946   8.642  16.610  10.046  0.0967 -0.1181  0.0195
  377POPI   C1A 5947   9.145  16.376   9.718  0.0842  0.1574  0.1874
  377POPI   D2A 5948   9.154  16.310   9.208  0.0992  0.3054 -0.2859
  377POPI   C3A 5949   9.167  16.167   8.793 -0.0617 -0.1676 -0.0627
  377POPI   C4A 5950   9.247  16.189   8.353 -0.0708 -0.0477  0.2340
  377POPI   C1B 5951   8.695  16.585   9.577 -0.1535 -0.2060 -0.0793
  377POPI   C2B 5952   8.773  16.649   9.166  0.4249 -0.0899 -0.0428
  377POPI   C3B 5953   8.905  16.535   8.783  0.2564  0.0195 -0.3221
  377POPI   C4B 5954   8.985  16.607   8.350 -0.2992 -0.0014 -0.0166
  378POPI    C1 5955   5.715  15.904  10.053 -0.0531  0.1396  0.0800
  378POPI    C2 5956   5.744  15.761  10.425 -0.1921 -0.0296  0.0275
  378POPI    C3 5957   6.063  15.926  10.249 -0.0957 -0.0514  0.1798
  378POPI   PO4 5958   5.667  15.664   9.875 -0.1973  0.0077  0.0623
  378POPI   GL1 5959   5.847  15.534   9.592 -0.2188  0.0697 -0.0373
  378POPI   GL2 5960   6.250  15.397   9.668  0.0079 -0.0737  0.1757
  378POPI   C1A 5961   5.750  15.597   9.181  0.0151  0.0268  0.0235
  378POPI   D2A 5962   5.745  15.634   8.711  0.1503 -0.0994 -0.2766
  378POPI   C3A 5963   5.729  15.426   8.326 -0.0248  0.2678  0.1674
  378POPI   C4A 5964   5.857  15.423   7.760  0.1425  0.2185 -0.2162
  378POPI   C1B 5965   6.219  15.345   9.305  0.1266 -0.1096  0.3367
  378POPI   C2B 5966   6.184  15.385   8.941  0.0446  0.3177  0.4262
  378POPI   C3B 5967   6.289  15.589   8.471  0.1828 -0.1716  0.0574
  378POPI   C4B 5968   6.259  15.523   8.130 -0.3788 -0.0500  0.0583
  379POPI    C1 5969   4.944   0.978  10.448 -0.0146 -0.1441  0.0231
  379POPI    C2 5970   5.010   1.264  10.720 -0.0483  0.0400 -0.1602
  379POPI    C3 5971   4.924   0.892  10.839 -0.0067  0.1052  0.0803
  379POPI   PO4 5972   5.107   1.046  10.285  0.3660  0.1728 -0.1253
  379POPI   GL1 5973   5.239   1.335   9.912 -0.0678  0.1476  0.0318
  379POPI   GL2 5974   5.027   1.511   9.715  0.0146  0.1131 -0.0677
  379POPI   C1A 5975   5.712   1.270   9.906  0.2135  0.0327 -0.1216
  379POPI   D2A 5976   6.051   1.255   9.615 -0.0447  0.1622  0.1678
  379POPI   C3A 5977   6.015   1.403   9.246  0.1169  0.1874 -0.1789
  379POPI   C4A 5978   5.931   1.539   8.828  0.0192  0.0438  0.1593
  379POPI   C1B 5979   5.086   1.592   9.280  0.2238 -0.0930  0.1328
  379POPI   C2B 5980   5.204   1.295   8.956  0.1963  0.0099  0.2890
  379POPI   C3B 5981   5.178   1.038   8.778  0.3054 -0.0045  0.2490
  379POPI   C4B 5982   5.270   0.917   8.392  0.1191 -0.0797  0.1157
  380POPI    C1 5983   3.944   4.301  10.321  0.0815  0.0440 -0.0779
  380POPI    C2 5984   4.139   4.195  10.654  0.0596  0.1627 -0.0269
  380POPI    C3 5985   4.100   4.582  10.559  0.1767  0.1250 -0.2340
  380POPI   PO4 5986   4.031   4.192  10.106  0.3145 -0.0170  0.0315
  380POPI   GL1 5987   4.221   3.952   9.732  0.2001 -0.4933  0.0590
  380POPI   GL2 5988   4.454   4.067   9.795 -0.1083 -0.0120 -0.2127
  380POPI   C1A 5989   4.226   4.132   9.331 -0.0382 -0.0990 -0.0995
  380POPI   D2A 5990   4.230   4.178   8.848  0.2558 -0.2873 -0.2225
  380POPI   C3A 5991   4.322   4.040   8.371  0.2582  0.0401  0.1001
  380POPI   C4A 5992   4.171   4.088   7.981  0.0355 -0.5789 -0.0086
  380POPI   C1B 5993   4.690   4.096   9.478 -0.1874  0.1391 -0.3670
  380POPI   C2B 5994   4.688   4.269   9.084  0.4998  0.2461  0.0620
  380POPI   C3B 5995   4.656   4.338   8.624 -0.2269 -0.0714  0.2138
  380POPI   C4B 5996   4.458   4.547   8.200 -0.3043  0.0056  0.2076
  381POPI    C1 5997  17.241  13.817  10.436  0.0635 -0.2510 -0.0702
  381POPI    C2 5998  16.903  13.800  10.650  0.1377  0.2035  0.0934
  381POPI    C3 5999  17.188  13.526  10.705 -0.0235  0.0686  0.2666
  381POPI   PO4 6000  17.350  14.002  10.413 -0.3895  0.2833  0.0241
  381POPI   GL1 6001  17.621  14.004  10.014  0.0724  0.2971  0.2043
  381POPI   GL2 6002  17.202  14.043   9.953  0.1122 -0.0736 -0.0311
  381POPI   C1A 6003  17.745  14.060   9.554  0.0785  0.0924 -0.2044
  381POPI   D2A 6004  17.766  14.226   9.166 -0.3861  0.1557 -0.2396
  381POPI   C3A 6005  17.738  14.091   8.721  0.0273  0.1029 -0.2134
  381POPI   C4A 6006  17.876  13.887   8.456  0.1563 -0.0904  0.0062
  381POPI   C1B 6007  17.293  14.323   9.656  0.0598  0.1355  0.2300
  381POPI   C2B 6008  17.224  14.291   9.232 -0.0253  0.2450  0.0016
  381POPI   C3B 6009  17.209  14.084   8.881  0.3127 -0.1102  0.1661
  381POPI   C4B 6010  17.401  13.843   8.418  0.1011 -0.0471 -0.0820
  382POPI    C1 6011   3.949  11.288  10.273 -0.1643  0.1589  0.0753
  382POPI    C2 6012   3.656  11.087  10.457 -0.1044  0.1256  0.1344
  382POPI    C3 6013   3.815  10.944  10.119 -0.1135  0.1118  0.1359
  382POPI   PO4 6014   3.872  11.521  10.208  0.0955  0.2992 -0.1127
  382POPI   GL1 6015   3.666  11.677   9.935  0.4140 -0.0715  0.1370
  382POPI   GL2 6016   3.385  11.860   9.886 -0.0417 -0.0349 -0.1610
  382POPI   C1A 6017   3.871  11.645   9.495  0.0247 -0.0889  0.0294
  382POPI   D2A 6018   4.078  11.502   9.212 -0.2531  0.5750  0.2021
  382POPI   C3A 6019   3.841  11.575   8.767  0.0646  0.3745 -0.0428
  382POPI   C4A 6020   3.760  11.521   8.337 -0.1914 -0.0292  0.0671
  382POPI   C1B 6021   3.322  11.581   9.534 -0.1442  0.2311 -0.1065
  382POPI   C2B 6022   3.490  11.648   9.139  0.1535 -0.2400 -0.0170
  382POPI   C3B 6023   3.337  11.642   8.776 -0.2187 -0.2690  0.0100
  382POPI   C4B 6024   3.261  11.645   8.287 -0.0041 -0.0410 -0.2122
  383POPI    C1 6025   9.831   3.581  10.886 -0.1758 -0.1114 -0.2044
  383POPI    C2 6026  10.007   3.223  10.900 -0.0119 -0.0310 -0.1828
  383POPI    C3 6027  10.007   3.458  11.223 -0.0953  0.0000 -0.2052
  383POPI   PO4 6028   9.881   3.703  10.687 -0.4856  0.0935  0.1518
  383POPI   GL1 6029   9.764   3.487  10.292 -0.1327  0.4356  0.0659
  383POPI   GL2 6030   9.531   3.546  10.126  0.1599 -0.3827  0.1305
  383POPI   C1A 6031   9.652   3.072  10.059  0.0150  0.2599 -0.0167
  383POPI   D2A 6032   9.541   2.719   9.850  0.1316  0.0168 -0.0238
  383POPI   C3A 6033   9.659   2.881   9.494  0.4588 -0.2182  0.0618
  383POPI   C4A 6034   9.674   3.065   9.089  0.0085 -0.2768 -0.0375
  383POPI   C1B 6035   9.581   3.463   9.750 -0.0113  0.3694  0.0043
  383POPI   C2B 6036   9.727   3.525   9.397  0.1283 -0.3133 -0.0640
  383POPI   C3B 6037   9.666   3.589   8.989 -0.0836 -0.2485  0.0865
  383POPI   C4B 6038   9.562   3.777   8.604 -0.3322  0.0014 -0.1032
  384POPI    C1 6039   3.978   3.158  10.473 -0.0557  0.0501  0.1173
  384POPI    C2 6040   3.768   3.374  10.735  0.1575  0.2696  0.1107
  384POPI    C3 6041   4.122   3.222  10.840  0.1657  0.2141  0.0043
  384POPI   PO4 6042   3.812   3.009  10.371 -0.1964 -0.0648  0.2801
  384POPI   GL1 6043   3.757   3.008   9.950  0.1814 -0.2688  0.1638
  384POPI   GL2 6044   3.571   2.790   9.820 -0.1304 -0.2102  0.1583
  384POPI   C1A 6045   3.802   3.343   9.624  0.0268  0.3867 -0.2006
  384POPI   D2A 6046   3.759   3.191   9.159 -0.0919 -0.1585 -0.0582
  384POPI   C3A 6047   3.591   3.279   8.757 -0.3397  0.0383 -0.0957
  384POPI   C4A 6048   3.634   3.343   8.239 -0.1771  0.0475  0.0515
  384POPI   C1B 6049   3.302   3.069   9.669 -0.5044 -0.2333  0.1773
  384POPI   C2B 6050   3.067   3.006   9.336 -0.1914 -0.0515 -0.3872
  384POPI   C3B 6051   2.868   3.318   9.121  0.2570 -0.0074  0.0044
  384POPI   C4B 6052   2.732   3.460   8.680 -0.0681  0.0596 -0.3644
  385POPI    C1 6053  12.855   4.586  10.334 -0.0336  0.1608  0.0730
  385POPI    C2 6054  12.661   4.685  10.670 -0.0469 -0.1209  0.1518
  385POPI    C3 6055  13.057   4.632  10.676 -0.0663 -0.2687  0.1566
  385POPI   PO4 6056  12.713   4.376  10.243 -0.0641 -0.0880 -0.0277
  385POPI   GL1 6057  12.526   4.519   9.824  0.0646 -0.1094  0.0934
  385POPI   GL2 6058  12.596   4.190   9.791  0.1802 -0.1506  0.2121
  385POPI   C1A 6059  12.651   4.617   9.471  0.2298  0.3520  0.0487
  385POPI   D2A 6060  12.845   4.640   9.095  0.3183 -0.0107  0.0261
  385POPI   C3A 6061  13.050   4.222   8.953 -0.0397 -0.2035 -0.2605
  385POPI   C4A 6062  13.231   3.895   8.682  0.1850 -0.1511 -0.4103
  385POPI   C1B 6063  12.743   4.150   9.351  0.0060  0.1907 -0.1442
  385POPI   C2B 6064  12.462   4.217   8.920 -0.1377  0.3073  0.1285
  385POPI   C3B 6065  12.094   4.114   8.617  0.1631 -0.1127 -0.3689
  385POPI   C4B 6066  11.765   4.078   8.371 -0.0050 -0.2245  0.2887
  386POPI    C1 6067   5.525  12.231  10.276  0.1982  0.0162  0.1187
  386POPI    C2 6068   5.509  12.503  10.569 -0.2035 -0.2618  0.3645
  386POPI    C3 6069   5.171  12.360  10.410  0.0082 -0.3207 -0.0462
  386POPI   PO4 6070   5.745  12.216  10.259  0.1107 -0.1524  0.0375
  386POPI   GL1 6071   6.016  12.040   9.925 -0.0648  0.2392  0.0041
  386POPI   GL2 6072   6.318  12.125   9.941  0.0454 -0.2867 -0.3528
  386POPI   C1A 6073   5.782  12.160   9.557 -0.1967 -0.2693 -0.2735
  386POPI   D2A 6074   5.864  12.399   9.332 -0.3521 -0.0707 -0.2730
  386POPI   C3A 6075   5.610  12.388   9.029 -0.0037 -0.0691 -0.0045
  386POPI   C4A 6076   5.275  12.222   8.720 -0.2525 -0.0158  0.0442
  386POPI   C1B 6077   6.571  11.806   9.896 -0.3265  0.3300  0.2746
  386POPI   C2B 6078   6.764  11.468   9.741  0.1101 -0.0447  0.5030
  386POPI   C3B 6079   6.618  11.304   9.344  0.0921  0.2669  0.2457
  386POPI   C4B 6080   6.359  11.213   9.099 -0.1797 -0.2603 -0.2195
  387POPI    C1 6081  11.664   3.239  10.863 -0.0954 -0.1349 -0.0450
  387POPI    C2 6082  11.446   3.188  11.195 -0.0632  0.1163  0.0170
  387POPI    C3 6083  11.671   2.888  11.055 -0.1603 -0.0255  0.1610
  387POPI   PO4 6084  11.559   3.311  10.692 -0.2086  0.1309  0.0738
  387POPI   GL1 6085  11.596   3.336  10.180  0.1861  0.0692  0.1354
  387POPI   GL2 6086  11.692   3.579  10.319  0.3333  0.0032  0.0532
  387POPI   C1A 6087  11.513   3.408   9.718 -0.1920 -0.0302  0.1007
  387POPI   D2A 6088  11.168   3.227   9.486 -0.0906  0.3926  0.1849
  387POPI   C3A 6089  11.084   3.247   9.124  0.0144  0.0387  0.2739
  387POPI   C4A 6090  10.823   3.347   8.645 -0.2938 -0.2914  0.1052
  387POPI   C1B 6091  11.717   3.833   9.889 -0.0136  0.0292  0.3083
  387POPI   C2B 6092  11.593   3.858   9.443  0.0704  0.2860 -0.1222
  387POPI   C3B 6093  11.468   3.539   9.098  0.1980  0.2158 -0.3747
  387POPI   C4B 6094  11.503   3.286   8.693 -0.2263  0.0539  0.0303
  388POPI    C1 6095  16.568  12.719  10.870  0.0232 -0.0214  0.1348
  388POPI    C2 6096  16.263  12.954  10.763  0.1677  0.1043 -0.0060
  388POPI    C3 6097  16.411  12.974  11.134  0.1032  0.1511  0.0174
  388POPI   PO4 6098  16.763  12.867  10.566 -0.1236 -0.0297 -0.2194
  388POPI   GL1 6099  16.767  12.794  10.146 -0.2383 -0.0834  0.2682
  388POPI   GL2 6100  17.082  13.034  10.008 -0.0367 -0.2964  0.2350
  388POPI   C1A 6101  16.640  13.102   9.812 -0.4182 -0.0624  0.0542
  388POPI   D2A 6102  16.405  13.285   9.608  0.0557 -0.1031  0.0918
  388POPI   C3A 6103  16.241  13.176   9.225  0.1525 -0.0690 -0.0322
  388POPI   C4A 6104  16.268  12.827   8.951 -0.2703  0.0903 -0.4495
  388POPI   C1B 6105  17.026  12.888   9.637 -0.0932  0.2888 -0.0676
  388POPI   C2B 6106  17.083  12.797   9.177  0.0594  0.3655 -0.1619
  388POPI   C3B 6107  16.837  12.735   8.843 -0.2437  0.0733  0.0577
  388POPI   C4B 6108  16.433  12.415   8.667 -0.0233  0.0225  0.2169
  389POPI    C1 6109   7.601  10.501  10.926 -0.3109 -0.0628  0.1149
  389POPI    C2 6110   7.777  10.262  11.194 -0.2057 -0.0687  0.0410
  389POPI    C3 6111   7.380  10.305  11.196 -0.1750  0.2588  0.4678
  389POPI   PO4 6112   7.712  10.435  10.713  0.0846  0.0201  0.1589
  389POPI   GL1 6113   7.606  10.204  10.383  0.1585 -0.1046 -0.0806
  389POPI   GL2 6114   7.709   9.966  10.325 -0.1673 -0.4952  0.1283
  389POPI   C1A 6115   7.922  10.239   9.929  0.2442  0.0579  0.1037
  389POPI   D2A 6116   8.158  10.160   9.526 -0.0937 -0.0814  0.2702
  389POPI   C3A 6117   7.943   9.752   9.402 -0.1390 -0.0897  0.4806
  389POPI   C4A 6118   7.774   9.379   9.669 -0.0242 -0.3582  0.3430
  389POPI   C1B 6119   7.914   9.743   9.992 -0.0904  0.1143  0.0312
  389POPI   C2B 6120   8.291   9.688   9.904  0.1282 -0.1269 -0.0764
  389POPI   C3B 6121   8.476   9.710   9.510 -0.1526 -0.2006  0.0351
  389POPI   C4B 6122   8.594   9.954   9.170  0.0489 -0.0472 -0.0008
  390POPI    C1 6123   8.329   1.719  10.515 -0.0537  0.0913 -0.1600
  390POPI    C2 6124   8.574   2.033  10.476 -0.2033  0.2214 -0.0686
  390POPI    C3 6125   8.441   1.927  10.838 -0.0559 -0.0247 -0.0840
  390POPI   PO4 6126   8.232   1.706  10.312  0.2740  0.0097  0.2463
  390POPI   GL1 6127   8.241   1.485   9.928 -0.0780  0.0161  0.2053
  390POPI   GL2 6128   8.076   1.285   9.754 -0.0420  0.0844 -0.2481
  390POPI   C1A 6129   8.259   1.698   9.517 -0.1049 -0.0340 -0.2514
  390POPI   D2A 6130   8.110   1.537   9.113  0.0338  0.3497  0.1816
  390POPI   C3A 6131   7.706   1.327   8.937  0.0492 -0.0359 -0.1290
  390POPI   C4A 6132   7.248   1.212   8.840  0.2738  0.2287 -0.0382
  390POPI   C1B 6133   7.807   1.448   9.508  0.1059 -0.1783 -0.0684
  390POPI   C2B 6134   7.720   1.781   9.246  0.1559  0.0106 -0.0796
  390POPI   C3B 6135   7.825   1.782   8.703  0.1002  0.0354 -0.0085
  390POPI   C4B 6136   7.865   2.070   8.289 -0.3178  0.0294 -0.0238
  391POPI    C1 6137  14.591  15.478  10.739  0.1319 -0.2794  0.1687
  391POPI    C2 6138  14.741  15.692  11.042  0.0275 -0.0174  0.0381
  391POPI    C3 6139  14.348  15.698  10.969  0.0376 -0.1717 -0.0317
  391POPI   PO4 6140  14.754  15.423  10.508  0.0422 -0.2868  0.1169
  391POPI   GL1 6141  14.756  15.667  10.159  0.0134  0.0953  0.2210
  391POPI   GL2 6142  15.032  15.677  10.133  0.0511  0.3342  0.1603
  391POPI   C1A 6143  14.819  16.014   9.852  0.0501 -0.0537 -0.0060
  391POPI   D2A 6144  14.727  16.112   9.364 -0.2138  0.1446  0.1077
  391POPI   C3A 6145  14.388  16.113   9.094 -0.1109  0.0379  0.0679
  391POPI   C4A 6146  14.335  16.357   8.732  0.0661  0.1639 -0.2782
  391POPI   C1B 6147  14.832  15.578   9.590  0.2335  0.4431 -0.2147
  391POPI   C2B 6148  14.706  15.687   9.152 -0.1649  0.0234  0.2490
  391POPI   C3B 6149  14.394  15.411   8.771 -0.1823  0.2247 -0.2621
  391POPI   C4B 6150  14.222  15.088   8.535  0.0078 -0.2331  0.0246
  392POPI    C1 6151  13.221  11.575  10.886 -0.1800 -0.0250  0.1636
  392POPI    C2 6152  13.443  11.671  11.205 -0.0463 -0.0156  0.0686
  392POPI    C3 6153  13.070  11.534  11.254  0.0038 -0.0954  0.2321
  392POPI   PO4 6154  13.332  11.717  10.703 -0.2544  0.0576 -0.0829
  392POPI   GL1 6155  13.403  11.582  10.242 -0.1357  0.2803  0.1425
  392POPI   GL2 6156  13.200  11.858  10.226 -0.3836  0.2621 -0.0547
  392POPI   C1A 6157  13.486  11.555   9.869 -0.2783  0.0355 -0.0076
  392POPI   D2A 6158  13.651  11.516   9.398 -0.1576  0.1458  0.3071
  392POPI   C3A 6159  13.744  11.855   9.142 -0.2196 -0.0280 -0.3336
  392POPI   C4A 6160  13.910  11.928   8.675 -0.1459  0.0747  0.1016
  392POPI   C1B 6161  13.312  12.050   9.919 -0.5405  0.1018 -0.0334
  392POPI   C2B 6162  13.197  11.886   9.555 -0.2578 -0.1666 -0.2630
  392POPI   C3B 6163  13.164  11.965   9.202  0.1452  0.1580 -0.0320
  392POPI   C4B 6164  12.857  11.938   8.890 -0.2510 -0.1928  0.0836
  393POPI    C1 6165   3.468  15.868  10.648 -0.1382 -0.3384  0.2251
  393POPI    C2 6166   3.321  16.072  10.960 -0.0620 -0.0082  0.0501
  393POPI    C3 6167   3.629  16.219  10.751 -0.0945 -0.2388 -0.1661
  393POPI   PO4 6168   3.312  15.883  10.484 -0.2987 -0.2456  0.0027
  393POPI   GL1 6169   3.366  15.767  10.000 -0.1545 -0.0010  0.1051
  393POPI   GL2 6170   3.374  15.625   9.766 -0.2894 -0.0275  0.0061
  393POPI   C1A 6171   3.605  16.075   9.744  0.1019 -0.0136 -0.1251
  393POPI   D2A 6172   3.580  16.340   9.426 -0.2395 -0.2672 -0.1887
  393POPI   C3A 6173   3.521  16.361   9.040  0.1846 -0.2581  0.1931
  393POPI   C4A 6174   3.632  16.080   8.722  0.0180 -0.2922  0.1162
  393POPI   C1B 6175   3.489  15.680   9.402 -0.1287 -0.0867  0.2089
  393POPI   C2B 6176   3.384  15.914   9.106  0.0886  0.0351  0.0827
  393POPI   C3B 6177   3.146  15.874   8.713  0.1900  0.0300 -0.3203
  393POPI   C4B 6178   3.270  15.892   8.362 -0.1213 -0.0798  0.1789
  394POPI    C1 6179   8.650   4.160  10.749  0.0490  0.1009 -0.1657
  394POPI    C2 6180   8.502   4.274  11.103  0.1032 -0.0192 -0.1036
  394POPI    C3 6181   8.413   3.913  10.956  0.0521  0.0442 -0.2296
  394POPI   PO4 6182   8.670   4.416  10.531  0.1202  0.3022 -0.0671
  394POPI   GL1 6183   8.456   4.327  10.164  0.4848 -0.0081 -0.0796
  394POPI   GL2 6184   8.140   4.468  10.233  0.2722 -0.1421  0.0795
  394POPI   C1A 6185   8.316   4.374   9.756  0.3296  0.1282 -0.1821
  394POPI   D2A 6186   8.160   4.319   9.251 -0.3647 -0.0335  0.0196
  394POPI   C3A 6187   8.191   3.934   9.064 -0.0268  0.1006  0.1793
  394POPI   C4A 6188   8.145   3.602   8.791 -0.0581 -0.2457  0.0892
  394POPI   C1B 6189   7.945   4.668   9.946 -0.0895 -0.0767  0.0099
  394POPI   C2B 6190   7.887   4.653   9.552 -0.1575 -0.1769 -0.0014
  394POPI   C3B 6191   7.699   4.577   9.229 -0.2572 -0.3913 -0.0157
  394POPI   C4B 6192   7.756   4.395   8.880 -0.0792  0.0393 -0.1565
  395POPI    C1 6193   2.506  16.880  10.721 -0.0703  0.0779 -0.0463
  395POPI    C2 6194   2.110  16.837  10.760 -0.0512 -0.1090 -0.0468
  395POPI    C3 6195   2.347  16.515  10.765  0.1130  0.0118  0.0787
  395POPI   PO4 6196   2.543  17.025  10.477 -0.0154  0.0930  0.0851
  395POPI   GL1 6197   2.792  17.070  10.148 -0.1417  0.0999 -0.2923
  395POPI   GL2 6198   2.545  17.074   9.972  0.1560  0.0718 -0.1813
  395POPI   C1A 6199   3.012  17.257   9.829 -0.1556  0.2389  0.0971
  395POPI   D2A 6200   3.130  17.206   9.395  0.0314 -0.2389 -0.2746
  395POPI   C3A 6201   3.224  17.404   9.123 -0.1901 -0.1244 -0.0499
  395POPI   C4A 6202   3.039  17.645   8.831  0.0999  0.1380  0.0387
  395POPI   C1B 6203   2.569  17.354   9.616 -0.0683  0.0104  0.2861
  395POPI   C2B 6204   2.703  17.339   9.230  0.4197  0.0862 -0.2510
  395POPI   C3B 6205   2.847  17.180   8.876  0.0809 -0.0592  0.0024
  395POPI   C4B 6206   2.924  16.824   8.566  0.1401 -0.2044  0.1294
  396POPI    C1 6207   0.507   1.241  10.202  0.2007 -0.0183  0.0143
  396POPI    C2 6208   0.373   1.095  10.550  0.1638  0.0448  0.0269
  396POPI    C3 6209   0.123   1.134  10.240  0.1093  0.3278  0.1034
  396POPI   PO4 6210   0.698   1.092  10.085 -0.2593 -0.0963  0.4179
  396POPI   GL1 6211   0.852   0.803   9.721  0.1215 -0.1302  0.0798
  396POPI   GL2 6212   1.007   1.030   9.600  0.0232 -0.0988 -0.1146
  396POPI   C1A 6213   0.813   0.802   9.180  0.1184  0.0432  0.1169
  396POPI   D2A 6214   0.862   1.227   8.954 -0.3434 -0.1006  0.2457
  396POPI   C3A 6215   0.920   1.227   8.466 -0.0551  0.0127 -0.0256
  396POPI   C4A 6216   0.921   0.945   8.142  0.0082  0.1761  0.1133
  396POPI   C1B 6217   1.269   1.022   9.290  0.0814  0.1016 -0.6611
  396POPI   C2B 6218   1.337   0.924   8.748 -0.1170 -0.0829 -0.2165
  396POPI   C3B 6219   1.355   0.749   8.377  0.2104  0.1848 -0.2705
  396POPI   C4B 6220   1.619   0.868   8.078  0.2012 -0.2384  0.0975
  397POPI    C1 6221  14.984  10.035  11.020 -0.1842  0.1577 -0.1827
  397POPI    C2 6222  14.908   9.646  11.073 -0.0403  0.1600  0.0570
  397POPI    C3 6223  14.787   9.912  11.346 -0.1564  0.2870 -0.1163
  397POPI   PO4 6224  14.952  10.122  10.708 -0.2780 -0.0714  0.3170
  397POPI   GL1 6225  14.850  10.009  10.325 -0.0403  0.0113  0.2471
  397POPI   GL2 6226  14.983  10.219  10.100 -0.4777  0.0385 -0.1266
  397POPI   C1A 6227  15.002   9.786   9.894 -0.4660 -0.0982  0.1990
  397POPI   D2A 6228  15.175   9.617   9.388  0.1076  0.0996 -0.2704
  397POPI   C3A 6229  15.653   9.543   9.291  0.1712 -0.3039  0.2410
  397POPI   C4A 6230  15.653   9.413   8.930 -0.3381 -0.0758 -0.0712
  397POPI   C1B 6231  14.586  10.105   9.802  0.4448  0.1016  0.2521
  397POPI   C2B 6232  14.536  10.155   9.358 -0.1565  0.1977  0.1077
  397POPI   C3B 6233  14.470  10.126   8.921  0.2679 -0.2176  0.0860
  397POPI   C4B 6234  14.327   9.730   8.903  0.0536  0.2721  0.1404
  398POPI    C1 6235   5.973   3.080  10.694  0.1755 -0.0755 -0.1733
  398POPI    C2 6236   6.203   2.888  10.959 -0.0646 -0.0807  0.0351
  398POPI    C3 6237   6.071   3.258  11.038  0.0937  0.0295 -0.2034
  398POPI   PO4 6238   5.825   2.830  10.631 -0.1898 -0.0797  0.1851
  398POPI   GL1 6239   5.833   2.348  10.394 -0.0530 -0.1982  0.1499
  398POPI   GL2 6240   5.934   2.621  10.194 -0.3419  0.0735  0.0356
  398POPI   C1A 6241   6.078   2.111  10.096 -0.3612 -0.1529  0.1307
  398POPI   D2A 6242   6.271   2.140   9.658  0.1416 -0.0586  0.2261
  398POPI   C3A 6243   6.557   2.273   9.298 -0.1853  0.0515 -0.1299
  398POPI   C4A 6244   6.968   2.418   9.220 -0.0038 -0.0823 -0.0032
  398POPI   C1B 6245   5.997   2.554   9.848 -0.1057 -0.2008 -0.2877
  398POPI   C2B 6246   6.076   2.478   9.371 -0.0530 -0.1798  0.0576
  398POPI   C3B 6247   6.090   2.582   9.002  0.3251  0.3569  0.1080
  398POPI   C4B 6248   6.120   2.447   8.593  0.4313  0.1679  0.0555
  399POPI    C1 6249  13.262  12.437  10.683 -0.0027  0.0439 -0.0537
  399POPI    C2 6250  13.637  12.569  10.727  0.0569 -0.1309 -0.0313
  399POPI    C3 6251  13.379  12.594  11.032  0.0199  0.0825 -0.0786
  399POPI   PO4 6252  13.241  12.599  10.447 -0.1452  0.3290  0.2077
  399POPI   GL1 6253  13.028  12.412  10.075  0.1805  0.0785  0.1008
  399POPI   GL2 6254  12.717  12.623   9.930 -0.1399  0.1043  0.0336
  399POPI   C1A 6255  12.899  12.337   9.532  0.1733 -0.0378  0.0105
  399POPI   D2A 6256  12.693  12.162   9.290  0.0388  0.1272  0.0546
  399POPI   C3A 6257  12.555  12.360   8.949 -0.1474  0.1120  0.1123
  399POPI   C4A 6258  12.387  12.775   8.602  0.1172  0.4378 -0.0465
  399POPI   C1B 6259  12.825  12.961   9.676 -0.0615  0.0085 -0.4977
  399POPI   C2B 6260  12.984  13.244   9.352 -0.3331 -0.1282 -0.0133
  399POPI   C3B 6261  12.891  13.628   9.158 -0.0568 -0.1300  0.0657
  399POPI   C4B 6262  12.870  13.917   8.785 -0.0722 -0.2808  0.2095
  400POPI    C1 6263   7.978  12.653  10.998  0.1169 -0.1476 -0.0186
  400POPI    C2 6264   7.668  12.437  10.866 -0.0031  0.0070  0.0072
  400POPI    C3 6265   7.607  12.800  11.022  0.1823  0.0015  0.0954
  400POPI   PO4 6266   8.179  12.668  10.780  0.3345  0.0405 -0.2274
  400POPI   GL1 6267   8.184  12.417  10.386  0.0099 -0.0310  0.0403
  400POPI   GL2 6268   8.474  12.571  10.244 -0.2822 -0.4716 -0.2750
  400POPI   C1A 6269   8.206  12.262   9.947 -0.0170 -0.0348  0.2402
  400POPI   D2A 6270   8.101  12.264   9.572 -0.2764 -0.2374  0.2600
  400POPI   C3A 6271   8.290  12.413   9.235 -0.2008  0.0349  0.0785
  400POPI   C4A 6272   8.273  12.701   8.962  0.0777  0.2849 -0.1125
  400POPI   C1B 6273   8.439  12.686   9.711 -0.0095  0.1725 -0.0809
  400POPI   C2B 6274   8.620  12.901   9.480 -0.2547  0.2730  0.1016
  400POPI   C3B 6275   8.959  13.208   9.300  0.1515 -0.0506 -0.0109
  400POPI   C4B 6276   9.037  13.338   8.833  0.0941 -0.1018  0.2561
  401POPI    C1 6277  11.854  17.974  10.603  0.1664 -0.0249  0.0189
  401POPI    C2 6278  11.857  17.902  10.996 -0.0684  0.0388  0.0342
  401POPI    C3 6279  11.890  17.599  10.737 -0.0527 -0.0175  0.1019
  401POPI   PO4 6280  11.599  18.192  10.655 -0.2881 -0.0764  0.0656
  401POPI   GL1 6281  11.528  18.437  10.258  0.2258  0.0482 -0.2984
  401POPI   GL2 6282  11.196  18.582  10.104 -0.2612  0.1487 -0.1222
  401POPI   C1A 6283  11.590  18.423   9.770  0.1865  0.2383  0.2113
  401POPI   D2A 6284  11.561  18.324   9.329  0.1774 -0.1861  0.0595
  401POPI   C3A 6285  12.034  18.172   9.099 -0.2322  0.2539  0.2141
  401POPI   C4A 6286  12.362  18.324   9.216 -0.0167  0.0860  0.1515
  401POPI   C1B 6287  11.152  18.544   9.547 -0.3462  0.2387  0.2153
  401POPI   C2B 6288  11.344  18.723   9.262 -0.3290  0.2035 -0.1301
  401POPI   C3B 6289  11.612  18.629   8.911 -0.2812  0.4491  0.0061
  401POPI   C4B 6290  11.549  18.599   8.474  0.2074 -0.0310 -0.0063
  402POPI    C1 6291  14.719   7.763  10.839 -0.2992  0.2951  0.1399
  402POPI    C2 6292  14.569   7.559  11.148 -0.2570  0.2197  0.1108
  402POPI    C3 6293  14.856   7.831  11.209  0.2326 -0.2693  0.0617
  402POPI   PO4 6294  14.597   7.525  10.597  0.0727 -0.1227 -0.1491
  402POPI   GL1 6295  14.691   7.526  10.217  0.1614  0.0429  0.1857
  402POPI   GL2 6296  15.055   7.568  10.365  0.1667  0.2306 -0.1621
  402POPI   C1A 6297  14.487   7.824   9.927  0.0222 -0.1519 -0.0161
  402POPI   D2A 6298  14.504   8.223   9.801 -0.1499  0.0833 -0.0622
  402POPI   C3A 6299  14.659   8.234   9.448  0.0304  0.2154  0.2001
  402POPI   C4A 6300  14.478   8.326   9.111  0.2727 -0.0465 -0.0490
  402POPI   C1B 6301  15.074   7.906  10.039  0.0661  0.1128  0.0591
  402POPI   C2B 6302  15.083   7.962   9.607 -0.0415 -0.0773 -0.0053
  402POPI   C3B 6303  14.976   8.099   9.054 -0.2515 -0.2668  0.1912
  402POPI   C4B 6304  14.822   8.225   8.721  0.1454  0.2091 -0.1367
  403POPI    C1 6305   4.014  18.122  10.499  0.1284 -0.0757 -0.1115
  403POPI    C2 6306   4.107  18.112  10.888  0.0077  0.2395 -0.0705
  403POPI    C3 6307   4.226  18.419  10.662 -0.2011  0.2209 -0.2087
  403POPI   PO4 6308   3.984  17.846  10.462  0.3338 -0.3022 -0.1696
  403POPI   GL1 6309   4.235  17.625  10.232 -0.2299 -0.0471  0.0206
  403POPI   GL2 6310   4.189  17.912   9.966 -0.2713 -0.2507  0.3072
  403POPI   C1A 6311   4.193  17.258   9.781  0.0490 -0.0645 -0.2348
  403POPI   D2A 6312   3.738  17.143   9.655  0.0226  0.1220  0.3411
  403POPI   C3A 6313   3.689  17.193   9.152 -0.1985  0.0900 -0.0543
  403POPI   C4A 6314   3.844  17.386   8.734 -0.1752  0.1058 -0.0718
  403POPI   C1B 6315   4.309  17.798   9.503  0.1473 -0.1634  0.0475
  403POPI   C2B 6316   4.104  17.966   9.109  0.3296 -0.1618  0.0457
  403POPI   C3B 6317   4.078  18.033   8.631 -0.0066 -0.1884 -0.1968
  403POPI   C4B 6318   4.023  17.709   8.342 -0.1673  0.0309 -0.4836
  404POPI    C1 6319   1.871  14.124  10.446  0.2392 -0.1890 -0.2648
  404POPI    C2 6320   2.021  13.993  10.793 -0.1166 -0.1040 -0.0739
  404POPI    C3 6321   1.688  13.829  10.645 -0.1109  0.0356 -0.2446
  404POPI   PO4 6322   1.907  14.357  10.323 -0.2660  0.1349  0.2084
  404POPI   GL1 6323   1.871  14.345   9.831 -0.0157  0.0702  0.2306
  404POPI   GL2 6324   2.155  14.382   9.842 -0.3677 -0.0093  0.0992
  404POPI   C1A 6325   1.782  14.314   9.457 -0.0644  0.3984  0.2326
  404POPI   D2A 6326   1.974  14.169   9.069 -0.2127 -0.0075  0.0483
  404POPI   C3A 6327   1.933  14.197   8.661 -0.0541 -0.1141  0.2827
  404POPI   C4A 6328   1.680  14.481   8.383 -0.1597  0.1480  0.0266
  404POPI   C1B 6329   2.257  14.538   9.379 -0.1405  0.4798 -0.1989
  404POPI   C2B 6330   2.310  14.886   9.067  0.0622 -0.3212  0.1755
  404POPI   C3B 6331   2.536  15.040   8.668  0.2776 -0.1874  0.0597
  404POPI   C4B 6332   2.582  15.061   8.267  0.1060  0.2117 -0.0129
  405POPI    C1 6333  16.803   1.988  10.110 -0.0851 -0.1103  0.3241
  405POPI    C2 6334  17.174   1.842  10.148  0.0658  0.2406  0.2364
  405POPI    C3 6335  17.052   2.142  10.384 -0.1844  0.0873  0.3053
  405POPI   PO4 6336  16.775   1.863   9.830 -0.3755 -0.5635 -0.1443
  405POPI   GL1 6337  16.705   1.497   9.530  0.0204 -0.1201 -0.0139
  405POPI   GL2 6338  16.878   1.662   9.301 -0.0468 -0.1463  0.0903
  405POPI   C1A 6339  16.354   1.414   9.355 -0.2304  0.0409  0.0047
  405POPI   D2A 6340  16.177   1.223   9.067  0.1460  0.0252 -0.0575
  405POPI   C3A 6341  16.055   1.215   8.623  0.2071 -0.1243 -0.0528
  405POPI   C4A 6342  15.695   1.333   8.414  0.3670 -0.0756  0.0207
  405POPI   C1B 6343  16.728   1.525   8.993 -0.2584  0.0104 -0.1948
  405POPI   C2B 6344  16.414   1.557   8.776  0.2951 -0.1885 -0.2630
  405POPI   C3B 6345  16.125   1.824   8.598 -0.0458  0.0893 -0.0717
  405POPI   C4B 6346  15.929   2.112   8.982  0.0550 -0.2299 -0.1938
  406POPI    C1 6347   8.789  14.587  10.561  0.0980  0.0120  0.0539
  406POPI    C2 6348   8.566  14.688  10.877  0.0439 -0.1698  0.0752
  406POPI    C3 6349   8.728  14.323  10.855  0.3531 -0.0356  0.0664
  406POPI   PO4 6350   8.592  14.575  10.328 -0.2230 -0.0556 -0.0873
  406POPI   GL1 6351   8.481  14.458  10.080 -0.2809  0.0494 -0.0325
  406POPI   GL2 6352   8.397  14.636   9.823  0.1076 -0.1261 -0.0279
  406POPI   C1A 6353   8.884  14.326   9.760 -0.1265  0.3849  0.0013
  406POPI   D2A 6354   9.168  14.239   9.560 -0.0817  0.2585 -0.2871
  406POPI   C3A 6355   9.222  14.345   9.111 -0.1290  0.1379 -0.1899
  406POPI   C4A 6356   9.038  14.451   8.703 -0.0049  0.1878  0.1742
  406POPI   C1B 6357   8.513  14.546   9.361  0.0351  0.0100  0.0299
  406POPI   C2B 6358   8.611  14.461   8.973  0.0462 -0.2137  0.1801
  406POPI   C3B 6359   8.500  14.383   8.529 -0.3005  0.0695  0.2278
  406POPI   C4B 6360   8.197  14.395   8.221  0.0332 -0.1323 -0.1442
  407POPI    C1 6361  15.385  13.011  10.555 -0.1141 -0.0730 -0.2171
  407POPI    C2 6362  15.064  12.775  10.591 -0.0177 -0.1235  0.4148
  407POPI    C3 6363  15.178  13.006  10.897  0.2340  0.3088  0.0081
  407POPI   PO4 6364  15.424  13.099  10.255  0.1676 -0.0979  0.1100
  407POPI   GL1 6365  15.476  12.914   9.931  0.0895  0.1912 -0.0593
  407POPI   GL2 6366  15.502  13.127   9.713  0.2810 -0.1321  0.1728
  407POPI   C1A 6367  15.549  12.602   9.656 -0.0949  0.0480 -0.2368
  407POPI   D2A 6368  15.354  12.398   9.293  0.3460 -0.1174  0.0536
  407POPI   C3A 6369  15.418  12.518   8.937  0.1786 -0.0456 -0.3475
  407POPI   C4A 6370  15.531  12.875   8.651 -0.1861  0.1868 -0.1646
  407POPI   C1B 6371  15.570  12.972   9.304 -0.4378  0.2567  0.0768
  407POPI   C2B 6372  15.817  13.023   9.109  0.0016  0.1827 -0.0276
  407POPI   C3B 6373  15.879  13.320   8.845  0.1480 -0.0488  0.1621
  407POPI   C4B 6374  15.935  13.684   8.477 -0.3243 -0.2708  0.0037
  408POPI    C1 6375  12.530   6.831  10.911 -0.0211 -0.0695 -0.0440
  408POPI    C2 6376  12.204   6.724  11.115 -0.1056 -0.1823 -0.2350
  408POPI    C3 6377  12.409   7.050  11.223 -0.5110  0.1209 -0.3561
  408POPI   PO4 6378  12.519   6.945  10.629  0.3986 -0.0793  0.1902
  408POPI   GL1 6379  12.792   7.091  10.249  0.3283  0.0211  0.0733
  408POPI   GL2 6380  12.710   7.384  10.352  0.2336  0.2582 -0.0774
  408POPI   C1A 6381  13.041   6.936   9.846  0.5212  0.2123 -0.0899
  408POPI   D2A 6382  13.227   6.624   9.746  0.3764  0.1899  0.2552
  408POPI   C3A 6383  13.389   6.661   9.340  0.3170  0.1710  0.1346
  408POPI   C4A 6384  13.697   6.844   9.053 -0.0703 -0.0229  0.4417
  408POPI   C1B 6385  12.694   7.379   9.884  0.1801 -0.2061 -0.1354
  408POPI   C2B 6386  12.833   7.521   9.579 -0.0539 -0.0740 -0.1786
  408POPI   C3B 6387  12.783   7.428   9.146 -0.2113  0.1203 -0.1263
  408POPI   C4B 6388  12.580   7.281   8.824 -0.0282 -0.2867 -0.1891
  409POPI    C1 6389   7.398  16.581  10.441 -0.1433  0.0538 -0.5515
  409POPI    C2 6390   7.768  16.727  10.488 -0.1445  0.0050 -0.3838
  409POPI    C3 6391   7.555  16.614  10.808 -0.3629  0.1748 -0.4668
  409POPI   PO4 6392   7.296  16.774  10.233 -0.1616  0.0571 -0.1666
  409POPI   GL1 6393   7.011  16.827   9.929  0.3517  0.2251 -0.2575
  409POPI   GL2 6394   7.279  17.078   9.842 -0.2763  0.0253 -0.1330
  409POPI   C1A 6395   6.779  16.641   9.594 -0.0861  0.1411 -0.1242
  409POPI   D2A 6396   6.619  16.720   9.284 -0.5008 -0.3805 -0.0032
  409POPI   C3A 6397   6.783  16.787   8.969  0.1337  0.0188  0.3791
  409POPI   C4A 6398   6.750  16.732   8.535  0.2013 -0.1558 -0.2301
  409POPI   C1B 6399   7.442  17.189   9.433 -0.1102 -0.1846 -0.0593
  409POPI   C2B 6400   7.543  17.161   8.970  0.0444 -0.2081 -0.2323
  409POPI   C3B 6401   7.679  17.191   8.561 -0.1765  0.0721 -0.1294
  409POPI   C4B 6402   7.784  17.087   8.165 -0.1564 -0.1739  0.0603
  410POPI    C1 6403   4.569   5.706  10.256  0.0849  0.0171 -0.1249
  410POPI    C2 6404   4.678   5.465  10.557 -0.0434  0.0247 -0.0721
  410POPI    C3 6405   4.810   5.842  10.545 -0.0309  0.0217 -0.0296
  410POPI   PO4 6406   4.253   5.656  10.290 -0.0962  0.0204 -0.2873
  410POPI   GL1 6407   4.028   5.543   9.902  0.0444 -0.0508 -0.1239
  410POPI   GL2 6408   3.629   5.609   9.733  0.2590 -0.0482  0.0477
  410POPI   C1A 6409   4.236   5.612   9.617 -0.2597  0.2129  0.0315
  410POPI   D2A 6410   4.166   5.719   9.124  0.4534 -0.1075 -0.3313
  410POPI   C3A 6411   4.111   5.384   8.854 -0.0509  0.2212  0.2878
  410POPI   C4A 6412   4.002   5.320   8.472 -0.0413 -0.0176  0.1207
  410POPI   C1B 6413   3.465   5.767   9.399  0.0716 -0.0010 -0.1147
  410POPI   C2B 6414   3.306   5.787   9.012 -0.2830  0.0702 -0.3852
  410POPI   C3B 6415   3.512   5.949   8.600  0.1438 -0.0126 -0.0180
  410POPI   C4B 6416   3.626   5.981   8.163  0.1267 -0.3526 -0.1905
  411POPI    C1 6417  15.328  17.569  10.637  0.0314 -0.2500  0.0435
  411POPI    C2 6418  15.020  17.314  10.640 -0.1803 -0.0009  0.4270
  411POPI    C3 6419  15.279  17.318  10.944  0.0578 -0.0341  0.2275
  411POPI   PO4 6420  15.455  17.560  10.375 -0.0371 -0.1740  0.2872
  411POPI   GL1 6421  15.491  17.646   9.999 -0.0908 -0.1293  0.0941
  411POPI   GL2 6422  15.279  17.914  10.059 -0.0838 -0.0559  0.0068
  411POPI   C1A 6423  15.904  17.648   9.657  0.0488  0.0796  0.2059
  411POPI   D2A 6424  15.846  17.534   9.243  0.0328 -0.1543 -0.0928
  411POPI   C3A 6425  15.871  17.652   8.907  0.3624  0.1586  0.0102
  411POPI   C4A 6426  16.252  17.887   8.713 -0.1294 -0.2676  0.1507
  411POPI   C1B 6427  15.412  17.838   9.493 -0.0075  0.1390 -0.1884
  411POPI   C2B 6428  15.383  17.719   8.973  0.1751 -0.1322 -0.3332
  411POPI   C3B 6429  15.102  17.691   8.686  0.0918 -0.2328 -0.0394
  411POPI   C4B 6430  14.945  17.496   8.252  0.2674 -0.2154 -0.2901
  412POPI    C1 6431   5.326   3.006  10.979  0.0584 -0.2943 -0.0395
  412POPI    C2 6432   5.688   2.914  11.121  0.0479 -0.2400  0.0230
  412POPI    C3 6433   5.392   3.008  11.374  0.1098  0.1527 -0.0446
  412POPI   PO4 6434   5.341   2.996  10.694  0.1029 -0.0227 -0.2203
  412POPI   GL1 6435   5.369   2.920  10.315 -0.1643  0.0952  0.0645
  412POPI   GL2 6436   5.436   2.750  10.162  0.0358  0.0314 -0.5440
  412POPI   C1A 6437   5.091   3.001  10.003 -0.1296 -0.0574  0.1070
  412POPI   D2A 6438   4.922   3.118   9.525 -0.0630 -0.0643  0.3668
  412POPI   C3A 6439   4.870   3.382   9.112  0.3118 -0.1592 -0.2262
  412POPI   C4A 6440   4.941   3.411   8.631  0.0202  0.2956  0.0582
  412POPI   C1B 6441   5.518   2.767   9.721  0.0387 -0.0626  0.1257
  412POPI   C2B 6442   5.428   2.745   9.295  0.0663 -0.2086 -0.2699
  412POPI   C3B 6443   5.521   2.769   8.927  0.0067 -0.0107  0.0504
  412POPI   C4B 6444   5.550   2.541   8.582  0.3736  0.0844 -0.0572
  413POPI    C1 6445   9.847   1.931  10.760  0.1163  0.0977 -0.0417
  413POPI    C2 6446   9.535   2.148  10.886  0.0974 -0.0002  0.0834
  413POPI    C3 6447   9.647   1.823  11.089  0.3118  0.0614  0.0668
  413POPI   PO4 6448   9.742   1.923  10.447  0.1426 -0.1228  0.2059
  413POPI   GL1 6449   9.717   1.804  10.079 -0.2839  0.1905 -0.0860
  413POPI   GL2 6450   9.955   1.646  10.031  0.0388  0.0628 -0.0292
  413POPI   C1A 6451   9.456   1.787   9.663 -0.1640  0.0911  0.1313
  413POPI   D2A 6452   9.584   1.662   9.290  0.0202 -0.1550 -0.0728
  413POPI   C3A 6453   9.485   1.848   8.909  0.3863  0.3016 -0.1770
  413POPI   C4A 6454   9.339   2.234   8.557  0.0429 -0.3769 -0.0898
  413POPI   C1B 6455  10.030   1.773   9.619  0.2481  0.3140 -0.1500
  413POPI   C2B 6456  10.090   1.852   9.177  0.0477 -0.1776 -0.0725
  413POPI   C3B 6457   9.993   1.656   8.723 -0.2451 -0.0221  0.0326
  413POPI   C4B 6458  10.045   1.704   8.256  0.1070  0.0341 -0.0564
  414POPI    C1 6459   6.145   1.492  10.689  0.0309  0.1994 -0.0234
  414POPI    C2 6460   6.281   1.119  10.738  0.2507  0.2816  0.0042
  414POPI    C3 6461   6.072   1.296  11.030  0.0861  0.1562 -0.0363
  414POPI   PO4 6462   6.336   1.497  10.402 -0.1552 -0.1226  0.2810
  414POPI   GL1 6463   6.411   1.533   9.949  0.2809 -0.2118 -0.1178
  414POPI   GL2 6464   6.033   1.648  10.021 -0.2394 -0.1207 -0.0638
  414POPI   C1A 6465   6.393   1.652   9.481 -0.0781 -0.2463 -0.1327
  414POPI   D2A 6466   6.429   1.755   8.879 -0.0652 -0.1336 -0.3274
  414POPI   C3A 6467   6.462   2.174   8.782 -0.1139 -0.0882 -0.1064
  414POPI   C4A 6468   6.706   2.501   8.437  0.1152 -0.2116  0.1544
  414POPI   C1B 6469   5.899   1.754   9.648 -0.1617 -0.2173 -0.0215
  414POPI   C2B 6470   6.006   1.981   9.272 -0.0003  0.1169 -0.3489
  414POPI   C3B 6471   6.007   2.029   8.897 -0.2004  0.1820 -0.1336
  414POPI   C4B 6472   5.855   2.026   8.419 -0.1396 -0.2520  0.0422
  415POPI    C1 6473  15.301   8.489  11.006  0.0858  0.1221  0.0431
  415POPI    C2 6474  15.479   8.155  11.135  0.0271  0.0562 -0.0448
  415POPI    C3 6475  15.135   8.275  11.301 -0.0193  0.0020 -0.1015
  415POPI   PO4 6476  15.410   8.549  10.775  0.1155 -0.0115  0.0850
  415POPI   GL1 6477  15.217   8.474  10.429  0.0528  0.0623 -0.3856
  415POPI   GL2 6478  15.282   8.220  10.361  0.0006  0.0616 -0.1400
  415POPI   C1A 6479  15.495   8.734  10.237 -0.0041 -0.2471  0.2365
  415POPI   D2A 6480  15.741   8.938   9.918 -0.2543  0.2512 -0.1818
  415POPI   C3A 6481  15.515   9.386   9.809  0.1127 -0.0795 -0.0053
  415POPI   C4A 6482  15.514   9.847   9.691  0.1142 -0.0716 -0.0451
  415POPI   C1B 6483  15.296   8.361   9.874  0.1025 -0.1486 -0.0604
  415POPI   C2B 6484  15.117   8.440   9.492 -0.0571 -0.0467 -0.2058
  415POPI   C3B 6485  15.200   8.500   9.103  0.1146  0.0037 -0.0531
  415POPI   C4B 6486  15.252   8.579   8.726 -0.3219 -0.2314 -0.1216
  416POPI    C1 6487  17.611   8.132  10.352  0.0690 -0.0513  0.0623
  416POPI    C2 6488  17.618   7.954  10.711  0.0957  0.1138  0.1449
  416POPI    C3 6489  17.645   7.735  10.377 -0.0595 -0.0523  0.2402
  416POPI   PO4 6490  17.785   8.349  10.409 -0.4142 -0.6070 -0.2130
  416POPI   GL1 6491  17.870   8.710  10.131 -0.1675  0.0868 -0.0923
  416POPI   GL2 6492  18.201   8.656  10.287  0.0823 -0.2630  0.0586
  416POPI   C1A 6493  18.120   8.599   9.782 -0.0548  0.2780  0.2610
  416POPI   D2A 6494  18.418   8.725   9.591  0.0237 -0.1154  0.0823
  416POPI   C3A 6495  18.389   8.644   9.136  0.0422 -0.1551  0.1427
  416POPI   C4A 6496  18.043   8.837   8.984 -0.1234  0.2091 -0.3040
  416POPI   C1B 6497  18.189   9.066  10.011  0.3162  0.0067 -0.1805
  416POPI   C2B 6498  18.541   9.223   9.667 -0.2438  0.2871  0.2041
  416POPI   C3B 6499  18.629   9.055   9.231  0.2113 -0.2619 -0.4231
  416POPI   C4B 6500  18.651   8.961   8.804 -0.1458 -0.1283  0.2582
  417POPI    C1 6501  11.621   7.299  10.831 -0.0725 -0.1576  0.2055
  417POPI    C2 6502  11.977   7.372  10.664 -0.1501 -0.0782  0.0720
  417POPI    C3 6503  11.955   7.184  11.017  0.0343  0.1347  0.1999
  417POPI   PO4 6504  11.526   7.225  10.617 -0.1382  0.1620 -0.0503
  417POPI   GL1 6505  11.728   7.282  10.225 -0.0508  0.3218  0.0099
  417POPI   GL2 6506  11.711   7.587  10.224 -0.5422 -0.1149 -0.5250
  417POPI   C1A 6507  11.817   7.271   9.818 -0.0318 -0.2038 -0.0594
  417POPI   D2A 6508  11.786   7.325   9.439  0.0567 -0.2860 -0.1384
  417POPI   C3A 6509  11.611   7.168   9.141 -0.0084 -0.2007 -0.0104
  417POPI   C4A 6510  11.529   6.770   9.108 -0.0370  0.1065 -0.1718
  417POPI   C1B 6511  11.511   7.721   9.852 -0.1751  0.4176  0.1151
  417POPI   C2B 6512  11.469   7.778   9.519 -0.2060 -0.2234  0.1233
  417POPI   C3B 6513  11.476   7.912   9.057 -0.3487  0.4927 -0.0338
  417POPI   C4B 6514  11.657   7.628   8.818 -0.2490  0.1459 -0.2806
  418POPI    C1 6515   5.333   8.169  10.832  0.4605 -0.0569 -0.1415
  418POPI    C2 6516   5.273   8.461  11.098  0.0604 -0.2274 -0.0365
  418POPI    C3 6517   5.466   8.128  11.207  0.0658 -0.2165 -0.0130
  418POPI   PO4 6518   5.086   8.115  10.656  0.0915 -0.0272  0.0231
  418POPI   GL1 6519   5.035   7.944  10.273 -0.0300 -0.0294 -0.0705
  418POPI   GL2 6520   4.704   7.966  10.156  0.1008  0.1185  0.0196
  418POPI   C1A 6521   5.110   7.569  10.056  0.0328  0.1921  0.0668
  418POPI   D2A 6522   5.117   7.409   9.617  0.0759 -0.2053  0.1984
  418POPI   C3A 6523   5.473   7.260   9.370 -0.1500 -0.1463 -0.0784
  418POPI   C4A 6524   5.593   6.998   8.976  0.1902 -0.2621 -0.0499
  418POPI   C1B 6525   4.961   7.939   9.782  0.0131  0.1132 -0.1499
  418POPI   C2B 6526   5.213   7.951   9.422 -0.1359  0.0402 -0.1994
  418POPI   C3B 6527   5.196   8.028   8.888  0.0827 -0.2200 -0.2042
  418POPI   C4B 6528   5.225   7.807   8.473  0.1059  0.1286 -0.0794
  419POPI    C1 6529   9.803   5.395  10.976  0.0225  0.1495 -0.1619
  419POPI    C2 6530  10.092   5.657  11.065  0.0891  0.0215  0.0044
  419POPI    C3 6531  10.138   5.270  11.157  0.0464 -0.0725 -0.3545
  419POPI   PO4 6532   9.724   5.503  10.658  0.0023 -0.0541 -0.0147
  419POPI   GL1 6533   9.536   5.641  10.259  0.2552 -0.0131 -0.1442
  419POPI   GL2 6534   9.673   5.887  10.084 -0.1844 -0.3106 -0.0217
  419POPI   C1A 6535   9.757   5.495   9.818  0.3171  0.0234 -0.1477
  419POPI   D2A 6536   9.677   5.594   9.439 -0.0302  0.0542 -0.2126
  419POPI   C3A 6537   9.824   5.762   9.067  0.0292  0.4484  0.1414
  419POPI   C4A 6538  10.087   6.129   8.777  0.3659 -0.0903  0.2980
  419POPI   C1B 6539   9.636   6.069   9.619 -0.1070 -0.0460  0.0698
  419POPI   C2B 6540   9.424   6.005   9.180 -0.2527 -0.0961  0.1752
  419POPI   C3B 6541   9.529   5.806   8.711 -0.2045  0.0901  0.0329
  419POPI   C4B 6542   9.850   5.866   8.434  0.2587 -0.2677 -0.0989
  420POPI    C1 6543  13.092  14.954  10.821 -0.0787 -0.0946  0.0872
  420POPI    C2 6544  12.751  14.774  10.717 -0.1890  0.0316  0.2243
  420POPI    C3 6545  12.743  15.087  10.965  0.0238  0.0617  0.1949
  420POPI   PO4 6546  13.232  14.986  10.627  0.0588  0.1733 -0.0330
  420POPI   GL1 6547  13.457  15.024  10.211  0.0473  0.0010 -0.0023
  420POPI   GL2 6548  13.523  15.286  10.121 -0.0577  0.1772 -0.0905
  420POPI   C1A 6549  13.499  14.629  10.072  0.2793 -0.4005 -0.2354
  420POPI   D2A 6550  13.433  14.195   9.924 -0.2888  0.0993 -0.0185
  420POPI   C3A 6551  13.673  13.962   9.646  0.1668 -0.1141  0.0453
  420POPI   C4A 6552  13.913  13.982   9.276  0.1548  0.4408 -0.0865
  420POPI   C1B 6553  13.445  15.207   9.665 -0.0004 -0.0404  0.1054
  420POPI   C2B 6554  13.154  15.193   9.306 -0.1309  0.0169 -0.1760
  420POPI   C3B 6555  13.211  15.107   8.891  0.0679 -0.3554  0.0549
  420POPI   C4B 6556  13.360  15.304   8.545  0.1114  0.0095 -0.0648
  421POPI    C1 6557  16.004  11.193  10.545  0.1093 -0.3001 -0.1503
  421POPI    C2 6558  15.992  10.815  10.677 -0.0478 -0.2105  0.0995
  421POPI    C3 6559  15.815  11.106  10.887  0.0924  0.0070 -0.0785
  421POPI   PO4 6560  16.211  11.167  10.361  0.1055  0.2312 -0.1713
  421POPI   GL1 6561  16.180  11.161   9.893 -0.3954  0.1320  0.0602
  421POPI   GL2 6562  16.307  10.840   9.714  0.1838  0.1497 -0.0550
  421POPI   C1A 6563  15.785  11.233   9.624  0.1651 -0.0854 -0.0615
  421POPI   D2A 6564  15.684  11.268   9.219 -0.1969 -0.0003 -0.0763
  421POPI   C3A 6565  15.834  11.544   9.034  0.2282 -0.2286 -0.0101
  421POPI   C4A 6566  15.778  11.724   8.568 -0.1115  0.0257 -0.0653
  421POPI   C1B 6567  16.015  10.787   9.527 -0.0299  0.5624 -0.2301
  421POPI   C2B 6568  15.926  10.834   9.139 -0.2837 -0.0032  0.1270
  421POPI   C3B 6569  15.627  11.009   8.735  0.0229  0.0595 -0.1878
  421POPI   C4B 6570  15.804  11.265   8.392 -0.0552 -0.2804 -0.2310
  422POPI    C1 6571  15.579  12.634  10.974 -0.0606 -0.0272 -0.1508
  422POPI    C2 6572  15.731  12.984  10.856 -0.1067  0.0803  0.1014
  422POPI    C3 6573  15.942  12.747  11.099 -0.0953 -0.0463 -0.0308
  422POPI   PO4 6574  15.578  12.560  10.707 -0.1162 -0.0088  0.0504
  422POPI   GL1 6575  15.439  12.548  10.280 -0.0275  0.2838  0.0885
  422POPI   GL2 6576  15.327  12.249  10.056  0.1478 -0.2510 -0.1314
  422POPI   C1A 6577  15.757  12.474  10.038  0.0861 -0.0227 -0.0210
  422POPI   D2A 6578  15.951  12.328   9.724  0.1725 -0.1541 -0.2497
  422POPI   C3A 6579  16.325  12.536   9.472 -0.0706  0.3801 -0.2106
  422POPI   C4A 6580  16.593  12.833   9.395  0.4785 -0.1201 -0.1858
  422POPI   C1B 6581  15.499  12.097   9.695 -0.0859 -0.0025  0.2318
  422POPI   C2B 6582  15.657  11.972   9.426  0.1346 -0.2198  0.0671
  422POPI   C3B 6583  15.605  12.076   9.049 -0.1602  0.1869  0.2239
  422POPI   C4B 6584  15.401  12.096   8.772 -0.1482  0.0614 -0.0711
  423DPPI    C1 6585   8.552  10.440  11.043 -0.0847  0.2009 -0.0513
  423DPPI    C2 6586   8.755  10.783  11.011 -0.0561  0.2240  0.3261
  423DPPI    C3 6587   8.832  10.532  11.313 -0.2424 -0.0049  0.1877
  423DPPI   PO4 6588   8.271  10.596  10.862  0.0246  0.2715  0.2303
  423DPPI   GL1 6589   8.197  10.407  10.454  0.3831  0.1837 -0.0517
  423DPPI   GL2 6590   8.485  10.404  10.171 -0.0359 -0.1316  0.3635
  423DPPI   C1A 6591   8.040  10.678  10.183 -0.0117 -0.4433 -0.3985
  423DPPI   C2A 6592   8.071  10.718   9.770  0.0136  0.0219 -0.2885
  423DPPI   C3A 6593   8.020  10.626   9.444 -0.0001 -0.1570  0.0218
  423DPPI   C4A 6594   8.082  10.621   8.946  0.3281  0.0082  0.1109
  423DPPI   C1B 6595   8.505  10.405   9.748  0.3604  0.0625 -0.1796
  423DPPI   C2B 6596   8.545  10.478   9.291 -0.1473  0.3998 -0.3489
  423DPPI   C3B 6597   8.470  10.366   8.875 -0.0375 -0.4182 -0.2015
  423DPPI   C4B 6598   8.744  10.297   8.407  0.2277 -0.1962 -0.2282
  424DPPI    C1 6599   9.820   6.184  10.452 -0.3311 -0.4191 -0.1800
  424DPPI    C2 6600  10.072   5.910  10.600  0.2339  0.1971  0.0488
  424DPPI    C3 6601   9.727   5.987  10.788  0.0753 -0.3314 -0.0104
  424DPPI   PO4 6602   9.854   6.456  10.474 -0.3464  0.1261 -0.2457
  424DPPI   GL1 6603  10.039   6.717  10.197 -0.0227  0.0120  0.1301
  424DPPI   GL2 6604   9.861   6.688   9.968 -0.2504 -0.5186 -0.0949
  424DPPI   C1A 6605  10.424   6.692   9.824 -0.1809  0.0872 -0.1230
  424DPPI   C2A 6606  10.453   6.562   9.465 -0.2199 -0.2499  0.1479
  424DPPI   C3A 6607  10.554   6.348   9.099  0.2415  0.0605 -0.1266
  424DPPI   C4A 6608  10.632   5.963   8.938 -0.0643 -0.3559  0.1656
  424DPPI   C1B 6609   9.869   6.563   9.525 -0.0923  0.1533 -0.2108
  424DPPI   C2B 6610   9.881   6.455   9.188  0.0604  0.0492  0.1292
  424DPPI   C3B 6611   9.703   6.387   8.826  0.0778  0.3757 -0.2215
  424DPPI   C4B 6612   9.813   6.492   8.325  0.1016 -0.2690  0.2249
  425DPPI    C1 6613  16.486  14.809  10.319 -0.2230 -0.0447 -0.0919
  425DPPI    C2 6614  16.617  14.967  10.662 -0.2964 -0.0046 -0.0822
  425DPPI    C3 6615  16.313  14.708  10.665 -0.3679  0.0782 -0.1274
  425DPPI   PO4 6616  16.489  15.027  10.139 -0.2593  0.2430 -0.1092
  425DPPI   GL1 6617  16.129  15.070   9.825 -0.2166  0.0002  0.1989
  425DPPI   GL2 6618  16.258  14.803   9.832 -0.2594  0.0607  0.1343
  425DPPI   C1A 6619  16.085  15.324   9.405  0.0802 -0.2164 -0.1494
  425DPPI   C2A 6620  16.118  15.326   8.970  0.0202 -0.0647 -0.1256
  425DPPI   C3A 6621  16.032  15.136   8.615  0.0137  0.1614 -0.0073
  425DPPI   C4A 6622  15.937  15.339   8.207 -0.0638  0.1404 -0.0898
  425DPPI   C1B 6623  16.095  14.733   9.417 -0.1104  0.1682  0.1029
  425DPPI   C2B 6624  15.940  14.851   9.067  0.0581 -0.1251  0.3409
  425DPPI   C3B 6625  15.607  14.813   8.686 -0.0232 -0.0189 -0.0637
  425DPPI   C4B 6626  15.767  14.811   8.212 -0.0131  0.1122 -0.3971
  426DPPI    C1 6627   9.636  12.255  10.392 -0.0827 -0.2312 -0.1452
  426DPPI    C2 6628   9.501  11.881  10.351 -0.0241 -0.2574 -0.1000
  426DPPI    C3 6629   9.678  11.993  10.691 -0.3092 -0.1043  0.0007
  426DPPI   PO4 6630   9.500  12.413  10.319 -0.2391  0.3898 -0.2493
  426DPPI   GL1 6631   9.371  12.610  10.006  0.0573 -0.1216  0.0998
  426DPPI   GL2 6632   9.782  12.849  10.056 -0.1948 -0.1170 -0.1412
  426DPPI   C1A 6633   9.415  12.686   9.546 -0.0365  0.1611 -0.0706
  426DPPI   C2A 6634   9.216  12.755   9.186 -0.0646  0.2147 -0.1120
  426DPPI   C3A 6635   9.387  12.932   8.753 -0.1195  0.2329 -0.1310
  426DPPI   C4A 6636   9.147  12.898   8.377  0.1386 -0.4219 -0.0722
  426DPPI   C1B 6637   9.910  12.721   9.688 -0.3133 -0.2171 -0.4337
  426DPPI   C2B 6638  10.187  12.842   9.492 -0.0410  0.3489  0.1312
  426DPPI   C3B 6639  10.176  13.259   9.175  0.1835  0.0519 -0.0811
  426DPPI   C4B 6640  10.444  13.422   8.816  0.4064 -0.0052 -0.1555
  427DPPI    C1 6641  11.177   3.852  10.682  0.0166  0.0358  0.0105
  427DPPI    C2 6642  10.843   3.999  10.517 -0.1113 -0.1610  0.0905
  427DPPI    C3 6643  10.833   3.846  10.886  0.0561 -0.2176  0.0723
  427DPPI   PO4 6644  11.246   3.631  10.564 -0.1156  0.2587  0.0186
  427DPPI   GL1 6645  11.135   3.500  10.112  0.0422  0.0568  0.1033
  427DPPI   GL2 6646  10.944   3.283  10.043 -0.1627 -0.1880 -0.1532
  427DPPI   C1A 6647  11.047   3.762   9.777 -0.0216 -0.4622  0.1908
  427DPPI   C2A 6648  11.062   3.815   9.306 -0.2654  0.1234 -0.0493
  427DPPI   C3A 6649  10.951   3.727   8.907 -0.3122 -0.1750  0.2593
  427DPPI   C4A 6650  10.834   3.844   8.480  0.1892 -0.0803  0.3188
  427DPPI   C1B 6651  10.663   2.962   9.802  0.2571 -0.0335  0.0134
  427DPPI   C2B 6652  10.665   2.876   9.387  0.2812 -0.0022  0.1948
  427DPPI   C3B 6653  10.568   3.067   8.992 -0.0183  0.2096 -0.0086
  427DPPI   C4B 6654  10.378   3.109   8.564 -0.3586  0.1514  0.4338
  428DPPI    C1 6655  10.418   6.848  11.016 -0.1611 -0.1844 -0.1087
  428DPPI    C2 6656  10.740   6.873  11.252 -0.0843  0.0018 -0.2309
  428DPPI    C3 6657  10.379   6.807  11.412 -0.0314  0.1126 -0.0626
  428DPPI   PO4 6658  10.618   6.787  10.731  0.3125 -0.3007  0.2653
  428DPPI   GL1 6659  10.524   6.815  10.336 -0.1128 -0.0116  0.2861
  428DPPI   GL2 6660  10.225   7.134  10.234 -0.1918 -0.0960  0.1359
  428DPPI   C1A 6661  10.787   6.949  10.098  0.2803 -0.1474 -0.0682
  428DPPI   C2A 6662  10.674   7.090   9.583  0.1213 -0.0277  0.0075
  428DPPI   C3A 6663  10.649   7.280   9.189 -0.0387 -0.1012 -0.0678
  428DPPI   C4A 6664  10.600   7.209   8.791 -0.0051 -0.0978  0.2373
  428DPPI   C1B 6665  10.153   7.103   9.856  0.1904 -0.0362  0.0870
  428DPPI   C2B 6666  10.191   6.993   9.449  0.0892  0.3327 -0.3130
  428DPPI   C3B 6667  10.337   6.887   9.131  0.0461 -0.2685  0.0664
  428DPPI   C4B 6668  10.135   6.635   8.775 -0.0085  0.0413 -0.0905
  429DPPI    C1 6669  11.664  10.335  10.824 -0.2541  0.0916 -0.0651
  429DPPI    C2 6670  11.608   9.940  10.791 -0.0087  0.0430  0.0717
  429DPPI    C3 6671  11.716  10.098  11.142  0.1142  0.2040 -0.0367
  429DPPI   PO4 6672  11.426  10.438  10.700 -0.1749 -0.0480 -0.1884
  429DPPI   GL1 6673  11.231  10.509  10.240  0.1542 -0.0881  0.4453
  429DPPI   GL2 6674  11.495  10.674  10.227 -0.1076  0.0265 -0.0728
  429DPPI   C1A 6675  11.143  10.161   9.888  0.0262 -0.0176  0.1812
  429DPPI   C2A 6676  11.016   9.980   9.495  0.4908  0.0993 -0.0715
  429DPPI   C3A 6677  10.929   9.900   9.044 -0.4453 -0.0170  0.3524
  429DPPI   C4A 6678  11.028   9.605   8.668  0.2866 -0.3085 -0.0075
  429DPPI   C1B 6679  11.691  10.532   9.854  0.2049  0.3377 -0.1516
  429DPPI   C2B 6680  11.777  10.683   9.435 -0.2014  0.0746  0.1624
  429DPPI   C3B 6681  11.913  10.650   9.095  0.1765  0.1774  0.3049
  429DPPI   C4B 6682  12.281  10.894   9.153  0.1282  0.0105  0.1161
  430DPPI    C1 6683   0.908   3.422  10.613 -0.1667  0.0015  0.2050
  430DPPI    C2 6684   0.861   3.817  10.563 -0.1616 -0.0286 -0.0523
  430DPPI    C3 6685   1.106   3.678  10.848 -0.1810  0.1531  0.0542
  430DPPI   PO4 6686   0.851   3.307  10.361 -0.1414 -0.1802  0.2652
  430DPPI   GL1 6687   0.625   3.233  10.175 -0.1168  0.0546  0.1648
  430DPPI   GL2 6688   0.517   2.918  10.043  0.0104  0.4790  0.1210
  430DPPI   C1A 6689   0.610   3.269   9.685  0.0217 -0.0414 -0.1684
  430DPPI   C2A 6690   1.002   3.358   9.347  0.0136 -0.0550  0.0362
  430DPPI   C3A 6691   1.003   3.498   9.007  0.1062 -0.5013 -0.0667
  430DPPI   C4A 6692   0.902   3.772   8.765 -0.1830  0.3822 -0.0384
  430DPPI   C1B 6693   0.381   2.843   9.635  0.0004 -0.1438  0.1037
  430DPPI   C2B 6694   0.433   3.136   9.190 -0.0932  0.3096 -0.2346
  430DPPI   C3B 6695   0.542   3.488   9.149  0.1556  0.2148 -0.0699
  430DPPI   C4B 6696   0.324   3.770   8.779 -0.0116 -0.2313 -0.1533
  431DPPI    C1 6697   6.631   6.167  10.917  0.1107  0.1360  0.1599
  431DPPI    C2 6698   6.424   6.467  11.082  0.0656  0.1982 -0.0075
  431DPPI    C3 6699   6.798   6.392  11.203 -0.0589  0.0732  0.3101
  431DPPI   PO4 6700   6.573   6.170  10.725  0.0535 -0.1426  0.1933
  431DPPI   GL1 6701   6.404   6.164  10.305  0.1424  0.1750 -0.0931
  431DPPI   GL2 6702   6.196   5.992  10.029  0.1893 -0.0155  0.1124
  431DPPI   C1A 6703   6.859   6.070  10.142  0.1065 -0.1640 -0.0248
  431DPPI   C2A 6704   7.042   5.865   9.787 -0.1784  0.0409 -0.1816
  431DPPI   C3A 6705   7.139   5.492   9.647 -0.3424 -0.0842  0.0551
  431DPPI   C4A 6706   7.448   5.383   9.509 -0.0883  0.2832 -0.0097
  431DPPI   C1B 6707   6.499   6.104   9.726 -0.0775 -0.2766  0.0708
  431DPPI   C2B 6708   6.477   6.125   9.331  0.1267  0.1723 -0.0521
  431DPPI   C3B 6709   6.515   6.430   8.986 -0.1579 -0.1210 -0.0336
  431DPPI   C4B 6710   6.772   6.302   8.577 -0.0001  0.0783  0.2643
  432DPPI    C1 6711  11.960   8.332  10.789  0.3473  0.1366 -0.1474
  432DPPI    C2 6712  11.933   8.276  11.184 -0.0185  0.0359 -0.1833
  432DPPI    C3 6713  12.292   8.293  11.009  0.1469  0.0935  0.1533
  432DPPI   PO4 6714  11.836   8.611  10.763  0.0577 -0.2199 -0.3797
  432DPPI   GL1 6715  11.367   8.795  10.565  0.0365  0.0342 -0.0478
  432DPPI   GL2 6716  11.211   8.581  10.393 -0.0354 -0.1349  0.3538
  432DPPI   C1A 6717  11.570   9.072  10.284  0.3765  0.3150  0.1519
  432DPPI   C2A 6718  11.811   9.102  10.041 -0.2326 -0.0371 -0.1888
  432DPPI   C3A 6719  12.060   9.035   9.742 -0.1628 -0.2658 -0.0415
  432DPPI   C4A 6720  12.046   9.113   9.267  0.3235  0.4535 -0.1784
  432DPPI   C1B 6721  11.107   8.498  10.007  0.3024 -0.1770 -0.0100
  432DPPI   C2B 6722  11.192   8.456   9.670  0.4196  0.0003  0.1655
  432DPPI   C3B 6723  11.087   8.252   9.220  0.1851  0.0013  0.2473
  432DPPI   C4B 6724  11.144   8.358   8.869  0.1112 -0.2184 -0.0676
  433DPPI    C1 6725   4.066  15.449  10.682 -0.0692 -0.0989 -0.1737
  433DPPI    C2 6726   4.365  15.193  10.751 -0.0300 -0.0017  0.0233
  433DPPI    C3 6727   4.405  15.579  10.849 -0.2348  0.0038  0.0881
  433DPPI   PO4 6728   3.915  15.328  10.479 -0.0454  0.0608 -0.0391
  433DPPI   GL1 6729   3.957  15.454  10.073  0.0244  0.1293  0.1711
  433DPPI   GL2 6730   3.805  15.187   9.849  0.0419  0.1508 -0.0961
  433DPPI   C1A 6731   3.918  15.586   9.655  0.2759  0.3634 -0.1052
  433DPPI   C2A 6732   3.994  15.706   9.287 -0.1954  0.2456 -0.1940
  433DPPI   C3A 6733   4.000  15.589   8.812 -0.0855 -0.2042  0.2281
  433DPPI   C4A 6734   4.154  15.452   8.351  0.0092  0.4459  0.0804
  433DPPI   C1B 6735   3.832  15.151   9.418 -0.0589  0.0787  0.2260
  433DPPI   C2B 6736   3.795  15.174   8.927 -0.2072 -0.2502  0.0669
  433DPPI   C3B 6737   3.817  15.175   8.518 -0.2572  0.2517  0.0999
  433DPPI   C4B 6738   3.779  15.002   8.081 -0.0098  0.2302  0.1718
  434DPPI    C1 6739  16.986  17.200  10.280 -0.3597 -0.0745  0.0080
  434DPPI    C2 6740  16.752  17.040  10.562 -0.0483 -0.2467  0.1744
  434DPPI    C3 6741  17.118  16.893  10.499 -0.0574 -0.1119 -0.2206
  434DPPI   PO4 6742  16.852  17.241  10.030 -0.3432  0.0466  0.0651
  434DPPI   GL1 6743  16.778  17.414   9.635  0.0198  0.2242 -0.1262
  434DPPI   GL2 6744  17.092  17.536   9.708 -0.0950  0.0943  0.1148
  434DPPI   C1A 6745  16.638  17.105   9.289  0.0788 -0.1283  0.0380
  434DPPI   C2A 6746  16.617  17.105   8.799 -0.0204  0.0267  0.3213
  434DPPI   C3A 6747  16.817  17.166   8.474 -0.1152 -0.2364  0.3998
  434DPPI   C4A 6748  17.057  17.325   8.113 -0.1317 -0.0306 -0.0307
  434DPPI   C1B 6749  16.932  17.606   9.228  0.2055  0.1380  0.0971
  434DPPI   C2B 6750  16.879  17.587   8.804  0.1006  0.2043  0.2667
  434DPPI   C3B 6751  17.013  17.691   8.481 -0.2425  0.2931  0.1503
  434DPPI   C4B 6752  17.085  17.865   8.162 -0.1235 -0.2330 -0.0470
  435DPPI    C1 6753   1.902   5.167  10.742 -0.0077 -0.2691 -0.1020
  435DPPI    C2 6754   1.821   4.868  10.994 -0.2270 -0.0806  0.0555
  435DPPI    C3 6755   1.996   5.201  11.129 -0.2370 -0.0259 -0.0652
  435DPPI   PO4 6756   2.075   5.002  10.557  0.0902  0.1874  0.1130
  435DPPI   GL1 6757   2.081   5.052  10.153 -0.2317  0.0195  0.0515
  435DPPI   GL2 6758   2.334   5.091  10.052  0.1863 -0.0287 -0.2401
  435DPPI   C1A 6759   1.693   5.236   9.835  0.1053 -0.1793 -0.1643
  435DPPI   C2A 6760   1.509   4.953   9.708 -0.1419  0.0236 -0.0433
  435DPPI   C3A 6761   1.358   4.639   9.583 -0.2363 -0.2461  0.2257
  435DPPI   C4A 6762   1.119   4.326   9.771  0.0173 -0.0245 -0.2100
  435DPPI   C1B 6763   2.272   5.046   9.699 -0.1539  0.0677 -0.2960
  435DPPI   C2B 6764   1.938   5.081   9.435 -0.3096 -0.3487 -0.3355
  435DPPI   C3B 6765   1.635   4.913   9.244 -0.0515 -0.0038 -0.0492
  435DPPI   C4B 6766   1.464   4.516   9.084 -0.0223  0.0617 -0.1675
  436DPPI    C1 6767   5.504  10.740  10.621 -0.0402 -0.0440 -0.0647
  436DPPI    C2 6768   5.774  11.028  10.559  0.0357 -0.0855  0.0680
  436DPPI    C3 6769   5.604  10.989  10.918 -0.0805 -0.1166  0.0101
  436DPPI   PO4 6770   5.659  10.523  10.444 -0.2216 -0.0702  0.1152
  436DPPI   GL1 6771   5.639  10.531  10.015  0.1914 -0.1296 -0.0828
  436DPPI   GL2 6772   5.899  10.677  10.047  0.1899  0.0631 -0.2098
  436DPPI   C1A 6773   5.756  10.480   9.562 -0.0967 -0.0512 -0.0112
  436DPPI   C2A 6774   5.757  10.529   9.140 -0.1298 -0.0350 -0.0198
  436DPPI   C3A 6775   5.831  10.404   8.763  0.0283 -0.1721 -0.3317
  436DPPI   C4A 6776   5.894  10.269   8.337 -0.0945  0.0554  0.5420
  436DPPI   C1B 6777   6.138  10.768   9.650 -0.1519 -0.0170  0.0778
  436DPPI   C2B 6778   6.214  10.728   9.234 -0.1551  0.0143  0.1174
  436DPPI   C3B 6779   6.277  10.766   8.771 -0.0637  0.2847 -0.0611
  436DPPI   C4B 6780   6.219  10.672   8.378  0.0396 -0.0514 -0.0756
  437DPPI    C1 6781   2.039   7.787  10.823 -0.2151  0.0687 -0.0466
  437DPPI    C2 6782   1.875   7.580  11.124 -0.2383  0.0376 -0.0806
  437DPPI    C3 6783   2.148   7.861  11.201 -0.3377  0.1186 -0.0204
  437DPPI   PO4 6784   1.876   7.868  10.661 -0.0032  0.0954  0.0360
  437DPPI   GL1 6785   1.694   7.830  10.332  0.0386  0.2163  0.1395
  437DPPI   GL2 6786   1.857   7.623  10.118 -0.0351  0.0025 -0.0485
  437DPPI   C1A 6787   1.639   8.246   9.986  0.1446  0.0177  0.3993
  437DPPI   C2A 6788   1.599   8.267   9.578  0.0255 -0.1609  0.1102
  437DPPI   C3A 6789   1.898   8.365   9.260 -0.0451 -0.1912 -0.1890
  437DPPI   C4A 6790   2.123   8.675   8.980  0.0009 -0.1166  0.3483
  437DPPI   C1B 6791   1.799   7.821   9.691 -0.0313  0.0470 -0.3008
  437DPPI   C2B 6792   1.790   7.834   9.262 -0.1107  0.4107 -0.4445
  437DPPI   C3B 6793   1.729   7.698   8.885  0.1672  0.0667  0.0744
  437DPPI   C4B 6794   2.005   7.795   8.504  0.2938 -0.0107  0.4720
  438DPPI    C1 6795   7.231  15.328  10.652 -0.0577 -0.3092  0.1750
  438DPPI    C2 6796   7.018  15.649  10.761 -0.1821 -0.3197 -0.0314
  438DPPI    C3 6797   7.179  15.411  11.040  0.2247  0.1254  0.1266
  438DPPI   PO4 6798   7.301  15.430  10.344  0.1339  0.1558 -0.0350
  438DPPI   GL1 6799   7.335  15.563   9.918 -0.1498 -0.0869  0.0185
  438DPPI   GL2 6800   7.350  15.916   9.802  0.1081 -0.0185  0.0633
  438DPPI   C1A 6801   7.239  15.556   9.463  0.1389 -0.1665 -0.2566
  438DPPI   C2A 6802   7.199  15.460   9.006  0.0884 -0.0213 -0.2856
  438DPPI   C3A 6803   7.105  15.332   8.685 -0.1098 -0.1448  0.1348
  438DPPI   C4A 6804   7.058  15.334   8.151 -0.1844  0.3138  0.1081
  438DPPI   C1B 6805   7.354  16.048   9.282  0.1148 -0.1097  0.0733
  438DPPI   C2B 6806   7.347  16.037   8.869 -0.1096  0.0538  0.3278
  438DPPI   C3B 6807   7.339  15.919   8.523  0.1298  0.1563  0.0045
  438DPPI   C4B 6808   7.228  15.801   8.175  0.0279  0.2229  0.1464
  439DPPI    C1 6809  12.506  10.540  10.962 -0.1270  0.2100  0.1241
  439DPPI    C2 6810  12.145  10.537  10.790 -0.0808 -0.2664  0.0203
  439DPPI    C3 6811  12.191  10.398  11.162 -0.0508  0.0724  0.1474
  439DPPI   PO4 6812  12.638  10.471  10.780 -0.1069 -0.4818  0.0323
  439DPPI   GL1 6813  12.590  10.743  10.466 -0.1823  0.2228 -0.0137
  439DPPI   GL2 6814  12.821  10.504  10.316 -0.4237 -0.3919 -0.0493
  439DPPI   C1A 6815  12.323  10.792  10.203  0.0140 -0.0218 -0.3721
  439DPPI   C2A 6816  12.034  10.895   9.835  0.0039 -0.0415 -0.3380
  439DPPI   C3A 6817  11.584  11.042   9.845 -0.0484  0.1395  0.0395
  439DPPI   C4A 6818  11.182  11.209   9.971  0.1735  0.2757  0.1359
  439DPPI   C1B 6819  12.702  10.521   9.846  0.1745 -0.0327 -0.0789
  439DPPI   C2B 6820  12.686  10.305   9.537 -0.0862 -0.1864 -0.0568
  439DPPI   C3B 6821  12.638   9.988   9.242  0.2152 -0.0068  0.1436
  439DPPI   C4B 6822  12.362   9.752   9.287  0.2343 -0.2178 -0.2049
  440DPPI    C1 6823   7.519  13.225  10.657  0.0166  0.2890  0.0437
  440DPPI    C2 6824   7.201  13.146  10.887 -0.1301  0.1883 -0.1890
  440DPPI    C3 6825   7.292  13.525  10.794  0.0790  0.2491  0.2369
  440DPPI   PO4 6826   7.449  13.091  10.457 -0.1675 -0.0469 -0.2942
  440DPPI   GL1 6827   7.623  12.919  10.066  0.1119  0.2245 -0.0315
  440DPPI   GL2 6828   7.728  13.263   9.896  0.1962 -0.0755  0.1454
  440DPPI   C1A 6829   7.705  12.733   9.682 -0.0480  0.0365  0.1318
  440DPPI   C2A 6830   7.851  12.881   9.291 -0.0751  0.2590 -0.2304
  440DPPI   C3A 6831   7.875  13.204   8.989  0.0439 -0.0810  0.0240
  440DPPI   C4A 6832   7.889  13.623   9.023 -0.1559 -0.0775 -0.1945
  440DPPI   C1B 6833   7.880  13.378   9.479  0.1336  0.2326  0.1320
  440DPPI   C2B 6834   8.271  13.133   9.239 -0.0795  0.1516 -0.0134
  440DPPI   C3B 6835   8.623  13.025   8.924  0.0425 -0.1821  0.2039
  440DPPI   C4B 6836   8.856  12.845   8.784  0.0012  0.0264 -0.0693
  441DPPI    C1 6837  16.331   5.690  10.439  0.1105  0.0775 -0.1700
  441DPPI    C2 6838  15.990   5.633  10.639  0.1704 -0.2390 -0.1532
  441DPPI    C3 6839  16.262   5.891  10.778 -0.1632  0.2043 -0.2977
  441DPPI   PO4 6840  16.219   5.734  10.179  0.0844 -0.3204 -0.3909
  441DPPI   GL1 6841  15.962   5.877   9.834  0.0846  0.3328 -0.1853
  441DPPI   GL2 6842  16.219   6.208   9.886  0.1745  0.2013  0.2994
  441DPPI   C1A 6843  15.733   5.851   9.397 -0.0332 -0.1505  0.0328
  441DPPI   C2A 6844  15.962   5.880   9.024  0.2488 -0.2629  0.4172
  441DPPI   C3A 6845  15.962   6.011   8.597  0.0949 -0.0142 -0.3249
  441DPPI   C4A 6846  15.848   5.887   8.316 -0.3587 -0.0141  0.1723
  441DPPI   C1B 6847  16.173   6.293   9.425  0.1805 -0.2200  0.2092
  441DPPI   C2B 6848  16.332   6.601   9.174 -0.2447 -0.0141  0.1386
  441DPPI   C3B 6849  16.501   6.573   8.808 -0.4203 -0.2989 -0.0470
  441DPPI   C4B 6850  16.862   6.681   8.518 -0.0903  0.0003  0.2252
  442DPPI    C1 6851  14.732   2.577  10.301  0.5279  0.0558 -0.0157
  442DPPI    C2 6852  15.009   2.619  10.587  0.3734 -0.0998  0.1602
  442DPPI    C3 6853  14.666   2.430  10.667  0.1128  0.2949  0.0125
  442DPPI   PO4 6854  14.752   2.681  10.079  0.1390  0.0860  0.0642
  442DPPI   GL1 6855  14.923   2.744   9.586  0.0294 -0.2943 -0.0991
  442DPPI   GL2 6856  15.219   2.753   9.433 -0.0179  0.0388  0.3194
  442DPPI   C1A 6857  14.630   2.744   9.213  0.0987  0.0174  0.3237
  442DPPI   C2A 6858  14.525   2.581   8.695 -0.0402  0.1665 -0.1616
  442DPPI   C3A 6859  14.235   2.625   8.415  0.0941 -0.1048 -0.0823
  442DPPI   C4A 6860  13.765   2.508   8.575  0.0924  0.2857 -0.2307
  442DPPI   C1B 6861  15.194   2.800   9.050 -0.2096  0.0287 -0.0218
  442DPPI   C2B 6862  14.876   2.930   8.795  0.1760 -0.1604 -0.0365
  442DPPI   C3B 6863  14.587   3.064   8.551  0.0230  0.2207  0.1487
  442DPPI   C4B 6864  14.386   3.097   8.161 -0.1103 -0.0741 -0.2054
  443DPPI    C1 6865   4.842   8.728  10.454 -0.1954  0.0544 -0.1657
  443DPPI    C2 6866   4.618   8.912  10.730 -0.1587  0.0375 -0.1247
  443DPPI    C3 6867   4.847   8.600  10.832  0.0018  0.1510 -0.1343
  443DPPI   PO4 6868   4.595   8.802  10.253  0.0556  0.0852  0.1112
  443DPPI   GL1 6869   4.636   8.933   9.889 -0.1478 -0.1420  0.0104
  443DPPI   GL2 6870   4.877   8.809   9.815 -0.1415  0.2177  0.1298
  443DPPI   C1A 6871   4.524   8.858   9.513  0.3260  0.1056  0.0539
  443DPPI   C2A 6872   4.571   8.776   9.086 -0.0436  0.0551 -0.0051
  443DPPI   C3A 6873   4.555   8.606   8.628 -0.1921  0.2716  0.1996
  443DPPI   C4A 6874   4.549   8.451   8.255  0.0811 -0.1246  0.0993
  443DPPI   C1B 6875   4.967   8.681   9.364 -0.0603  0.6132  0.1951
  443DPPI   C2B 6876   4.985   8.642   8.938  0.1992 -0.2869 -0.0247
  443DPPI   C3B 6877   5.206   8.757   8.590  0.0540 -0.1993 -0.2587
  443DPPI   C4B 6878   5.471   8.710   8.254  0.1370  0.1485  0.1227
  444DPPI    C1 6879   1.626  16.186  10.572  0.1525  0.1596 -0.1800
  444DPPI    C2 6880   1.677  16.557  10.712 -0.1120  0.1282  0.0068
  444DPPI    C3 6881   1.334  16.363  10.781  0.0700 -0.1967  0.0140
  444DPPI   PO4 6882   1.607  16.185  10.319 -0.2303 -0.0032  0.3367
  444DPPI   GL1 6883   1.837  15.952  10.018 -0.1326  0.0717  0.1345
  444DPPI   GL2 6884   2.042  15.790   9.891 -0.0885  0.0891 -0.1808
  444DPPI   C1A 6885   1.887  16.197   9.701 -0.0309 -0.1371  0.0834
  444DPPI   C2A 6886   1.670  16.202   9.221  0.0742  0.3686 -0.1861
  444DPPI   C3A 6887   1.565  16.169   8.799  0.2147  0.0425 -0.2453
  444DPPI   C4A 6888   1.708  16.340   8.411  0.1313 -0.1671  0.0772
  444DPPI   C1B 6889   1.870  15.743   9.456  0.1198 -0.2709  0.3504
  444DPPI   C2B 6890   1.737  15.745   8.978  0.1587  0.1419 -0.1056
  444DPPI   C3B 6891   1.798  15.783   8.513  0.1520 -0.2287 -0.0148
  444DPPI   C4B 6892   1.764  15.513   8.146 -0.1546 -0.2111 -0.1755
  445DPPI    C1 6893   9.206   6.658  10.513 -0.0519 -0.0051  0.0364
  445DPPI    C2 6894   9.148   6.625  10.907 -0.0256 -0.0938  0.0329
  445DPPI    C3 6895   9.411   6.387  10.723 -0.0838 -0.0954 -0.0487
  445DPPI   PO4 6896   9.028   6.710  10.408 -0.1600  0.0286  0.2256
  445DPPI   GL1 6897   8.780   6.849  10.076 -0.0918  0.0137 -0.1876
  445DPPI   GL2 6898   8.421   6.944  10.107 -0.1212 -0.4045 -0.1738
  445DPPI   C1A 6899   8.952   6.845   9.605  0.0827  0.0007  0.2021
  445DPPI   C2A 6900   9.025   6.873   9.148  0.0977 -0.0594  0.4290
  445DPPI   C3A 6901   9.221   7.078   8.766 -0.1282  0.1385  0.0819
  445DPPI   C4A 6902   9.266   7.348   8.444  0.0068  0.0928  0.1254
  445DPPI   C1B 6903   8.353   7.108   9.677  0.0394  0.0434  0.0259
  445DPPI   C2B 6904   8.410   7.184   9.260  0.1290 -0.1206 -0.0328
  445DPPI   C3B 6905   8.724   7.133   8.935 -0.1241  0.0427  0.0334
  445DPPI   C4B 6906   8.753   7.246   8.542 -0.1084  0.3262  0.1162
  446DPPI    C1 6907   3.925   5.997  10.792  0.1344  0.0236  0.1286
  446DPPI    C2 6908   3.559   5.896  10.917  0.1108 -0.0231  0.0225
  446DPPI    C3 6909   3.839   5.614  10.871  0.0807 -0.0251 -0.1564
  446DPPI   PO4 6910   3.921   6.057  10.494 -0.3506 -0.1032  0.3272
  446DPPI   GL1 6911   3.972   6.028  10.050 -0.0409  0.0606 -0.0000
  446DPPI   GL2 6912   4.344   5.980   9.930  0.4220 -0.1776 -0.0081
  446DPPI   C1A 6913   3.917   5.961   9.544 -0.3712  0.0128 -0.0220
  446DPPI   C2A 6914   3.731   6.083   9.140 -0.2115 -0.0938 -0.0638
  446DPPI   C3A 6915   3.670   6.385   8.801 -0.1171 -0.3553 -0.0346
  446DPPI   C4A 6916   3.440   6.659   8.479 -0.0929 -0.1821  0.0208
  446DPPI   C1B 6917   4.543   6.024   9.510  0.2447  0.0282  0.0926
  446DPPI   C2B 6918   4.306   6.186   9.286  0.0081  0.1253 -0.1688
  446DPPI   C3B 6919   4.190   6.120   8.869  0.1138 -0.0567  0.1148
  446DPPI   C4B 6920   4.071   5.807   8.571  0.1404  0.0726 -0.0631
  447DPPI    C1 6921  17.677   5.610  10.457 -0.1649 -0.0429 -0.0362
  447DPPI    C2 6922  17.503   5.487  10.796  0.0390 -0.0382  0.0722
  447DPPI    C3 6923  17.280   5.564  10.473 -0.1430 -0.1813  0.1613
  447DPPI   PO4 6924  17.872   5.408  10.358  0.0924  0.0919 -0.0848
  447DPPI   GL1 6925  17.812   5.350  10.030  0.0609  0.1631  0.1689
  447DPPI   GL2 6926  17.540   5.468   9.894 -0.0455 -0.0013 -0.3210
  447DPPI   C1A 6927  17.935   5.509   9.551  0.0477 -0.1025 -0.0769
  447DPPI   C2A 6928  17.942   5.647   9.092  0.1938  0.0815  0.1009
  447DPPI   C3A 6929  17.818   5.655   8.634  0.3473 -0.2726 -0.1743
  447DPPI   C4A 6930  17.732   5.939   8.337 -0.2218  0.3222 -0.1211
  447DPPI   C1B 6931  17.472   5.674   9.613 -0.2301  0.0803  0.0725
  447DPPI   C2B 6932  17.415   5.677   9.188 -0.0388 -0.2687 -0.1290
  447DPPI   C3B 6933  17.345   5.877   8.726  0.1790 -0.2208  0.0523
  447DPPI   C4B 6934  17.219   5.792   8.286 -0.0151 -0.3204 -0.0924
  448DPPI    C1 6935   0.470  18.169  10.073 -0.1241  0.6643  0.0493
  448DPPI    C2 6936   0.122  18.045  10.226 -0.0134  0.2002 -0.0605
  448DPPI    C3 6937   0.311  18.359  10.387 -0.2077  0.1125  0.3517
  448DPPI   PO4 6938   0.460  18.075   9.846  0.3404  0.5836  0.1419
  448DPPI   GL1 6939   0.557  17.974   9.412 -0.2432  0.2739  0.2393
  448DPPI   GL2 6940   0.350  18.157   9.380  0.2428  0.0619  0.0911
  448DPPI   C1A 6941   0.857  17.946   8.991  0.3159 -0.0299  0.0826
  448DPPI   C2A 6942   1.032  18.091   8.563  0.2298  0.1148 -0.0340
  448DPPI   C3A 6943   1.164  18.418   8.321 -0.3837 -0.1136  0.1952
  448DPPI   C4A 6944   1.259  18.740   7.907 -0.1765  0.0466 -0.1637
  448DPPI   C1B 6945   0.053  18.274   8.994  0.2806  0.1462  0.2633
  448DPPI   C2B 6946   0.064  18.598   8.583  0.0515 -0.1179  0.0777
  448DPPI   C3B 6947  -0.121  18.729   8.251  0.3615 -0.0444  0.2165
  448DPPI   C4B 6948  -0.268  18.713   7.819  0.3460  0.5067  0.1320
  449DPPI    C1 6949  15.677   7.340  10.651  0.0286 -0.1456  0.3681
  449DPPI    C2 6950  15.492   6.985  10.669  0.0237 -0.1620  0.0486
  449DPPI    C3 6951  15.532   7.207  11.000 -0.2328 -0.3277  0.1940
  449DPPI   PO4 6952  15.532   7.523  10.542 -0.0357 -0.2124  0.2445
  449DPPI   GL1 6953  15.518   7.705  10.167  0.4111  0.1236  0.1287
  449DPPI   GL2 6954  15.762   7.921  10.154  0.1731  0.0873 -0.1020
  449DPPI   C1A 6955  15.392   7.614   9.773 -0.1417  0.0210  0.1114
  449DPPI   C2A 6956  15.260   7.542   9.355 -0.0008 -0.2345 -0.0324
  449DPPI   C3A 6957  15.153   7.667   8.876  0.0766  0.1282 -0.2698
  449DPPI   C4A 6958  14.867   7.659   8.593 -0.1766  0.2269 -0.2660
  449DPPI   C1B 6959  15.646   8.082   9.670 -0.0308  0.1637 -0.0908
  449DPPI   C2B 6960  15.472   8.049   9.297  0.1938 -0.1816  0.1454
  449DPPI   C3B 6961  15.473   8.171   8.844  0.1604 -0.0434  0.3696
  449DPPI   C4B 6962  15.546   8.277   8.377  0.0828 -0.0947 -0.0036
  450DPPI    C1 6963   9.832  13.161  10.755  0.1676  0.1497  0.0245
  450DPPI    C2 6964   9.754  13.476  10.990 -0.0329  0.0454  0.1002
  450DPPI    C3 6965   9.488  13.179  10.958  0.0422  0.0043 -0.1721
  450DPPI   PO4 6966   9.889  13.224  10.450 -0.0872  0.2393 -0.2712
  450DPPI   GL1 6967   9.832  13.429  10.051  0.0225 -0.2443  0.1146
  450DPPI   GL2 6968   9.969  13.654   9.833 -0.1688  0.2142 -0.2527
  450DPPI   C1A 6969   9.953  13.183   9.711 -0.1894  0.0341  0.1974
  450DPPI   C2A 6970   9.751  13.031   9.232  0.2144  0.0532 -0.1170
  450DPPI   C3A 6971   9.838  13.178   8.814 -0.0118 -0.2373 -0.0435
  450DPPI   C4A 6972   9.962  13.415   8.590  0.0425  0.3148 -0.0074
  450DPPI   C1B 6973  10.382  13.573   9.631 -0.0403 -0.2533  0.0048
  450DPPI   C2B 6974  10.577  13.550   9.282 -0.3177 -0.1098 -0.0152
  450DPPI   C3B 6975  10.840  13.703   8.845  0.0311  0.0843 -0.2844
  450DPPI   C4B 6976  10.727  13.823   8.447 -0.1075 -0.4964  0.0218
  451DPPI    C1 6977   4.017   2.183  10.377  0.1748 -0.0221 -0.0961
  451DPPI    C2 6978   3.932   2.491  10.136 -0.3212 -0.1507 -0.0964
  451DPPI    C3 6979   3.989   2.553  10.527 -0.1945 -0.0309 -0.1333
  451DPPI   PO4 6980   3.673   2.073  10.321 -0.0135 -0.0284 -0.2349
  451DPPI   GL1 6981   3.702   1.973   9.926  0.1241 -0.0054 -0.0723
  451DPPI   GL2 6982   3.488   2.250   9.859  0.0513 -0.0777 -0.0816
  451DPPI   C1A 6983   3.873   1.970   9.506 -0.0477 -0.0525  0.3488
  451DPPI   C2A 6984   4.099   2.072   9.095  0.2016 -0.0331 -0.1596
  451DPPI   C3A 6985   4.234   2.270   8.809  0.2342  0.1046  0.1038
  451DPPI   C4A 6986   4.249   2.490   8.416  0.0867 -0.0995  0.0713
  451DPPI   C1B 6987   3.449   2.210   9.386  0.2540 -0.2310 -0.1381
  451DPPI   C2B 6988   3.583   2.260   9.078  0.1359  0.4079 -0.0227
  451DPPI   C3B 6989   3.743   1.948   8.679  0.4492 -0.1849 -0.1460
  451DPPI   C4B 6990   3.685   1.609   8.448 -0.0929  0.0261 -0.0189
  452DPPI    C1 6991  10.209  10.012  10.797 -0.1857  0.2705  0.4130
  452DPPI    C2 6992  10.433  10.330  10.704  0.0686  0.0662  0.3151
  452DPPI    C3 6993  10.542  10.091  11.005 -0.0194 -0.0336  0.2683
  452DPPI   PO4 6994  10.237   9.891  10.535  0.0155 -0.2309 -0.0044
  452DPPI   GL1 6995  10.276   9.925  10.114  0.1031 -0.5094 -0.1630
  452DPPI   GL2 6996  10.466   9.642  10.126 -0.1896  0.0174  0.0678
  452DPPI   C1A 6997  10.130  10.112   9.752  0.0766 -0.0130  0.0065
  452DPPI   C2A 6998  10.391  10.115   9.391 -0.4635 -0.0648 -0.0469
  452DPPI   C3A 6999  10.291   9.908   9.107  0.0668  0.3331 -0.2448
  452DPPI   C4A 7000  10.297   9.485   9.073  0.0513 -0.3333  0.2998
  452DPPI   C1B 7001  10.560   9.733   9.689 -0.0037 -0.3461 -0.0986
  452DPPI   C2B 7002  10.728   9.547   9.270  0.0141  0.0250 -0.1759
  452DPPI   C3B 7003  10.699   9.256   8.964  0.2683 -0.0947 -0.1092
  452DPPI   C4B 7004  11.030   8.929   8.864 -0.0420  0.1283  0.2038
  453DPPI    C1 7005   9.430  16.429  10.946 -0.1085 -0.0374 -0.2962
  453DPPI    C2 7006   9.636  16.086  10.955  0.0391  0.0557  0.0622
  453DPPI    C3 7007   9.326  16.139  11.202 -0.2392  0.0283 -0.2743
  453DPPI   PO4 7008   9.365  16.518  10.663 -0.4154  0.2385 -0.0037
  453DPPI   GL1 7009   9.497  16.488  10.201 -0.1253 -0.1854  0.2207
  453DPPI   GL2 7010   9.607  16.823  10.064  0.1881  0.1567  0.2153
  453DPPI   C1A 7011   9.630  16.403   9.819 -0.2639  0.0853  0.2544
  453DPPI   C2A 7012   9.648  16.468   9.381  0.1282  0.0105  0.4736
  453DPPI   C3A 7013   9.542  16.452   8.985 -0.1788  0.0611 -0.2284
  453DPPI   C4A 7014   9.673  16.306   8.628 -0.0606  0.1260 -0.0661
  453DPPI   C1B 7015   9.872  16.857   9.666  0.3051 -0.2037 -0.0852
  453DPPI   C2B 7016   9.857  16.843   9.085  0.0387  0.0495  0.0806
  453DPPI   C3B 7017   9.895  16.776   8.631  0.1417  0.1310  0.0678
  453DPPI   C4B 7018  10.133  16.598   8.324  0.1438  0.0442  0.1419
  454DPPI    C1 7019  12.560   0.405  10.582 -0.0093 -0.0739 -0.0497
  454DPPI    C2 7020  12.390   0.411  10.944 -0.0104 -0.0616 -0.0506
  454DPPI    C3 7021  12.787   0.371  10.909  0.0105  0.1285 -0.0415
  454DPPI   PO4 7022  12.440   0.545  10.464 -0.1402  0.0050 -0.0198
  454DPPI   GL1 7023  12.140   0.455  10.060  0.2514  0.0665 -0.0335
  454DPPI   GL2 7024  12.498   0.652  10.012  0.0686  0.0114  0.2830
  454DPPI   C1A 7025  12.015   0.494   9.674 -0.2410  0.1048  0.4424
  454DPPI   C2A 7026  12.013   0.549   9.270  0.0277 -0.0588 -0.2446
  454DPPI   C3A 7027  12.217   0.453   8.841 -0.0812  0.0805  0.1925
  454DPPI   C4A 7028  12.405   0.563   8.423 -0.0476  0.0857 -0.2286
  454DPPI   C1B 7029  12.497   0.594   9.580 -0.1656 -0.1872 -0.0109
  454DPPI   C2B 7030  12.536   0.599   9.221  0.0992  0.1832 -0.0917
  454DPPI   C3B 7031  12.699   0.795   8.836 -0.1867  0.0385  0.2670
  454DPPI   C4B 7032  12.812   0.925   8.321  0.0640 -0.1744 -0.1359
  455DPPI    C1 7033   0.404   3.612  10.802 -0.2015  0.0480  0.1370
  455DPPI    C2 7034   0.427   3.319  11.073  0.0639  0.1287  0.2042
  455DPPI    C3 7035   0.134   3.591  11.096  0.0034  0.0539  0.3275
  455DPPI   PO4 7036   0.436   3.536  10.543  0.0161  0.0132  0.2044
  455DPPI   GL1 7037   0.252   3.664  10.134  0.2574  0.3724  0.2885
  455DPPI   GL2 7038   0.517   3.743  10.128  0.0487  0.1559 -0.0056
  455DPPI   C1A 7039   0.268   3.673   9.631 -0.0455  0.2749  0.3254
  455DPPI   C2A 7040   0.201   3.867   9.254  0.1721  0.5061  0.1509
  455DPPI   C3A 7041   0.011   4.089   8.975  0.1697  0.1372  0.2132
  455DPPI   C4A 7042   0.139   4.287   8.673  0.0561 -0.3263  0.1197
  455DPPI   C1B 7043   0.526   4.053   9.936  0.1747  0.1499  0.1315
  455DPPI   C2B 7044   0.596   4.483   9.862 -0.0165 -0.0688 -0.0785
  455DPPI   C3B 7045   0.334   4.788   9.603  0.2487 -0.0079 -0.2260
  455DPPI   C4B 7046  -0.015   4.953   9.761  0.2171  0.2362 -0.3463
  456DPPI    C1 7047  10.108   2.783  10.846  0.0749 -0.0701  0.0749
  456DPPI    C2 7048   9.931   2.437  10.751  0.0728 -0.0827  0.1243
  456DPPI    C3 7049   9.727   2.719  10.949 -0.0009  0.0455 -0.1295
  456DPPI   PO4 7050  10.212   2.879  10.594  0.1276 -0.1412  0.4672
  456DPPI   GL1 7051  10.136   3.026  10.158  0.0700 -0.0594  0.0807
  456DPPI   GL2 7052  10.270   2.674  10.102 -0.2762  0.1146 -0.4448
  456DPPI   C1A 7053  10.037   3.299   9.857 -0.2269 -0.1682 -0.0625
  456DPPI   C2A 7054  10.219   3.260   9.379 -0.0209 -0.1914  0.4111
  456DPPI   C3A 7055  10.080   3.304   8.943  0.1310  0.3045 -0.0051
  456DPPI   C4A 7056   9.712   3.246   8.587  0.2645 -0.0041  0.0122
  456DPPI   C1B 7057  10.099   2.773   9.700 -0.0489  0.0916  0.1018
  456DPPI   C2B 7058  10.119   2.817   9.184 -0.2705  0.4083 -0.1450
  456DPPI   C3B 7059  10.165   2.780   8.820  0.1262  0.4167  0.0644
  456DPPI   C4B 7060   9.987   2.776   8.406  0.1082  0.2006  0.0346
  457DPPI    C1 7061  10.611   3.252  10.726 -0.1535  0.0643  0.0764
  457DPPI    C2 7062  10.418   3.536  10.931 -0.1710  0.0478  0.0828
  457DPPI    C3 7063  10.447   3.166  11.081 -0.0663  0.0702  0.1187
  457DPPI   PO4 7064  10.727   3.486  10.501  0.0735 -0.2556  0.2441
  457DPPI   GL1 7065  10.571   3.712  10.122  0.2046  0.0426  0.2546
  457DPPI   GL2 7066  10.489   3.478  10.061  0.1531  0.0189 -0.2756
  457DPPI   C1A 7067  10.574   4.002   9.732 -0.0027  0.2042  0.2915
  457DPPI   C2A 7068  10.589   4.043   9.302  0.1124  0.0356 -0.1736
  457DPPI   C3A 7069  10.512   4.095   8.858 -0.0529  0.0187  0.2779
  457DPPI   C4A 7070  10.375   4.105   8.424 -0.1170  0.1843  0.0732
  457DPPI   C1B 7071  10.685   3.539   9.608 -0.0337 -0.0392 -0.1646
  457DPPI   C2B 7072  10.568   3.553   9.160  0.0626 -0.0018  0.2652
  457DPPI   C3B 7073  10.471   3.612   8.772 -0.1610  0.1837 -0.0345
  457DPPI   C4B 7074  10.211   3.580   8.368 -0.1804 -0.1371 -0.2252
  458DPPI    C1 7075   9.172   7.107  10.724 -0.0555  0.1302  0.1114
  458DPPI    C2 7076   9.500   6.929  10.870 -0.0630 -0.0226 -0.0548
  458DPPI    C3 7077   9.304   7.199  11.091  0.0961 -0.0310  0.0988
  458DPPI   PO4 7078   9.229   7.193  10.523 -0.2454 -0.2776 -0.1410
  458DPPI   GL1 7079   9.150   7.153  10.106 -0.2943 -0.0120  0.0283
  458DPPI   GL2 7080   9.291   6.858   9.949  0.2409  0.0770  0.1595
  458DPPI   C1A 7081   9.227   7.404   9.809 -0.3466 -0.3345  0.1247
  458DPPI   C2A 7082   9.486   7.572   9.490  0.2122  0.3396 -0.1435
  458DPPI   C3A 7083   9.709   7.782   9.257  0.2572 -0.0849 -0.0264
  458DPPI   C4A 7084   9.940   7.883   8.911  0.1351  0.0840 -0.0725
  458DPPI   C1B 7085   9.357   6.497   9.633  0.2298 -0.0831 -0.1879
  458DPPI   C2B 7086   9.226   6.442   9.190  0.1597 -0.1128  0.0216
  458DPPI   C3B 7087   9.150   6.221   8.767  0.3217 -0.0301 -0.0987
  458DPPI   C4B 7088   9.339   6.203   8.465 -0.2091  0.1421 -0.2503
  459DPPI    C1 7089   7.487  17.659  10.675 -0.1008 -0.2274  0.0787
  459DPPI    C2 7090   7.644  17.472  10.991  0.0160 -0.1668  0.0572
  459DPPI    C3 7091   7.394  17.780  11.044 -0.1980 -0.3440  0.0931
  459DPPI   PO4 7092   7.585  17.530  10.461 -0.0216 -0.1867 -0.0876
  459DPPI   GL1 7093   7.583  17.658  10.164 -0.1555  0.0670  0.0028
  459DPPI   GL2 7094   7.427  17.950  10.081 -0.0479 -0.0125  0.0866
  459DPPI   C1A 7095   7.749  17.452   9.831  0.0363  0.0597  0.1135
  459DPPI   C2A 7096   7.918  17.314   9.385  0.2900 -0.1044  0.0725
  459DPPI   C3A 7097   7.969  17.387   8.938 -0.2699 -0.1871 -0.0239
  459DPPI   C4A 7098   8.196  17.605   8.687  0.2561 -0.2350  0.0337
  459DPPI   C1B 7099   7.409  17.725   9.641 -0.1099  0.0195  0.0915
  459DPPI   C2B 7100   7.348  17.717   9.224  0.1271 -0.1981  0.1331
  459DPPI   C3B 7101   7.416  17.588   8.763  0.1337 -0.0119  0.1779
  459DPPI   C4B 7102   7.655  17.728   8.465  0.2070  0.1628 -0.1141
  460DPPI    C1 7103  16.634   7.801  10.958  0.2879  0.3786 -0.0714
  460DPPI    C2 7104  16.638   7.652  11.330  0.1827 -0.0560 -0.2382
  460DPPI    C3 7105  16.412   7.971  11.245 -0.1461 -0.2279 -0.0280
  460DPPI   PO4 7106  16.796   7.694  10.811  0.1070 -0.1264 -0.0290
  460DPPI   GL1 7107  16.913   7.613  10.301 -0.0169 -0.4635  0.2712
  460DPPI   GL2 7108  17.230   7.536  10.301 -0.0777  0.2878 -0.1371
  460DPPI   C1A 7109  16.994   7.663   9.918  0.3633 -0.0826  0.0854
  460DPPI   C2A 7110  17.246   7.699   9.533 -0.1761  0.1955 -0.1191
  460DPPI   C3A 7111  17.010   7.687   9.070  0.0778 -0.1407  0.2217
  460DPPI   C4A 7112  16.749   7.620   8.759  0.1286 -0.0885  0.0188
  460DPPI   C1B 7113  17.404   7.356   9.950 -0.0466 -0.0425 -0.0660
  460DPPI   C2B 7114  17.512   7.224   9.511  0.3540  0.0521 -0.0282
  460DPPI   C3B 7115  17.625   7.403   9.135 -0.1270  0.0425  0.0993
  460DPPI   C4B 7116  17.411   7.456   8.892  0.2694  0.1245 -0.2329
  461DPPI    C1 7117   9.649  15.381  10.661 -0.1434 -0.1577 -0.0769
  461DPPI    C2 7118   9.834  15.674  10.861 -0.1692 -0.1083 -0.1253
  461DPPI    C3 7119   9.803  15.310  11.023 -0.2055 -0.0637 -0.0315
  461DPPI   PO4 7120   9.394  15.587  10.520 -0.1302 -0.1989 -0.0043
  461DPPI   GL1 7121   9.281  15.704  10.222  0.0689 -0.1016 -0.0143
  461DPPI   GL2 7122   9.032  15.938  10.273 -0.2208 -0.2050  0.1223
  461DPPI   C1A 7123   9.484  15.924   9.973  0.4132 -0.1537  0.3448
  461DPPI   C2A 7124   9.495  16.030   9.491 -0.2499  0.0678 -0.1113
  461DPPI   C3A 7125   9.452  15.940   9.067  0.1174  0.0704  0.1080
  461DPPI   C4A 7126   9.465  15.794   8.651  0.0111 -0.2949 -0.0233
  461DPPI   C1B 7127   9.050  15.833   9.840 -0.0195 -0.0315 -0.1313
  461DPPI   C2B 7128   9.113  15.800   9.402 -0.3245 -0.0615 -0.0482
  461DPPI   C3B 7129   9.008  15.743   8.893 -0.0633  0.0749  0.0255
  461DPPI   C4B 7130   8.948  15.757   8.424  0.0035  0.0777  0.4110
  462DPPI    C1 7131   9.962  12.663  10.543 -0.2130 -0.1647 -0.0026
  462DPPI    C2 7132   9.966  12.386  10.832 -0.2757 -0.1287  0.0333
  462DPPI    C3 7133  10.069  12.763  10.916 -0.3690 -0.1014  0.0260
  462DPPI   PO4 7134  10.070  12.451  10.265  0.2967 -0.5151 -0.2932
  462DPPI   GL1 7135  10.075  12.271   9.947 -0.3159  0.0806 -0.1753
  462DPPI   GL2 7136   9.714  12.132   9.906 -0.2872 -0.1548 -0.2372
  462DPPI   C1A 7137  10.245  12.312   9.562 -0.2338 -0.1720  0.4361
  462DPPI   C2A 7138  10.324  12.383   9.151  0.2755  0.0704  0.0418
  462DPPI   C3A 7139  10.246  12.318   8.787  0.2179 -0.1989 -0.2126
  462DPPI   C4A 7140  10.181  12.482   8.408 -0.1513 -0.0822  0.2409
  462DPPI   C1B 7141   9.766  12.280   9.445  0.0926  0.0948  0.1181
  462DPPI   C2B 7142   9.838  12.600   9.104 -0.0223  0.1194 -0.1686
  462DPPI   C3B 7143  10.178  12.813   8.876  0.0914  0.2019  0.0114
  462DPPI   C4B 7144  10.207  12.958   8.550 -0.0297 -0.0275 -0.2717
  463DPPI    C1 7145   5.299  10.147  10.738 -0.2289 -0.1571  0.0073
  463DPPI    C2 7146   5.306  10.432  11.019 -0.1108 -0.0456 -0.1068
  463DPPI    C3 7147   5.065  10.115  11.061  0.0823 -0.1521  0.2385
  463DPPI   PO4 7148   5.262  10.217  10.569  0.0477 -0.1472 -0.0267
  463DPPI   GL1 7149   5.358  10.174  10.214 -0.0522  0.2226  0.2544
  463DPPI   GL2 7150   5.560   9.876  10.129 -0.0993  0.0448  0.2885
  463DPPI   C1A 7151   5.147  10.342   9.870 -0.4259  0.0065  0.1499
  463DPPI   C2A 7152   5.062  10.425   9.505  0.0201  0.2952  0.1358
  463DPPI   C3A 7153   5.122  10.395   9.073  0.0786 -0.1432 -0.1204
  463DPPI   C4A 7154   5.015  10.292   8.560  0.2987 -0.0258  0.0249
  463DPPI   C1B 7155   5.560  10.045   9.741  0.1108 -0.0006 -0.3564
  463DPPI   C2B 7156   5.585  10.075   9.271 -0.1930  0.2466  0.0908
  463DPPI   C3B 7157   5.437  10.094   8.807 -0.0021  0.3064  0.0541
  463DPPI   C4B 7158   5.453   9.980   8.324  0.3313 -0.1799 -0.0250
  464DPPI    C1 7159  15.312  18.039  10.620  0.0641 -0.0922 -0.0658
  464DPPI    C2 7160  15.695  17.922  10.605  0.0957 -0.0226  0.1546
  464DPPI    C3 7161  15.492  17.897  10.948  0.0139  0.2886  0.1327
  464DPPI   PO4 7162  15.376  18.281  10.389 -0.2497  0.0809 -0.1680
  464DPPI   GL1 7163  15.267  18.417   9.932 -0.2634 -0.2041 -0.1747
  464DPPI   GL2 7164  15.047  18.295   9.699  0.2741 -0.0413 -0.5006
  464DPPI   C1A 7165  15.391  18.644   9.534 -0.2555  0.1522 -0.1061
  464DPPI   C2A 7166  15.299  18.771   9.154 -0.1156  0.1223  0.1160
  464DPPI   C3A 7167  15.131  18.751   8.885  0.1152  0.1577 -0.1512
  464DPPI   C4A 7168  15.173  18.648   8.392 -0.2667  0.3286 -0.0341
  464DPPI   C1B 7169  14.803  18.205   9.358  0.0233 -0.1585  0.2616
  464DPPI   C2B 7170  14.863  18.020   8.992 -0.0861  0.1281  0.2027
  464DPPI   C3B 7171  14.727  17.915   8.606 -0.3932  0.0187  0.2359
  464DPPI   C4B 7172  14.687  17.866   8.156  0.1129 -0.0326  0.2579
  465DPPI    C1 7173   6.897  13.432  10.395  0.1513  0.1842  0.2820
  465DPPI    C2 7174   6.594  13.331  10.636 -0.1118  0.0851 -0.0813
  465DPPI    C3 7175   6.843  13.050  10.499 -0.1171  0.1041 -0.1298
  465DPPI   PO4 7176   6.808  13.534  10.191 -0.1181  0.1362  0.1819
  465DPPI   GL1 7177   6.680  13.450   9.791  0.0097 -0.1621  0.4056
  465DPPI   GL2 7178   6.376  13.501   9.736 -0.2767  0.0133  0.1803
  465DPPI   C1A 7179   6.809  13.291   9.501  0.1355 -0.1202  0.0858
  465DPPI   C2A 7180   6.835  13.145   9.042  0.3836  0.1625 -0.1388
  465DPPI   C3A 7181   6.812  13.238   8.575 -0.0309  0.0659  0.2297
  465DPPI   C4A 7182   6.542  13.350   8.182 -0.0122 -0.1304  0.0919
  465DPPI   C1B 7183   6.398  13.494   9.346  0.1287 -0.1130 -0.3861
  465DPPI   C2B 7184   6.444  13.464   8.961 -0.1291  0.1911  0.0570
  465DPPI   C3B 7185   6.360  13.709   8.586  0.1531  0.0488  0.0287
  465DPPI   C4B 7186   6.079  13.876   8.218  0.0412  0.0302  0.0165
  466DPPI    C1 7187   2.821   9.074  10.280  0.0275  0.3524 -0.0955
  466DPPI    C2 7188   2.632   9.305  10.546 -0.1070  0.2493 -0.1005
  466DPPI    C3 7189   2.425   9.044  10.325  0.0052  0.3250 -0.2981
  466DPPI   PO4 7190   3.113   9.172  10.288 -0.0698  0.2942 -0.1656
  466DPPI   GL1 7191   3.399   9.077  10.025  0.0164 -0.0900 -0.1553
  466DPPI   GL2 7192   3.685   9.129  10.013 -0.1169 -0.1051  0.3567
  466DPPI   C1A 7193   3.358   8.833   9.626  0.0484 -0.1106  0.1484
  466DPPI   C2A 7194   3.517   8.732   9.252  0.0376 -0.1623 -0.0264
  466DPPI   C3A 7195   3.508   8.791   8.818  0.2129  0.1817 -0.2267
  466DPPI   C4A 7196   3.442   8.740   8.453 -0.0273 -0.0957 -0.0669
  466DPPI   C1B 7197   3.809   9.048   9.528  0.0529  0.1532 -0.0122
  466DPPI   C2B 7198   3.788   9.219   9.168 -0.0372  0.2024  0.4678
  466DPPI   C3B 7199   3.844   9.153   8.734  0.3175 -0.0390  0.1427
  466DPPI   C4B 7200   3.856   8.994   8.336  0.0599 -0.1096 -0.0992
  467DPPI    C1 7201  15.176  14.545  10.765 -0.1951 -0.0687 -0.0598
  467DPPI    C2 7202  15.367  14.468  11.108 -0.3004 -0.1256 -0.0133
  467DPPI    C3 7203  15.100  14.765  11.091 -0.0787  0.0702 -0.1254
  467DPPI   PO4 7204  15.443  14.511  10.620 -0.0628  0.0744  0.4109
  467DPPI   GL1 7205  15.506  14.812  10.284 -0.2495 -0.0490  0.3179
  467DPPI   GL2 7206  15.592  14.579  10.112  0.0236 -0.0309  0.0030
  467DPPI   C1A 7207  15.686  15.036   9.995  0.0089 -0.0729 -0.2393
  467DPPI   C2A 7208  15.692  14.988   9.619 -0.0006 -0.0227  0.1330
  467DPPI   C3A 7209  15.637  15.137   9.274 -0.2870  0.0259 -0.1402
  467DPPI   C4A 7210  15.600  15.305   8.891 -0.0657 -0.1878 -0.0581
  467DPPI   C1B 7211  15.803  14.495   9.762 -0.0993 -0.3122 -0.1473
  467DPPI   C2B 7212  15.540  14.619   9.389  0.1048  0.0343  0.4518
  467DPPI   C3B 7213  15.325  14.498   9.029  0.1173  0.0411  0.1264
  467DPPI   C4B 7214  15.241  14.033   8.718  0.0079 -0.1766 -0.0820
  468DPPI    C1 7215  14.571  11.123  10.726 -0.3316  0.1374  0.0218
  468DPPI    C2 7216  14.713  11.408  10.485  0.0878 -0.0634  0.0216
  468DPPI    C3 7217  14.877  11.351  10.845 -0.3156  0.0139  0.2236
  468DPPI   PO4 7218  14.369  10.981  10.499 -0.0068 -0.3659 -0.0728
  468DPPI   GL1 7219  14.235  11.135  10.128  0.0842  0.0229  0.1697
  468DPPI   GL2 7220  14.148  10.840  10.051 -0.0417 -0.0084  0.1072
  468DPPI   C1A 7221  14.334  11.394   9.755  0.1884  0.0640 -0.2597
  468DPPI   C2A 7222  14.234  11.613   9.362 -0.0032 -0.0308  0.0825
  468DPPI   C3A 7223  14.422  11.827   9.014  0.2776  0.2477  0.0206
  468DPPI   C4A 7224  14.296  12.142   8.834 -0.1450 -0.2815 -0.1667
  468DPPI   C1B 7225  13.789  10.737   9.762  0.2273  0.0556 -0.1371
  468DPPI   C2B 7226  13.552  10.886   9.418 -0.0803  0.3014  0.0029
  468DPPI   C3B 7227  13.273  10.959   9.136  0.3291  0.0166  0.0469
  468DPPI   C4B 7228  13.014  10.702   8.701  0.0372  0.0246  0.0498
  469DPPI    C1 7229  11.110  13.493  10.654  0.0972 -0.1476  0.0293
  469DPPI    C2 7230  11.409  13.738  10.757  0.1048 -0.1579  0.0317
  469DPPI    C3 7231  11.040  13.805  10.895  0.1206 -0.1886  0.0892
  469DPPI   PO4 7232  11.230  13.440  10.376  0.5406  0.0678 -0.2925
  469DPPI   GL1 7233  11.634  13.423  10.411 -0.2415 -0.4234 -0.1211
  469DPPI   GL2 7234  11.679  13.251  10.142 -0.2790  0.3668  0.0405
  469DPPI   C1A 7235  11.829  13.695  10.012 -0.2936 -0.0030  0.0773
  469DPPI   C2A 7236  11.953  13.569   9.566 -0.3872  0.2859  0.2189
  469DPPI   C3A 7237  11.939  13.386   9.208 -0.4218 -0.0208  0.2271
  469DPPI   C4A 7238  12.049  13.057   8.867 -0.1911  0.0109 -0.0961
  469DPPI   C1B 7239  12.012  13.042   9.839 -0.0955  0.3003  0.2508
  469DPPI   C2B 7240  12.148  12.850   9.383  0.0219 -0.1969  0.1522
  469DPPI   C3B 7241  12.096  12.565   9.010 -0.2201  0.0185  0.0201
  469DPPI   C4B 7242  11.936  12.386   8.659 -0.1601  0.3652 -0.3032
  470DPPI    C1 7243  11.601   6.787  10.998  0.1134  0.2433  0.2755
  470DPPI    C2 7244  11.276   6.730  11.224  0.0099  0.0934  0.0921
  470DPPI    C3 7245  11.464   7.083  11.230 -0.3084  0.2683  0.0045
  470DPPI   PO4 7246  11.505   6.715  10.734  0.2283  0.0567  0.0251
  470DPPI   GL1 7247  11.689   6.819  10.282 -0.1131 -0.1102 -0.0108
  470DPPI   GL2 7248  11.443   6.866  10.014 -0.1581 -0.1174  0.1211
  470DPPI   C1A 7249  11.880   6.742   9.945 -0.0687  0.1720  0.1487
  470DPPI   C2A 7250  11.969   6.837   9.432 -0.1774  0.0510  0.0990
  470DPPI   C3A 7251  12.137   6.869   9.048  0.0785  0.2374 -0.0771
  470DPPI   C4A 7252  12.234   6.932   8.633 -0.0488 -0.0632 -0.3082
  470DPPI   C1B 7253  11.403   6.847   9.601 -0.1220 -0.0876 -0.0629
  470DPPI   C2B 7254  11.101   6.875   9.276  0.1838  0.2773 -0.3231
  470DPPI   C3B 7255  10.858   6.797   8.987 -0.0378 -0.1989 -0.2031
  470DPPI   C4B 7256  11.206   6.726   8.661  0.1434  0.2893  0.0643
  471DPPI    C1 7257   9.907  16.410  10.657  0.2600 -0.1651 -0.1526
  471DPPI    C2 7258  10.059  16.416  11.027  0.0374  0.0530 -0.0624
  471DPPI    C3 7259  10.133  16.106  10.786  0.4129  0.0379  0.0667
  471DPPI   PO4 7260   9.932  16.619  10.443 -0.3035  0.1271  0.1948
  471DPPI   GL1 7261  10.102  16.537  10.070  0.1050  0.1810  0.0874
  471DPPI   GL2 7262  10.286  16.365   9.967  0.0994 -0.0920  0.0433
  471DPPI   C1A 7263   9.949  16.016   9.762 -0.0616 -0.2291  0.0138
  471DPPI   C2A 7264  10.020  15.955   9.335  0.2622  0.2642 -0.0311
  471DPPI   C3A 7265   9.991  15.843   8.934  0.0177  0.2695  0.0097
  471DPPI   C4A 7266   9.970  15.731   8.457  0.1411 -0.1900 -0.4281
  471DPPI   C1B 7267  10.167  16.458   9.537 -0.1894 -0.0140 -0.1080
  471DPPI   C2B 7268  10.119  16.436   9.064 -0.0158 -0.1342 -0.0849
  471DPPI   C3B 7269  10.169  16.180   8.604  0.3016 -0.3979  0.0380
  471DPPI   C4B 7270  10.317  15.969   8.190  0.1618  0.3112 -0.1781
  472DPPI    C1 7271   1.737  18.112  10.480 -0.0422 -0.0204 -0.2137
  472DPPI    C2 7272   2.044  17.931  10.661 -0.0379  0.0901 -0.1094
  472DPPI    C3 7273   1.673  17.792  10.711  0.0053 -0.1088 -0.3218
  472DPPI   PO4 7274   1.894  18.267  10.291 -0.1451 -0.1746 -0.0786
  472DPPI   GL1 7275   2.040  18.330   9.889  0.0125 -0.0012 -0.2112
  472DPPI   GL2 7276   1.966  18.662   9.722  0.0397  0.1607  0.0779
  472DPPI   C1A 7277   1.894  18.038   9.602 -0.0504 -0.0427  0.2833
  472DPPI   C2A 7278   1.770  17.810   9.251  0.0990 -0.0884  0.1044
  472DPPI   C3A 7279   1.651  17.698   8.906 -0.1014  0.0123 -0.3637
  472DPPI   C4A 7280   1.344  17.639   8.624 -0.1059  0.3121 -0.3571
  472DPPI   C1B 7281   2.204  18.726   9.365  0.0073 -0.1184  0.1016
  472DPPI   C2B 7282   2.372  18.671   9.027  0.1545 -0.2612 -0.3411
  472DPPI   C3B 7283   2.458  18.755   8.630  0.0983 -0.2422 -0.0519
  472DPPI   C4B 7284   2.498  18.715   8.182  0.0713 -0.1659 -0.0536
  473PYPI    C1 7285  10.949   6.475  10.949 -0.1665 -0.2641 -0.1356
  473PYPI    C2 7286  10.583   6.379  11.079 -0.2123 -0.0922 -0.1349
  473PYPI    C3 7287  10.893   6.370  11.331 -0.2205 -0.2096 -0.1283
  473PYPI   PO4 7288  10.977   6.284  10.755  0.3195 -0.0535 -0.0458
  473PYPI   GL1 7289  11.229   6.316  10.342  0.2526 -0.0492  0.0854
  473PYPI   GL2 7290  11.422   6.415  10.255 -0.1486 -0.1879  0.2021
  473PYPI   C1A 7291  11.032   6.012  10.068  0.0811  0.2722  0.3300
  473PYPI   C2A 7292  10.905   5.620   9.920 -0.0293  0.0844  0.3518
  473PYPI   D3A 7293  10.572   5.452   9.673 -0.0193 -0.2523 -0.0090
  473PYPI   C4A 7294  10.178   5.708   9.747  0.2516  0.0899  0.2165
  473PYPI   C1B 7295  11.527   6.341   9.869  0.0333 -0.4708  0.1843
  473PYPI   C2B 7296  11.755   6.327   9.526 -0.3616  0.0804  0.0650
  473PYPI   C3B 7297  11.900   6.371   9.163 -0.1145 -0.1297 -0.2289
  473PYPI   C4B 7298  11.710   6.480   8.762  0.0658 -0.2277  0.1813
  474PYPI    C1 7299  10.452  10.859  10.616 -0.0493 -0.1171 -0.0189
  474PYPI    C2 7300  10.164  11.127  10.688  0.0101 -0.0648  0.0244
  474PYPI    C3 7301  10.204  10.808  10.926  0.1493  0.0610  0.1723
  474PYPI   PO4 7302  10.671  10.986  10.438 -0.3381  0.1659 -0.0637
  474PYPI   GL1 7303  10.890  10.808  10.082  0.0921 -0.1655  0.0810
  474PYPI   GL2 7304  10.764  10.969   9.848  0.1283  0.2419 -0.0072
  474PYPI   C1A 7305  11.165  10.733   9.730 -0.3242 -0.0040 -0.0980
  474PYPI   C2A 7306  11.281  10.735   9.232  0.1115  0.0101  0.2788
  474PYPI   D3A 7307  11.113  10.655   8.719 -0.0072 -0.0345  0.0149
  474PYPI   C4A 7308  11.138  10.146   8.607 -0.0836  0.4280  0.1500
  474PYPI   C1B 7309  10.742  10.993   9.469  0.2239 -0.1748  0.2329
  474PYPI   C2B 7310  10.886  11.031   9.083  0.1409  0.0025 -0.2652
  474PYPI   C3B 7311  11.023  11.270   8.709  0.0612  0.0550 -0.0430
  474PYPI   C4B 7312  10.979  11.069   8.361 -0.0470 -0.0470  0.1285
  475PYPI    C1 7313  12.660  17.182  10.724 -0.0105 -0.1351  0.0748
  475PYPI    C2 7314  12.772  16.802  10.781 -0.0338 -0.1336  0.1317
  475PYPI    C3 7315  12.685  17.034  11.095 -0.1975 -0.1352  0.0886
  475PYPI   PO4 7316  12.565  17.199  10.441  0.2950 -0.0933 -0.2927
  475PYPI   GL1 7317  12.306  17.286  10.074 -0.1935  0.0782  0.0133
  475PYPI   GL2 7318  12.654  17.395  10.001  0.1677  0.0471  0.3383
  475PYPI   C1A 7319  12.252  17.153   9.645  0.2713  0.3365 -0.4912
  475PYPI   C2A 7320  12.414  17.073   9.263  0.0434  0.2654 -0.3052
  475PYPI   D3A 7321  12.700  17.034   9.028 -0.0792 -0.1025 -0.2636
  475PYPI   C4A 7322  12.683  16.972   8.494  0.2274  0.2072 -0.3654
  475PYPI   C1B 7323  12.712  17.271   9.659 -0.1007 -0.1047 -0.2696
  475PYPI   C2B 7324  12.796  17.415   9.340 -0.2808 -0.0244  0.0276
  475PYPI   C3B 7325  12.873  17.528   8.995  0.2475  0.0065 -0.1463
  475PYPI   C4B 7326  12.689  17.434   8.667 -0.0655  0.0795  0.0023
  476PYPI    C1 7327  11.892  15.714  10.746  0.1528  0.2535 -0.1163
  476PYPI    C2 7328  11.685  15.726  11.088 -0.1090  0.0874 -0.2652
  476PYPI    C3 7329  12.000  15.482  11.054 -0.0718  0.1168 -0.1380
  476PYPI   PO4 7330  11.681  15.836  10.571  0.0787  0.1328  0.2779
  476PYPI   GL1 7331  11.773  15.904  10.107  0.3322 -0.3375 -0.1170
  476PYPI   GL2 7332  11.425  15.961  10.020  0.3201 -0.3495 -0.2643
  476PYPI   C1A 7333  11.778  15.949   9.622  0.1008 -0.0940 -0.0776
  476PYPI   C2A 7334  11.557  15.843   9.304  0.1043  0.0801  0.0109
  476PYPI   D3A 7335  11.492  15.828   8.769  0.4365 -0.1060 -0.2021
  476PYPI   C4A 7336  11.477  15.617   8.455 -0.1054 -0.3515  0.0957
  476PYPI   C1B 7337  11.233  16.177   9.621 -0.0608 -0.1542 -0.1263
  476PYPI   C2B 7338  11.084  16.082   9.206  0.1143  0.2425  0.1987
  476PYPI   C3B 7339  10.977  15.908   8.791 -0.0631 -0.1257  0.1136
  476PYPI   C4B 7340  10.978  15.795   8.353 -0.0771 -0.3440 -0.1642
  477PYPI    C1 7341   4.452  11.291  10.319  0.0017 -0.0044 -0.2278
  477PYPI    C2 7342   4.727  11.544  10.177  0.1399 -0.1236 -0.1747
  477PYPI    C3 7343   4.736  11.434  10.562 -0.0391 -0.0545 -0.1502
  477PYPI   PO4 7344   4.391  11.098  10.136  0.2228  0.2084  0.1621
  477PYPI   GL1 7345   4.527  11.228   9.729  0.3482  0.0532  0.1876
  477PYPI   GL2 7346   4.717  11.411   9.698 -0.0641 -0.1560 -0.1859
  477PYPI   C1A 7347   4.367  11.101   9.353  0.1995  0.1272 -0.0618
  477PYPI   C2A 7348   4.149  10.992   9.075 -0.3222  0.1488 -0.1867
  477PYPI   D3A 7349   4.009  11.142   8.648  0.2293  0.3668 -0.0522
  477PYPI   C4A 7350   4.142  11.186   8.315 -0.1773 -0.0819  0.1974
  477PYPI   C1B 7351   4.683  11.485   9.216  0.1237 -0.1848 -0.2654
  477PYPI   C2B 7352   4.456  11.364   8.926 -0.1073 -0.2106 -0.1162
  477PYPI   C3B 7353   4.548  11.498   8.551  0.1982  0.1021 -0.0441
  477PYPI   C4B 7354   4.671  11.730   8.283 -0.1784 -0.0876  0.2782
  478PYPI    C1 7355  11.740  17.054  10.425  0.1387 -0.0247 -0.3794
  478PYPI    C2 7356  12.100  17.154  10.569 -0.0057  0.0742 -0.0783
  478PYPI    C3 7357  11.794  17.096  10.819 -0.1847 -0.0761 -0.3273
  478PYPI   PO4 7358  11.722  16.920  10.219  0.2547 -0.0756 -0.0467
  478PYPI   GL1 7359  11.745  17.019   9.724  0.0370  0.4125  0.1431
  478PYPI   GL2 7360  11.812  17.254   9.837  0.3034 -0.0614  0.0868
  478PYPI   C1A 7361  11.794  16.927   9.363  0.0041  0.3130  0.1255
  478PYPI   C2A 7362  11.689  16.958   8.910 -0.1877  0.0289 -0.0812
  478PYPI   D3A 7363  11.469  16.785   8.588  0.1927 -0.1082  0.1499
  478PYPI   C4A 7364  11.630  16.428   8.443  0.1288 -0.0838  0.2872
  478PYPI   C1B 7365  11.867  17.440   9.427 -0.1750 -0.1528 -0.1506
  478PYPI   C2B 7366  12.038  17.297   9.042  0.1271  0.0440 -0.1200
  478PYPI   C3B 7367  12.273  17.189   8.696 -0.0824 -0.1170 -0.0623
  478PYPI   C4B 7368  12.267  17.156   8.268 -0.1082  0.2168 -0.0063
  479PYPI    C1 7369   8.579  17.049  10.943  0.0139  0.0467  0.0572
  479PYPI    C2 7370   8.694  17.087  11.325  0.3542 -0.0814 -0.0291
  479PYPI    C3 7371   8.325  16.956  11.239  0.1882  0.1871  0.2540
  479PYPI   PO4 7372   8.566  17.256  10.787 -0.0626  0.1835  0.2228
  479PYPI   GL1 7373   8.807  17.267  10.402 -0.0021  0.1367 -0.0987
  479PYPI   GL2 7374   8.697  17.114  10.138  0.1673 -0.2032  0.2184
  479PYPI   C1A 7375   9.034  17.565  10.140  0.0867 -0.1658  0.1684
  479PYPI   C2A 7376   9.281  17.888   9.900  0.1688  0.1914 -0.0436
  479PYPI   D3A 7377   9.250  18.170   9.689  0.0435  0.2978 -0.4495
  479PYPI   C4A 7378   9.263  18.392   9.376  0.2374  0.0285  0.2390
  479PYPI   C1B 7379   8.634  17.209   9.736 -0.0138 -0.3408 -0.0786
  479PYPI   C2B 7380   8.724  17.315   9.363 -0.1132  0.0137 -0.1549
  479PYPI   C3B 7381   9.020  17.244   8.960  0.0736  0.0584  0.0053
  479PYPI   C4B 7382   9.134  17.172   8.442  0.2992 -0.2995 -0.0916
  480PYPI    C1 7383   5.323   0.276  10.818 -0.0539 -0.0009  0.0215
  480PYPI    C2 7384   4.974   0.425  10.947 -0.0449 -0.0868  0.1473
  480PYPI    C3 7385   5.314   0.627  11.010 -0.0757  0.0161 -0.0104
  480PYPI   PO4 7386   5.219   0.042  10.609  0.1128 -0.0329  0.2174
  480PYPI   GL1 7387   5.253   0.121  10.148  0.2634  0.0235  0.1708
  480PYPI   GL2 7388   4.967   0.095  10.108 -0.2828 -0.3109 -0.2099
  480PYPI   C1A 7389   5.113   0.099   9.589  0.3660 -0.0329 -0.0820
  480PYPI   C2A 7390   4.757  -0.035   9.304  0.2560 -0.0796  0.1273
  480PYPI   D3A 7391   4.444   0.015   9.011  0.4004  0.0632 -0.0889
  480PYPI   C4A 7392   4.192   0.295   8.817 -0.0928 -0.0818 -0.3151
  480PYPI   C1B 7393   4.702   0.039   9.798 -0.3120 -0.0633 -0.0875
  480PYPI   C2B 7394   4.183   0.160   9.562  0.1814  0.0350 -0.0006
  480PYPI   C3B 7395   3.936   0.152   9.225 -0.1205 -0.0938 -0.0137
  480PYPI   C4B 7396   3.709   0.054   8.947 -0.1213 -0.1917 -0.2080
  481PYPI    C1 7397  10.550   5.843  10.925  0.0869 -0.0009 -0.0014
  481PYPI    C2 7398  10.672   5.509  10.743 -0.1640 -0.0599 -0.0644
  481PYPI    C3 7399  10.559   5.498  11.126 -0.1649 -0.0455 -0.0643
  481PYPI   PO4 7400  10.551   6.005  10.661  0.3393  0.0211 -0.2070
  481PYPI   GL1 7401  10.304   6.223  10.212 -0.0264  0.0557 -0.2023
  481PYPI   GL2 7402  10.717   6.297  10.305 -0.0864 -0.1755  0.0844
  481PYPI   C1A 7403  10.087   6.219   9.880  0.0116  0.1108 -0.0012
  481PYPI   C2A 7404  10.120   6.081   9.421 -0.0871  0.0274 -0.1874
  481PYPI   D3A 7405  10.338   5.727   9.280 -0.0911 -0.3298 -0.0678
  481PYPI   C4A 7406  10.245   5.578   8.874 -0.2369  0.0043  0.1821
  481PYPI   C1B 7407  10.610   6.197   9.840  0.2646  0.2870  0.0022
  481PYPI   C2B 7408  10.699   5.917   9.565 -0.1654  0.0820 -0.3659
  481PYPI   C3B 7409  10.860   5.711   9.302 -0.2316 -0.1059  0.2777
  481PYPI   C4B 7410  11.169   5.760   8.963 -0.1877 -0.1988 -0.0673
  482PYPI    C1 7411   3.152   8.361  10.737 -0.0601  0.2733 -0.2683
  482PYPI    C2 7412   3.128   8.534  11.097 -0.1419  0.1846 -0.2305
  482PYPI    C3 7413   2.812   8.341  10.946 -0.0020 -0.0724 -0.2007
  482PYPI   PO4 7414   3.411   8.217  10.647  0.1929  0.0791  0.0897
  482PYPI   GL1 7415   3.352   8.190  10.135 -0.0838  0.1220  0.3019
  482PYPI   GL2 7416   3.186   7.870   9.924  0.0917  0.0947  0.1312
  482PYPI   C1A 7417   3.494   8.304   9.758  0.4683 -0.0605  0.4440
  482PYPI   C2A 7418   3.482   8.229   9.353  0.1375  0.1877 -0.0792
  482PYPI   D3A 7419   3.802   8.365   9.111 -0.1216  0.0093 -0.0139
  482PYPI   C4A 7420   4.272   8.379   9.016 -0.0713 -0.1858 -0.1859
  482PYPI   C1B 7421   3.084   7.777   9.547 -0.1382  0.0628 -0.0202
  482PYPI   C2B 7422   3.293   7.831   9.108 -0.2367 -0.1385  0.0602
  482PYPI   C3B 7423   3.432   8.111   8.856 -0.3373  0.0478  0.0296
  482PYPI   C4B 7424   3.674   8.256   8.510 -0.4151  0.1016  0.0341
  483PYPI    C1 7425   2.024   0.645  10.210 -0.2312 -0.1358  0.0193
  483PYPI    C2 7426   1.674   0.822  10.130 -0.2142 -0.1096  0.0028
  483PYPI    C3 7427   1.848   0.875  10.486 -0.1491  0.0062 -0.0458
  483PYPI   PO4 7428   2.231   0.676  10.104 -0.1760 -0.1495  0.1956
  483PYPI   GL1 7429   2.452   0.530   9.785  0.1027  0.4361 -0.0846
  483PYPI   GL2 7430   2.489   0.799   9.607  0.3602 -0.2996 -0.2466
  483PYPI   C1A 7431   2.776   0.312   9.506  0.2337 -0.0140  0.1972
  483PYPI   C2A 7432   2.724  -0.013   9.187 -0.4173  0.3326  0.0134
  483PYPI   D3A 7433   2.476   0.022   8.798  0.1524  0.0441  0.1654
  483PYPI   C4A 7434   2.660  -0.002   8.351  0.1433  0.1373 -0.2246
  483PYPI   C1B 7435   2.647   0.788   9.264  0.0440 -0.0618 -0.0522
  483PYPI   C2B 7436   2.906   0.481   9.042  0.1961  0.1846 -0.2899
  483PYPI   C3B 7437   2.958   0.430   8.647  0.1160 -0.1832  0.1666
  483PYPI   C4B 7438   2.974   0.371   8.246  0.5120 -0.0429 -0.0164
  484PYPI    C1 7439   8.702  10.251  10.590  0.1809 -0.0127 -0.0365
  484PYPI    C2 7440   8.903  10.058  10.877  0.0884 -0.3893 -0.2186
  484PYPI    C3 7441   8.891   9.908  10.507  0.1026  0.0269 -0.3930
  484PYPI   PO4 7442   8.728  10.614  10.526 -0.1419  0.2709 -0.0914
  484PYPI   GL1 7443   9.046  10.733  10.350 -0.0558  0.4565 -0.1948
  484PYPI   GL2 7444   9.355  10.658  10.205  0.2627  0.0753  0.3699
  484PYPI   C1A 7445   8.955  10.598   9.924  0.0252  0.0776 -0.1428
  484PYPI   C2A 7446   8.959  10.627   9.515 -0.0162  0.2639  0.0023
  484PYPI   D3A 7447   9.244  10.771   9.308  0.2110  0.2852  0.0341
  484PYPI   C4A 7448   9.431  10.432   9.178 -0.1383  0.0831 -0.2090
  484PYPI   C1B 7449   9.443  10.964   9.832  0.2663  0.2689 -0.1400
  484PYPI   C2B 7450   9.313  11.260   9.424 -0.1019  0.1237 -0.0790
  484PYPI   C3B 7451   9.760  11.344   9.065 -0.1346 -0.3253 -0.1767
  484PYPI   C4B 7452   9.678  11.552   8.699 -0.1151  0.0139  0.2813
  485PYPI    C1 7453  10.794   5.040  10.655 -0.0179 -0.0956 -0.1934
  485PYPI    C2 7454  10.880   4.850  10.996 -0.0479 -0.2980 -0.2973
  485PYPI    C3 7455  10.503   4.958  10.916 -0.0139 -0.0935 -0.1884
  485PYPI   PO4 7456  10.922   4.929  10.464 -0.4850  0.1230 -0.1764
  485PYPI   GL1 7457  10.826   4.637  10.161 -0.1134 -0.1095 -0.0220
  485PYPI   GL2 7458  11.076   4.825  10.024  0.1349  0.5666  0.1719
  485PYPI   C1A 7459  10.663   4.790   9.799  0.0411  0.2378 -0.1075
  485PYPI   C2A 7460  10.749   5.061   9.447  0.1048  0.1861  0.1056
  485PYPI   D3A 7461  10.611   5.284   9.114 -0.3222 -0.0508 -0.0051
  485PYPI   C4A 7462  10.745   5.534   8.792  0.2072 -0.1533  0.1775
  485PYPI   C1B 7463  11.185   4.769   9.624  0.3459 -0.2485  0.2062
  485PYPI   C2B 7464  11.107   4.782   9.205 -0.0763 -0.1088 -0.0253
  485PYPI   C3B 7465  11.159   4.613   8.812 -0.2758  0.1504  0.0117
  485PYPI   C4B 7466  10.880   4.368   8.537 -0.0650  0.1559  0.1323
  486PYPI    C1 7467   7.841   4.465  10.664 -0.3472 -0.1984  0.1829
  486PYPI    C2 7468   8.012   4.342  11.004 -0.0595 -0.1766  0.0488
  486PYPI    C3 7469   8.158   4.221  10.652  0.0860  0.3557 -0.0822
  486PYPI   PO4 7470   7.561   4.411  10.665 -0.0962 -0.2196 -0.2004
  486PYPI   GL1 7471   7.367   4.339  10.259  0.2500 -0.1756  0.4938
  486PYPI   GL2 7472   7.037   4.473  10.248 -0.0944  0.2098  0.2747
  486PYPI   C1A 7473   7.480   4.359   9.915  0.0444 -0.2924 -0.0430
  486PYPI   C2A 7474   7.379   4.330   9.575 -0.0487 -0.0691  0.2948
  486PYPI   D3A 7475   7.083   4.446   9.257 -0.0963  0.1685  0.1468
  486PYPI   C4A 7476   7.101   4.682   8.939  0.3148 -0.1287  0.1338
  486PYPI   C1B 7477   6.920   4.261   9.895 -0.0371  0.1404  0.0069
  486PYPI   C2B 7478   6.942   4.141   9.608  0.2792 -0.1293  0.0018
  486PYPI   C3B 7479   6.911   3.861   9.325  0.5587 -0.0150  0.0812
  486PYPI   C4B 7480   6.842   3.422   9.323  0.0116  0.1809  0.0112
  487PYPI    C1 7481  12.278   3.608  10.603  0.1164  0.1786 -0.0819
  487PYPI    C2 7482  11.974   3.684  10.851 -0.0202  0.0817 -0.2181
  487PYPI    C3 7483  12.291   3.928  10.842 -0.1630  0.2709 -0.1864
  487PYPI   PO4 7484  12.154   3.570  10.344  0.2499 -0.0724  0.1125
  487PYPI   GL1 7485  12.100   3.338   9.961  0.0617  0.1474  0.0927
  487PYPI   GL2 7486  12.238   3.023  10.030 -0.0737  0.0573  0.1551
  487PYPI   C1A 7487  12.099   3.521   9.608  0.2258  0.3541 -0.4932
  487PYPI   C2A 7488  11.942   3.393   9.223 -0.1670 -0.2421  0.0865
  487PYPI   D3A 7489  12.048   3.262   8.809 -0.0851  0.2575  0.1223
  487PYPI   C4A 7490  11.953   3.531   8.418 -0.2381 -0.3400 -0.1424
  487PYPI   C1B 7491  12.094   3.008   9.570 -0.1256 -0.1554  0.1936
  487PYPI   C2B 7492  12.256   2.835   9.194  0.0488 -0.1561  0.2099
  487PYPI   C3B 7493  12.262   2.783   8.720 -0.0334 -0.0049 -0.0175
  487PYPI   C4B 7494  12.279   2.871   8.311 -0.2410 -0.2479 -0.1595
  488PYPI    C1 7495   7.547   5.799  10.746  0.0102  0.0006  0.0842
  488PYPI    C2 7496   7.176   5.760  10.892 -0.0114  0.1467  0.0695
  488PYPI    C3 7497   7.446   5.983  11.087 -0.0182  0.2807 -0.0728
  488PYPI   PO4 7498   7.506   5.788  10.379 -0.1222 -0.0951  0.0727
  488PYPI   GL1 7499   7.482   5.504  10.051  0.1002  0.2423  0.1134
  488PYPI   GL2 7500   7.757   5.308  10.074  0.1467 -0.3118 -0.4739
  488PYPI   C1A 7501   7.765   5.655   9.735 -0.2420 -0.1618 -0.1516
  488PYPI   C2A 7502   7.812   5.769   9.404 -0.1676 -0.0089 -0.1083
  488PYPI   D3A 7503   7.816   6.064   8.948 -0.0235 -0.3296 -0.0643
  488PYPI   C4A 7504   7.689   5.851   8.624  0.0508  0.0570  0.1256
  488PYPI   C1B 7505   7.829   5.145   9.695  0.1899  0.2868 -0.0601
  488PYPI   C2B 7506   7.890   5.078   9.271  0.1867 -0.0422 -0.0527
  488PYPI   C3B 7507   7.916   4.923   8.921 -0.2786 -0.0623  0.0525
  488PYPI   C4B 7508   7.674   4.689   8.546  0.3902  0.2271 -0.0152
  489PYPI    C1 7509  13.680   5.505  10.306 -0.3538  0.0395 -0.1554
  489PYPI    C2 7510  14.054   5.475  10.168 -0.3642 -0.1177 -0.1520
  489PYPI    C3 7511  13.983   5.448  10.560 -0.3701 -0.0001 -0.1446
  489PYPI   PO4 7512  13.583   5.720  10.133 -0.1873  0.0433  0.1034
  489PYPI   GL1 7513  13.502   5.972   9.769 -0.1130  0.1032 -0.3097
  489PYPI   GL2 7514  13.269   6.147   9.876 -0.1063  0.2347 -0.0989
  489PYPI   C1A 7515  13.496   6.137   9.301 -0.1791  0.0789 -0.2906
  489PYPI   C2A 7516  13.741   6.081   8.991  0.0643 -0.3031 -0.0136
  489PYPI   D3A 7517  13.857   6.050   8.547 -0.3109 -0.0221  0.2252
  489PYPI   C4A 7518  14.290   5.895   8.452 -0.1329  0.1076 -0.2304
  489PYPI   C1B 7519  13.043   6.052   9.582  0.1724  0.0682  0.2834
  489PYPI   C2B 7520  12.933   5.961   9.152 -0.1728 -0.2929 -0.0900
  489PYPI   C3B 7521  12.698   6.105   8.802  0.0734  0.2902 -0.1814
  489PYPI   C4B 7522  12.676   6.282   8.397 -0.0011  0.3095  0.1170
  490PYPI    C1 7523   8.577  12.331  10.814  0.0425 -0.0889  0.0445
  490PYPI    C2 7524   8.886  12.582  10.769 -0.2075  0.1988 -0.1092
  490PYPI    C3 7525   8.618  12.645  11.059 -0.1981  0.0284 -0.0622
  490PYPI   PO4 7526   8.606  12.140  10.770  0.1943  0.3359  0.2262
  490PYPI   GL1 7527   8.679  11.963  10.433 -0.0242  0.1634  0.1022
  490PYPI   GL2 7528   8.352  11.844  10.257 -0.1395  0.0179  0.0969
  490PYPI   C1A 7529   8.668  11.985   9.943 -0.4936 -0.0102  0.0575
  490PYPI   C2A 7530   8.670  12.028   9.496 -0.2103 -0.0264 -0.1562
  490PYPI   D3A 7531   8.608  12.027   9.099 -0.0274  0.2193  0.0134
  490PYPI   C4A 7532   8.866  11.863   8.782 -0.1860  0.0816  0.1480
  490PYPI   C1B 7533   8.083  11.796   9.950 -0.2074 -0.2224 -0.0864
  490PYPI   C2B 7534   8.146  11.789   9.481 -0.1325  0.2895  0.0525
  490PYPI   C3B 7535   8.086  12.015   8.971  0.1818 -0.2160 -0.1048
  490PYPI   C4B 7536   8.039  12.303   8.730 -0.0812  0.1631 -0.0609
  491PYPI    C1 7537   6.785   2.276  10.893  0.0637 -0.1359 -0.0061
  491PYPI    C2 7538   7.114   2.056  10.947  0.0419 -0.2065 -0.1553
  491PYPI    C3 7539   6.793   1.996  11.178  0.1734 -0.0550  0.0712
  491PYPI   PO4 7540   6.728   2.250  10.726 -0.1595 -0.1191 -0.1971
  491PYPI   GL1 7541   7.018   2.229  10.414 -0.1234 -0.1290  0.0006
  491PYPI   GL2 7542   7.066   1.925  10.243 -0.0522  0.0548  0.0835
  491PYPI   C1A 7543   7.035   2.551  10.206  0.2082  0.0980 -0.0555
  491PYPI   C2A 7544   7.269   2.474   9.894 -0.3526 -0.0682  0.1644
  491PYPI   D3A 7545   7.174   2.729   9.551  0.0315  0.2567 -0.0821
  491PYPI   C4A 7546   7.323   3.160   9.445  0.0382 -0.1280 -0.0083
  491PYPI   C1B 7547   7.349   2.021   9.904 -0.1529 -0.1370 -0.0688
  491PYPI   C2B 7548   7.772   1.892   9.728 -0.0546 -0.1659  0.0175
  491PYPI   C3B 7549   8.005   2.104   9.506 -0.1469 -0.2519 -0.0559
  491PYPI   C4B 7550   7.998   2.412   9.254 -0.1349  0.0784 -0.0219
  492PYPI    C1 7551  16.961  10.531  10.253 -0.0561 -0.0270 -0.0612
  492PYPI    C2 7552  16.630  10.532  10.029  0.0066  0.0184 -0.1544
  492PYPI    C3 7553  16.614  10.652  10.410 -0.0932 -0.0249 -0.1447
  492PYPI   PO4 7554  17.119  10.694  10.066  0.1307  0.0839  0.1086
  492PYPI   GL1 7555  17.568  10.806   9.815  0.1480  0.1081  0.2325
  492PYPI   GL2 7556  17.558  10.389   9.827 -0.2358  0.3114 -0.3041
  492PYPI   C1A 7557  17.236  10.630   9.472 -0.0589 -0.1784  0.0406
  492PYPI   C2A 7558  17.119  10.335   9.364  0.1721 -0.2432 -0.0885
  492PYPI   D3A 7559  16.897  10.136   8.988 -0.1908  0.0566 -0.2530
  492PYPI   C4A 7560  16.922  10.131   8.540 -0.0718 -0.2597 -0.0464
  492PYPI   C1B 7561  17.629  10.381   9.316  0.2041  0.1242 -0.3870
  492PYPI   C2B 7562  17.560  10.520   9.010 -0.1798  0.2366  0.2651
  492PYPI   C3B 7563  17.553  10.779   8.646 -0.1633  0.0526  0.0114
  492PYPI   C4B 7564  17.579  10.862   8.217  0.2138 -0.2224  0.0003
  493PYPI    C1 7565  11.585  15.119  10.272  0.0760 -0.0920 -0.0071
  493PYPI    C2 7566  11.315  15.205   9.989  0.0091 -0.1560  0.0366
  493PYPI    C3 7567  11.443  15.491  10.238  0.0053 -0.1186 -0.0042
  493PYPI   PO4 7568  11.817  15.010  10.041 -0.1284  0.1544 -0.0583
  493PYPI   GL1 7569  11.928  14.954   9.702 -0.2073  0.0327  0.1893
  493PYPI   GL2 7570  12.241  15.132   9.623 -0.1966  0.5750 -0.1283
  493PYPI   C1A 7571  11.675  14.836   9.465  0.3932  0.0438 -0.0452
  493PYPI   C2A 7572  11.701  14.762   9.145 -0.0573  0.1201  0.4602
  493PYPI   D3A 7573  11.540  14.715   8.725  0.3553 -0.0390 -0.0758
  493PYPI   C4A 7574  11.067  14.529   8.501 -0.1559 -0.1866  0.0054
  493PYPI   C1B 7575  12.135  15.000   9.283 -0.0735 -0.1648 -0.0735
  493PYPI   C2B 7576  12.049  14.938   8.777  0.2422  0.3484 -0.2129
  493PYPI   C3B 7577  12.201  14.765   8.396 -0.0292 -0.1052 -0.1365
  493PYPI   C4B 7578  12.390  14.435   8.252 -0.2470  0.0966  0.1159
  494PYPI    C1 7579   4.900  14.583  10.380  0.3140  0.0975 -0.0248
  494PYPI    C2 7580   5.135  14.280  10.497 -0.0751 -0.1266  0.1976
  494PYPI    C3 7581   5.126  14.620  10.708  0.1427 -0.0672  0.1138
  494PYPI   PO4 7582   4.898  14.634  10.174 -0.3251 -0.2244  0.0757
  494PYPI   GL1 7583   5.154  14.525   9.865  0.1077 -0.0515  0.0791
  494PYPI   GL2 7584   5.172  14.222  10.008 -0.3538  0.1514 -0.1789
  494PYPI   C1A 7585   5.170  14.731   9.480  0.2230  0.0509 -0.0616
  494PYPI   C2A 7586   5.427  14.757   9.117  0.0277 -0.3759 -0.0147
  494PYPI   D3A 7587   5.463  14.784   8.819 -0.0590 -0.2744  0.2691
  494PYPI   C4A 7588   5.293  14.595   8.447 -0.0986  0.2791  0.0392
  494PYPI   C1B 7589   5.185  14.203   9.527  0.2910  0.0835 -0.0430
  494PYPI   C2B 7590   5.301  14.259   9.138 -0.2187 -0.0487 -0.0735
  494PYPI   C3B 7591   5.384  14.214   8.797  0.0765 -0.1223  0.1862
  494PYPI   C4B 7592   5.393  13.950   8.456  0.0095 -0.0148 -0.4381
  495PYPI    C1 7593   6.927   9.745  10.952  0.0915 -0.0350  0.1559
  495PYPI    C2 7594   6.899  10.141  10.994 -0.0550 -0.0227 -0.0440
  495PYPI    C3 7595   7.035   9.917  11.296 -0.0261  0.1732  0.0900
  495PYPI   PO4 7596   6.927   9.641  10.675  0.2758 -0.0640 -0.1012
  495PYPI   GL1 7597   6.808   9.743  10.246 -0.0219  0.1991 -0.1577
  495PYPI   GL2 7598   7.074   9.778  10.160  0.1938 -0.0980 -0.0956
  495PYPI   C1A 7599   6.905   9.358   9.899 -0.4660 -0.4435  0.0793
  495PYPI   C2A 7600   6.818   9.078   9.604  0.2632 -0.1949  0.1440
  495PYPI   D3A 7601   6.921   9.017   9.230 -0.2311  0.2510  0.2569
  495PYPI   C4A 7602   7.157   9.098   8.940 -0.1906  0.2108 -0.0061
  495PYPI   C1B 7603   7.218   9.737   9.691 -0.2433  0.2800 -0.2486
  495PYPI   C2B 7604   7.429   9.722   9.217 -0.1276  0.4096 -0.1789
  495PYPI   C3B 7605   7.646   9.742   8.842 -0.0770  0.1109 -0.0411
  495PYPI   C4B 7606   7.792   9.684   8.507 -0.1451 -0.2131 -0.0583
  496PYPI    C1 7607   2.785  15.308  10.307 -0.0964  0.1733  0.1321
  496PYPI    C2 7608   2.773  14.913  10.371  0.1425  0.1195 -0.1347
  496PYPI    C3 7609   2.667  15.167  10.662 -0.2078 -0.1428 -0.0272
  496PYPI   PO4 7610   2.930  15.515  10.239 -0.1015  0.1091  0.0286
  496PYPI   GL1 7611   2.895  15.791   9.891 -0.3665 -0.1075  0.0376
  496PYPI   GL2 7612   2.907  16.197   9.989 -0.0031  0.1762  0.1265
  496PYPI   C1A 7613   2.528  15.933   9.723 -0.2043 -0.0939  0.0139
  496PYPI   C2A 7614   2.293  16.027   9.476  0.3871  0.0641 -0.0485
  496PYPI   D3A 7615   2.201  15.826   9.070 -0.2906  0.0614 -0.0253
  496PYPI   C4A 7616   2.533  15.832   8.674 -0.0555  0.0653  0.0633
  496PYPI   C1B 7617   3.131  16.132   9.582  0.2818 -0.0326 -0.1369
  496PYPI   C2B 7618   3.025  16.349   9.187  0.3557  0.0430  0.0524
  496PYPI   C3B 7619   3.153  16.426   8.764 -0.1970  0.1175  0.1112
  496PYPI   C4B 7620   3.403  16.381   8.411  0.1783  0.0509 -0.4627
  497PYPI    C1 7621   4.581  16.840  10.601 -0.1499  0.0021 -0.0693
  497PYPI    C2 7622   4.878  16.750  10.852 -0.2108 -0.2741 -0.0928
  497PYPI    C3 7623   4.584  16.993  10.970  0.0001 -0.0320 -0.0557
  497PYPI   PO4 7624   4.755  16.831  10.337 -0.3369  0.2286  0.2173
  497PYPI   GL1 7625   4.714  16.776   9.898 -0.2194  0.1832  0.3161
  497PYPI   GL2 7626   5.000  16.536   9.671  0.1418  0.4079  0.3654
  497PYPI   C1A 7627   4.605  16.927   9.533 -0.1242  0.0537  0.1048
  497PYPI   C2A 7628   4.516  16.936   9.157 -0.0586 -0.0631 -0.1522
  497PYPI   D3A 7629   4.600  17.299   8.973  0.1648  0.0257 -0.1840
  497PYPI   C4A 7630   4.305  17.591   8.856 -0.4951 -0.1644  0.0297
  497PYPI   C1B 7631   5.055  16.805   9.285 -0.1750  0.1237  0.0258
  497PYPI   C2B 7632   4.960  17.028   8.790  0.1449  0.1739  0.0880
  497PYPI   C3B 7633   5.019  16.972   8.413  0.0906 -0.3185  0.1767
  497PYPI   C4B 7634   5.200  17.304   8.152  0.2585  0.0976  0.1862
  498PYPI    C1 7635   3.174   5.578  10.748  0.0706 -0.0419  0.0755
  498PYPI    C2 7636   2.908   5.299  10.642  0.3538 -0.3564  0.1723
  498PYPI    C3 7637   2.965   5.383  11.028 -0.0660  0.1799  0.1300
  498PYPI   PO4 7638   3.275   5.704  10.521 -0.2455 -0.2292  0.0139
  498PYPI   GL1 7639   3.186   5.848  10.086 -0.0029 -0.1050  0.0245
  498PYPI   GL2 7640   3.428   6.087  10.029  0.2041  0.1441  0.2055
  498PYPI   C1A 7641   3.053   5.606   9.707  0.2601  0.2963  0.5165
  498PYPI   C2A 7642   2.866   5.525   9.310  0.1409  0.0233  0.2745
  498PYPI   D3A 7643   2.788   5.867   8.962 -0.2524  0.3256 -0.0741
  498PYPI   C4A 7644   2.637   6.274   8.983 -0.0365  0.2527  0.1479
  498PYPI   C1B 7645   3.309   6.163   9.693 -0.1091 -0.2943  0.1437
  498PYPI   C2B 7646   3.071   6.185   9.315  0.2816 -0.1576  0.2764
  498PYPI   C3B 7647   3.187   6.251   8.832  0.1970  0.1384 -0.1508
  498PYPI   C4B 7648   2.912   6.568   8.547  0.0520  0.0570  0.1025
  499PYPI    C1 7649  13.148   4.997  10.374 -0.2977 -0.2424  0.1137
  499PYPI    C2 7650  12.777   5.138  10.324 -0.1952  0.0181  0.0702
  499PYPI    C3 7651  12.981   5.227  10.656 -0.1598 -0.0988  0.0801
  499PYPI   PO4 7652  13.243   5.060  10.098  0.1346 -0.1417  0.2328
  499PYPI   GL1 7653  12.994   5.376   9.803 -0.0001 -0.0935  0.0449
  499PYPI   GL2 7654  12.698   5.518   9.871 -0.0788  0.2650 -0.4307
  499PYPI   C1A 7655  13.309   5.565   9.581 -0.0955 -0.1377  0.0206
  499PYPI   C2A 7656  13.395   5.657   9.062 -0.0094 -0.1915 -0.2118
  499PYPI   D3A 7657  13.570   5.679   8.720 -0.2494  0.0489 -0.1055
  499PYPI   C4A 7658  13.304   5.625   8.432  0.0450 -0.0596  0.2432
  499PYPI   C1B 7659  12.768   5.540   9.411 -0.1329  0.2069  0.0836
  499PYPI   C2B 7660  12.577   5.584   9.038  0.1326 -0.0156 -0.1167
  499PYPI   C3B 7661  12.320   5.489   8.670 -0.2453  0.1010 -0.3019
  499PYPI   C4B 7662  12.316   5.555   8.239  0.4264 -0.1510 -0.0208
  500PYPI    C1 7663  18.184  11.601  10.388 -0.4021 -0.0213  0.0656
  500PYPI    C2 7664  18.166  11.999  10.346 -0.1743  0.0071  0.2181
  500PYPI    C3 7665  18.286  11.840  10.693  0.1979 -0.1858  0.0077
  500PYPI   PO4 7666  18.066  11.489  10.172  0.0893 -0.0230 -0.0720
  500PYPI   GL1 7667  17.964  11.443   9.889  0.0201  0.1429  0.1372
  500PYPI   GL2 7668  17.877  11.690   9.719 -0.5466 -0.3641  0.0394
  500PYPI   C1A 7669  17.763  11.149   9.543  0.3391  0.1755 -0.1138
  500PYPI   C2A 7670  17.518  10.977   9.313 -0.2263  0.2241 -0.1439
  500PYPI   D3A 7671  17.135  10.900   9.074 -0.0986 -0.1450 -0.4019
  500PYPI   C4A 7672  17.120  10.598   8.750 -0.0030 -0.2728  0.1051
  500PYPI   C1B 7673  17.847  11.640   9.238 -0.1584  0.0379 -0.1393
  500PYPI   C2B 7674  17.942  11.681   8.775 -0.6015 -0.1795  0.2877
  500PYPI   C3B 7675  18.042  11.616   8.405 -0.3900  0.0153  0.1335
  500PYPI   C4B 7676  18.073  11.653   7.910  0.0505 -0.0189 -0.2677
  501PYPI    C1 7677  15.421   2.546  10.336 -0.3101 -0.2503 -0.1455
  501PYPI    C2 7678  15.414   2.191  10.520  0.0269 -0.1435  0.0837
  501PYPI    C3 7679  15.500   2.522  10.727  0.5301 -0.0338 -0.2821
  501PYPI   PO4 7680  15.591   2.429  10.097 -0.0620 -0.1346  0.3309
  501PYPI   GL1 7681  15.529   2.344   9.676  0.2048  0.1538 -0.3805
  501PYPI   GL2 7682  15.662   2.650   9.688  0.1080  0.0302 -0.3231
  501PYPI   C1A 7683  15.548   2.410   9.228  0.0574  0.1708 -0.0938
  501PYPI   C2A 7684  15.752   2.536   8.806 -0.2159  0.0153 -0.0216
  501PYPI   D3A 7685  15.804   2.302   8.480  0.1564 -0.0967  0.2716
  501PYPI   C4A 7686  15.778   2.325   8.029 -0.2165 -0.0124  0.0160
  501PYPI   C1B 7687  15.755   2.888   9.358 -0.2111 -0.0457  0.1018
  501PYPI   C2B 7688  15.679   3.073   8.957  0.0476 -0.0304  0.0241
  501PYPI   C3B 7689  15.654   2.968   8.592 -0.0989  0.3820 -0.0994
  501PYPI   C4B 7690  15.272   2.955   8.448  0.0234 -0.1593 -0.0312
  502PYPI    C1 7691   4.500   4.998  10.878  0.1496 -0.1816 -0.1208
  502PYPI    C2 7692   4.374   4.646  11.020  0.0598 -0.1376 -0.0907
  502PYPI    C3 7693   4.583   4.893  11.255 -0.1748 -0.0215 -0.0009
  502PYPI   PO4 7694   4.454   4.895  10.514 -0.0376 -0.1948 -0.2067
  502PYPI   GL1 7695   4.644   4.976  10.156  0.2322  0.0676  0.0682
  502PYPI   GL2 7696   4.359   5.186  10.092  0.2946  0.3115 -0.2322
  502PYPI   C1A 7697   4.933   5.059   9.783  0.1160 -0.0692  0.1787
  502PYPI   C2A 7698   4.870   5.159   9.298 -0.1213 -0.2382  0.3219
  502PYPI   D3A 7699   4.630   5.120   8.966 -0.1379  0.1881  0.1026
  502PYPI   C4A 7700   4.942   5.258   8.515  0.0056 -0.2141 -0.2974
  502PYPI   C1B 7701   4.444   5.162   9.614 -0.0888 -0.2257  0.3801
  502PYPI   C2B 7702   4.223   5.224   9.275  0.1581  0.3354 -0.0874
  502PYPI   C3B 7703   3.826   5.436   9.291  0.4831 -0.0334 -0.0116
  502PYPI   C4B 7704   3.615   5.425   8.807  0.1431 -0.1389  0.0638
  503PYPI    C1 7705  14.845  12.056  10.925  0.0820  0.1018 -0.0380
  503PYPI    C2 7706  15.008  12.421  10.933  0.0064  0.1368 -0.0832
  503PYPI    C3 7707  15.206  12.110  11.087  0.0791  0.1936 -0.0614
  503PYPI   PO4 7708  14.835  11.886  10.623  0.0391  0.2678 -0.3597
  503PYPI   GL1 7709  15.018  11.834  10.313  0.2451 -0.1196  0.2466
  503PYPI   GL2 7710  14.973  11.481  10.085  0.2766 -0.3691 -0.2650
  503PYPI   C1A 7711  15.035  11.914   9.870 -0.0588 -0.2025  0.0550
  503PYPI   C2A 7712  15.064  11.960   9.384 -0.1108  0.1683 -0.0074
  503PYPI   D3A 7713  14.921  11.876   9.063  0.1629 -0.2684 -0.1319
  503PYPI   C4A 7714  15.040  11.685   8.730 -0.1663 -0.0015  0.3773
  503PYPI   C1B 7715  14.893  11.437   9.697 -0.0412 -0.0797  0.0499
  503PYPI   C2B 7716  14.732  11.454   9.281  0.2477  0.0942 -0.2085
  503PYPI   C3B 7717  14.500  11.217   9.135  0.1304  0.2203 -0.1262
  503PYPI   C4B 7718  14.326  11.029   8.900  0.0391 -0.0946 -0.1268
  504PYPI    C1 7719   1.674   3.460  10.294  0.1056  0.4619  0.0814
  504PYPI    C2 7720   1.553   3.556  10.663 -0.0328  0.3356  0.0699
  504PYPI    C3 7721   1.290   3.551  10.361  0.0291  0.1966  0.0173
  504PYPI   PO4 7722   1.955   3.563  10.273  0.1250  0.3883 -0.2797
  504PYPI   GL1 7723   2.032   3.593   9.932 -0.2274 -0.0074  0.0207
  504PYPI   GL2 7724   1.949   3.254   9.855 -0.1092 -0.1677  0.2003
  504PYPI   C1A 7725   2.313   3.587   9.552 -0.1186  0.0366 -0.0505
  504PYPI   C2A 7726   2.360   3.687   9.172 -0.0418 -0.1639  0.2446
  504PYPI   D3A 7727   2.323   3.846   8.665 -0.0914 -0.0555 -0.0946
  504PYPI   C4A 7728   2.110   4.242   8.539  0.4207  0.0862  0.2308
  504PYPI   C1B 7729   1.876   3.474   9.426 -0.1725 -0.1602 -0.0825
  504PYPI   C2B 7730   1.909   3.651   8.960 -0.0482 -0.3000  0.0728
  504PYPI   C3B 7731   1.850   3.814   8.379  0.0513  0.0322 -0.0479
  504PYPI   C4B 7732   1.955   4.126   7.994  0.0579 -0.2387  0.0005
  505PYPI    C1 7733   2.655   2.584  10.514  0.2116 -0.0506 -0.0508
  505PYPI    C2 7734   2.576   2.209  10.630  0.1177 -0.0527 -0.1207
  505PYPI    C3 7735   2.878   2.411  10.797  0.0946 -0.1181  0.0008
  505PYPI   PO4 7736   2.640   2.629  10.251  0.0654 -0.3238 -0.3076
  505PYPI   GL1 7737   2.592   2.531   9.864 -0.0607 -0.3425  0.4902
  505PYPI   GL2 7738   2.493   2.693   9.576  0.0452  0.2833 -0.1058
  505PYPI   C1A 7739   2.587   2.257   9.654  0.4107 -0.1406 -0.0975
  505PYPI   C2A 7740   2.586   2.198   9.305 -0.3800 -0.0203 -0.2866
  505PYPI   D3A 7741   2.457   2.445   8.918 -0.1959 -0.0957  0.1209
  505PYPI   C4A 7742   2.613   2.279   8.457  0.3257 -0.0221 -0.2887
  505PYPI   C1B 7743   2.666   2.759   9.200  0.1414 -0.0296  0.1234
  505PYPI   C2B 7744   2.659   2.908   8.800 -0.0207 -0.0706 -0.5681
  505PYPI   C3B 7745   2.424   2.830   8.349 -0.1099 -0.2551 -0.2500
  505PYPI   C4B 7746   2.361   2.626   7.929  0.1989  0.1753 -0.1000
  506ERGO   ROH 7747  15.290  11.138   9.970 -0.1410 -0.3698 -0.0325
  506ERGO    R1 7748  15.291  11.059   9.699 -0.0413 -0.3592 -0.0359
  506ERGO    R2 7749  15.060  10.993   9.563 -0.0009 -0.2807 -0.1448
  506ERGO    R3 7750  15.147  11.181   9.387  0.1398 -0.3009 -0.0977
  506ERGO    R4 7751  14.952  11.023   9.236  0.0568 -0.1478 -0.1523
  506ERGO    R5 7752  15.157  11.067   9.177  0.0920 -0.2665 -0.1188
  506ERGO    C1 7753  14.970  11.218   8.881  0.2225 -0.0894 -0.1123
  506ERGO    C2 7754  14.650  11.370   8.635 -0.2245 -0.0190  0.0106
  507ERGO   ROH 7755  11.024   6.552   9.953  0.0795  0.0688 -0.2280
  507ERGO    R1 7756  11.116   6.502   9.690  0.0525 -0.1413 -0.2005
  507ERGO    R2 7757  11.116   6.249   9.578 -0.1764 -0.2014 -0.0846
  507ERGO    R3 7758  10.974   6.372   9.381 -0.0515 -0.1551 -0.1455
  507ERGO    R4 7759  11.162   6.198   9.239  0.1229 -0.0109 -0.0761
  507ERGO    R5 7760  11.134   6.412   9.208  0.0759 -0.0106  0.0077
  507ERGO    C1 7761  11.055   6.283   8.857  0.4144  0.1434 -0.1283
  507ERGO    C2 7762  10.952   6.032   8.513  0.0445  0.1093  0.0922
  508ERGO   ROH 7763   0.100   3.190  10.128 -0.0152 -0.1531  0.0109
  508ERGO    R1 7764  -0.006   3.143   9.870  0.1826 -0.2094 -0.0602
  508ERGO    R2 7765  -0.118   3.343   9.716  0.0697 -0.2941 -0.0795
  508ERGO    R3 7766   0.063   3.258   9.531  0.2623 -0.0733 -0.0006
  508ERGO    R4 7767  -0.119   3.433   9.382  0.0365 -0.3698 -0.1009
  508ERGO    R5 7768  -0.067   3.228   9.332  0.3614 -0.3138 -0.0370
  508ERGO    C1 7769   0.049   3.405   9.014  0.1981 -0.2067 -0.0391
  508ERGO    C2 7770  -0.028   3.429   8.685  0.3222  0.4324 -0.0211
  509ERGO   ROH 7771  16.060   5.359   9.871 -0.1390  0.0359 -0.2522
  509ERGO    R1 7772  15.903   5.422   9.644 -0.0978  0.0045 -0.2894
  509ERGO    R2 7773  16.003   5.414   9.387 -0.0747 -0.1148 -0.2770
  509ERGO    R3 7774  15.791   5.249   9.344 -0.1200 -0.0663 -0.2408
  509ERGO    R4 7775  15.869   5.340   9.077 -0.1468 -0.0818 -0.2540
  509ERGO    R5 7776  15.671   5.353   9.165 -0.1285 -0.0373 -0.2186
  509ERGO    C1 7777  15.592   5.143   8.856 -0.2312 -0.0171 -0.2067
  509ERGO    C2 7778  15.356   4.851   8.831 -0.3066  0.1303  0.0337
  510ERGO   ROH 7779  11.653  16.400   9.875 -0.2428  0.0130  0.0837
  510ERGO    R1 7780  11.662  16.515   9.617 -0.2562 -0.0170  0.0700
  510ERGO    R2 7781  11.749  16.376   9.394 -0.1745 -0.0123  0.0992
  510ERGO    R3 7782  11.509  16.452   9.293 -0.1921 -0.1190  0.0591
  510ERGO    R4 7783  11.636  16.300   9.077 -0.0600 -0.0055  0.0562
  510ERGO    R5 7784  11.554  16.502   9.063 -0.1646 -0.0456  0.0802
  510ERGO    C1 7785  11.345  16.327   8.796 -0.0101 -0.1016 -0.0066
  510ERGO    C2 7786  11.111  16.278   8.483  0.0115  0.2309  0.0185
  511ERGO   ROH 7787   6.582  13.935   9.573 -0.0753  0.2610 -0.1182
  511ERGO    R1 7788   6.759  13.911   9.353 -0.0257  0.2840 -0.0818
  511ERGO    R2 7789   6.785  13.678   9.206  0.3008  0.1635  0.1462
  511ERGO    R3 7790   6.731  13.843   8.997  0.0862 -0.1085 -0.0191
  511ERGO    R4 7791   6.898  13.630   8.883  0.2331 -0.0823  0.1579
  511ERGO    R5 7792   6.934  13.844   8.869  0.0399 -0.0653 -0.0877
  511ERGO    C1 7793   6.914  13.756   8.499 -0.0078 -0.4809  0.0096
  511ERGO    C2 7794   6.994  13.619   8.209  0.1470 -0.3651  0.2061
  512ERGO   ROH 7795  17.346   4.292   9.822 -0.1534 -0.2231  0.2261
  512ERGO    R1 7796  17.337   4.072   9.644  0.2077 -0.1716  0.1379
  512ERGO    R2 7797  17.144   4.049   9.447  0.2038 -0.4391  0.1773
  512ERGO    R3 7798  17.360   4.023   9.284  0.2198  0.0182  0.1102
  512ERGO    R4 7799  17.130   3.972   9.110  0.2536 -0.3209  0.1465
  512ERGO    R5 7800  17.303   3.843   9.137  0.5015 -0.0301  0.0476
  512ERGO    C1 7801  17.324   3.903   8.761  0.2976  0.1772  0.0655
  512ERGO    C2 7802  17.384   3.760   8.405 -0.0847 -0.4525 -0.1017
  513ERGO   ROH 7803  13.975   9.858  10.074  0.2086 -0.0652 -0.1214
  513ERGO    R1 7804  14.048   9.996   9.838  0.2594 -0.0990 -0.1261
  513ERGO    R2 7805  14.124   9.866   9.607  0.0307 -0.1412 -0.1824
  513ERGO    R3 7806  13.927  10.016   9.496  0.1398  0.0865 -0.0744
  513ERGO    R4 7807  14.102   9.946   9.271 -0.0372 -0.0780 -0.1626
  513ERGO    R5 7808  14.038  10.146   9.329  0.2049 -0.0139 -0.1091
  513ERGO    C1 7809  13.904  10.134   8.972  0.0257  0.1725 -0.0498
  513ERGO    C2 7810  13.909  10.088   8.671 -0.4058  0.1622  0.2054
  514ERGO   ROH 7811   8.583   1.896   9.856 -0.1133  0.0713  0.0842
  514ERGO    R1 7812   8.524   2.127   9.704  0.0219  0.0594  0.0115
  514ERGO    R2 7813   8.698   2.230   9.516  0.0698 -0.1197 -0.0467
  514ERGO    R3 7814   8.483   2.208   9.351  0.0348 -0.0359 -0.0119
  514ERGO    R4 7815   8.686   2.347   9.191 -0.0213  0.0956  0.0326
  514ERGO    R5 7816   8.482   2.414   9.228 -0.0199  0.0458  0.1245
  514ERGO    C1 7817   8.477   2.395   8.847 -0.1070  0.2996  0.1115
  514ERGO    C2 7818   8.434   2.555   8.618 -0.5335 -0.0225  0.3064
  515ERGO   ROH 7819   8.305  13.483   8.212 -0.3028 -0.0752  0.1036
  515ERGO    R1 7820   8.488  13.590   8.025 -0.1976 -0.1049  0.1894
  515ERGO    R2 7821   8.694  13.442   7.917 -0.3344 -0.2181  0.0837
  515ERGO    R3 7822   8.586  13.523   7.681 -0.2543  0.0631  0.1389
  515ERGO    R4 7823   8.858  13.436   7.612 -0.3252 -0.1292  0.0862
  515ERGO    R5 7824   8.767  13.629   7.565 -0.1519 -0.0080  0.2304
  515ERGO    C1 7825   8.851  13.507   7.214 -0.2446  0.1866  0.1393
  515ERGO    C2 7826   9.024  13.492   6.859 -0.0223  0.2810  0.0253
  516ERGO   ROH 7827   0.065  12.627   9.741 -0.2219 -0.0852 -0.0183
  516ERGO    R1 7828   0.206  12.696   9.506 -0.1742 -0.1459 -0.0077
  516ERGO    R2 7829   0.192  12.546   9.274 -0.2958 -0.0902 -0.0367
  516ERGO    R3 7830   0.121  12.784   9.163 -0.1171 -0.0116  0.0115
  516ERGO    R4 7831   0.282  12.650   8.957 -0.0830 -0.0246  0.0432
  516ERGO    R5 7832   0.314  12.850   9.037 -0.0172 -0.0674  0.1310
  516ERGO    C1 7833   0.268  12.933   8.668  0.2088  0.0875  0.1349
  516ERGO    C2 7834   0.296  12.993   8.382  0.2564 -0.0371 -0.2166
  517ERGO   ROH 7835  14.230   0.871   9.772 -0.0418 -0.0848 -0.0199
  517ERGO    R1 7836  14.279   0.978   9.515 -0.1320  0.0043 -0.0019
  517ERGO    R2 7837  14.521   0.947   9.384 -0.0719  0.2974  0.0205
  517ERGO    R3 7838  14.364   0.847   9.186  0.0610  0.1361 -0.0038
  517ERGO    R4 7839  14.634   0.858   9.070  0.0953  0.1852  0.1110
  517ERGO    R5 7840  14.452   0.945   8.986  0.1039  0.0670 -0.0127
  517ERGO    C1 7841  14.552   0.713   8.700  0.3175 -0.0315  0.1409
  517ERGO    C2 7842  14.764   0.665   8.440 -0.2627 -0.1792  0.4384
  518ERGO   ROH 7843   9.013  14.684  10.051  0.1203 -0.3862  0.1052
  518ERGO    R1 7844   8.942  14.831   9.819  0.0897 -0.2485  0.2003
  518ERGO    R2 7845   9.130  14.944   9.652  0.0719 -0.2598  0.1711
  518ERGO    R3 7846   8.998  14.802   9.461 -0.0747 -0.1137  0.1627
  518ERGO    R4 7847   9.193  14.963   9.312 -0.1092 -0.0862  0.1460
  518ERGO    R5 7848   8.978  14.954   9.277 -0.1321 -0.0032  0.2590
  518ERGO    C1 7849   9.105  14.841   8.936 -0.3523  0.1519  0.1233
  518ERGO    C2 7850   9.376  14.813   8.669 -0.1946  0.2088  0.0531
  519ERGO   ROH 7851   7.963   6.099   9.996 -0.2221  0.1916 -0.1433
  519ERGO    R1 7852   8.148   6.150   9.787 -0.1548 -0.0109 -0.1356
  519ERGO    R2 7853   8.193   5.970   9.582 -0.2489 -0.1171 -0.0670
  519ERGO    R3 7854   8.134   6.185   9.425 -0.0778 -0.1302 -0.1501
  519ERGO    R4 7855   8.294   6.008   9.253  0.0222 -0.1926  0.0056
  519ERGO    R5 7856   8.332   6.219   9.295  0.0344 -0.1947  0.0015
  519ERGO    C1 7857   8.298   6.231   8.915  0.3406 -0.2489 -0.0300
  519ERGO    C2 7858   8.211   6.130   8.662 -0.5036  0.0472  0.1431
  520ERGO   ROH 7859   9.654   7.193   9.899  0.0602 -0.1684  0.0546
  520ERGO    R1 7860   9.702   7.052   9.659  0.0340 -0.1395  0.0318
  520ERGO    R2 7861   9.499   6.941   9.507  0.0059 -0.0210 -0.0227
  520ERGO    R3 7862   9.611   7.088   9.308  0.0994 -0.0254  0.0269
  520ERGO    R4 7863   9.549   6.829   9.184 -0.0375  0.0500 -0.0537
  520ERGO    R5 7864   9.742   6.930   9.184  0.0170 -0.0597 -0.0132
  520ERGO    C1 7865   9.683   6.902   8.809  0.0249  0.0874 -0.0252
  520ERGO    C2 7866   9.721   7.002   8.499 -0.0027  0.0029 -0.2289
  521ERGO   ROH 7867  16.298   2.794   9.570 -0.0794 -0.0268 -0.0416
  521ERGO    R1 7868  16.261   2.948   9.336 -0.3821  0.0010  0.0221
  521ERGO    R2 7869  16.413   2.911   9.108 -0.2808  0.4135  0.0257
  521ERGO    R3 7870  16.170   2.884   8.989 -0.2226 -0.0414 -0.0155
  521ERGO    R4 7871  16.360   2.901   8.766 -0.1795  0.0964  0.0133
  521ERGO    R5 7872  16.183   3.025   8.796 -0.3862 -0.1450 -0.1124
  521ERGO    C1 7873  16.101   2.871   8.456 -0.0658 -0.5153 -0.0328
  521ERGO    C2 7874  16.029   2.689   8.308 -0.1123 -0.1425 -0.2384
  522ERGO   ROH 7875   2.879  16.659   9.829  0.0397 -0.2515 -0.1096
  522ERGO    R1 7876   2.772  16.818   9.620  0.0741 -0.1591 -0.0571
  522ERGO    R2 7877   2.859  16.799   9.359 -0.0464 -0.2115 -0.0923
  522ERGO    R3 7878   2.594  16.760   9.308 -0.0986 -0.0085  0.0102
  522ERGO    R4 7879   2.719  16.781   9.043 -0.1654 -0.1972 -0.0412
  522ERGO    R5 7880   2.550  16.897   9.117 -0.0465 -0.0305 -0.0199
  522ERGO    C1 7881   2.389  16.734   8.812 -0.2836  0.0016  0.0848
  522ERGO    C2 7882   2.475  16.647   8.441  0.1428 -0.1206 -0.0765
  523ERGO   ROH 7883   7.117  12.778  10.202 -0.0720  0.0697 -0.1205
  523ERGO    R1 7884   7.259  12.698   9.969 -0.0559 -0.0584 -0.0679
  523ERGO    R2 7885   7.298  12.433   9.902 -0.2496 -0.0965 -0.0401
  523ERGO    R3 7886   7.186  12.510   9.667 -0.1075 -0.0149 -0.0822
  523ERGO    R4 7887   7.319  12.257   9.605 -0.2464 -0.0965 -0.0399
  523ERGO    R5 7888   7.345  12.446   9.501 -0.0839 -0.1094 -0.0222
  523ERGO    C1 7889   7.227  12.227   9.212 -0.1112 -0.0196 -0.0794
  523ERGO    C2 7890   7.024  12.116   8.983 -0.0284 -0.0636 -0.1217
  524ERGO   ROH 7891   6.385  12.585   9.781  0.2128 -0.1940  0.1221
  524ERGO    R1 7892   6.343  12.431   9.547  0.1686 -0.2543  0.1695
  524ERGO    R2 7893   6.338  12.543   9.294 -0.0882 -0.2863  0.1571
  524ERGO    R3 7894   6.528  12.356   9.243  0.0205 -0.1497  0.0517
  524ERGO    R4 7895   6.387  12.390   8.988 -0.0122 -0.1074  0.0783
  524ERGO    R5 7896   6.421  12.202   9.093  0.1046 -0.1396 -0.0181
  524ERGO    C1 7897   6.594  12.126   8.762  0.1342  0.1250 -0.0664
  524ERGO    C2 7898   6.354  12.171   8.446 -0.2226 -0.0365 -0.1349
  525ERGO   ROH 7899  17.100   5.274  10.064  0.1292  0.0154  0.0531
  525ERGO    R1 7900  17.145   5.132   9.823 -0.0411  0.0536 -0.0029
  525ERGO    R2 7901  17.071   5.231   9.575  0.0577  0.2319  0.0365
  525ERGO    R3 7902  17.333   5.186   9.516  0.0072 -0.0398  0.0100
  525ERGO    R4 7903  17.207   5.248   9.258  0.0588  0.1643  0.0335
  525ERGO    R5 7904  17.327   5.072   9.305 -0.1302  0.0197 -0.0188
  525ERGO    C1 7905  17.532   5.215   9.017  0.0122 -0.1301  0.0068
  525ERGO    C2 7906  17.425   5.433   8.769 -0.0036 -0.3000 -0.0567
  526ERGO   ROH 7907  14.110  17.530  10.151 -0.0679  0.0460  0.0131
  526ERGO    R1 7908  13.957  17.608   9.926 -0.0998 -0.1582 -0.0372
  526ERGO    R2 7909  14.028  17.820   9.763 -0.2730 -0.1300 -0.0717
  526ERGO    R3 7910  14.008  17.634   9.567 -0.0544 -0.1964 -0.0347
  526ERGO    R4 7911  13.948  17.888   9.434 -0.2405 -0.2699 -0.1094
  526ERGO    R5 7912  13.825  17.708   9.432 -0.0865 -0.3831 -0.1029
  526ERGO    C1 7913  13.883  17.751   9.058 -0.0161 -0.4136 -0.0967
  526ERGO    C2 7914  13.793  17.716   8.733  0.0082 -0.1285  0.2144
  527ERGO   ROH 7915   4.498   6.663  10.165 -0.1208 -0.0201  0.0087
  527ERGO    R1 7916   4.609   6.705   9.908 -0.0121 -0.0554  0.0500
  527ERGO    R2 7917   4.831   6.566   9.817  0.0021 -0.0913  0.1467
  527ERGO    R3 7918   4.666   6.506   9.609  0.0809 -0.0821  0.0852
  527ERGO    R4 7919   4.934   6.430   9.517  0.1763  0.2808  0.0322
  527ERGO    R5 7920   4.794   6.562   9.415  0.0416  0.2262  0.1410
  527ERGO    C1 7921   4.840   6.294   9.147  0.3517  0.5061 -0.0920
  527ERGO    C2 7922   4.665   6.115   8.982 -0.0423  0.1668  0.0902
  528ERGO   ROH 7923  14.415  15.251   7.640  0.1059  0.0176 -0.0765
  528ERGO    R1 7924  14.532  15.025   7.764  0.0266  0.0203  0.0064
  528ERGO    R2 7925  14.462  14.942   8.017 -0.0686  0.0821  0.0060
  528ERGO    R3 7926  14.417  14.704   7.892 -0.0747  0.0692  0.0349
  528ERGO    R4 7927  14.508  14.631   8.162  0.1196  0.0933 -0.0301
  528ERGO    R5 7928  14.592  14.561   7.972  0.0180  0.1218 -0.0808
  528ERGO    C1 7929  14.493  14.227   8.128  0.2234  0.0878 -0.0237
  528ERGO    C2 7930  14.356  14.104   8.469  0.0622  0.4647 -0.0134
  529ERGO   ROH 7931   8.972   1.591   9.810  0.1621 -0.0060 -0.0046
  529ERGO    R1 7932   8.907   1.722   9.567  0.1550  0.0103  0.0051
  529ERGO    R2 7933   9.041   1.671   9.330  0.1807  0.0606  0.0052
  529ERGO    R3 7934   8.790   1.623   9.237  0.1952  0.0252 -0.0128
  529ERGO    R4 7935   8.915   1.791   9.032  0.0485  0.3806  0.1858
  529ERGO    R5 7936   8.726   1.828   9.132  0.0433  0.1251  0.2721
  529ERGO    C1 7937   8.607   1.816   8.770 -0.0149  0.5338  0.2742
  529ERGO    C2 7938   8.500   1.632   8.499  0.2335  0.0354 -0.0930
  530ERGO   ROH 7939   7.754   8.726  10.343  0.2029 -0.3769 -0.0585
  530ERGO    R1 7940   7.661   8.839  10.102  0.1674 -0.1300  0.0676
  530ERGO    R2 7941   7.831   8.919   9.899  0.1273 -0.1621  0.0204
  530ERGO    R3 7942   7.675   8.755   9.747 -0.1197  0.0821  0.0028
  530ERGO    R4 7943   7.838   8.904   9.554  0.3493 -0.3738  0.0313
  530ERGO    R5 7944   7.621   8.888   9.555  0.3036  0.0965 -0.1151
  530ERGO    C1 7945   7.697   8.742   9.210  0.2467 -0.2679  0.0211
  530ERGO    C2 7946   7.588   8.801   8.886 -0.1402  0.0689 -0.2079
  531ERGO   ROH 7947  12.103  17.684   9.815 -0.1010 -0.4326  0.0026
  531ERGO    R1 7948  12.251  17.766   9.588 -0.1662 -0.0771  0.0809
  531ERGO    R2 7949  12.358  17.586   9.407  0.2378  0.1732  0.0497
  531ERGO    R3 7950  12.219  17.736   9.227  0.0149 -0.0167  0.0602
  531ERGO    R4 7951  12.425  17.601   9.068  0.3277  0.4371  0.0783
  531ERGO    R5 7952  12.386  17.815   9.075 -0.0818  0.3622  0.1484
  531ERGO    C1 7953  12.335  17.751   8.702  0.1708  0.4125  0.1047
  531ERGO    C2 7954  12.139  17.734   8.431 -0.1350  0.0833  0.0698
  532ERGO   ROH 7955   3.639   3.926   9.935 -0.1169 -0.0953 -0.0894
  532ERGO    R1 7956   3.628   3.855   9.662 -0.0496 -0.5579  0.0208
  532ERGO    R2 7957   3.761   3.996   9.465 -0.8138 -0.2309 -0.3018
  532ERGO    R3 7958   3.865   3.752   9.405  0.2159  0.0854 -0.0103
  532ERGO    R4 7959   3.863   3.896   9.150 -0.7227 -0.2842 -0.2556
  532ERGO    R5 7960   3.775   3.700   9.189  0.1700 -0.6573  0.1582
  532ERGO    C1 7961   4.020   3.609   8.911  0.2969 -0.0183  0.0450
  532ERGO    C2 7962   4.276   3.582   8.703 -0.0722  0.2734  0.1299
  533ERGO   ROH 7963   8.085  11.308  10.402 -0.0704  0.0567 -0.0143
  533ERGO    R1 7964   8.139  11.216  10.140  0.0596  0.1387 -0.0168
  533ERGO    R2 7965   7.939  11.158   9.958  0.1430  0.0013 -0.0661
  533ERGO    R3 7966   8.077  11.332   9.801  0.0348  0.1379 -0.0122
  533ERGO    R4 7967   7.876  11.214   9.623  0.1907 -0.0222 -0.0797
  533ERGO    R5 7968   8.091  11.222   9.588  0.1934  0.1707 -0.0187
  533ERGO    C1 7969   7.968  11.410   9.280  0.1168  0.0924 -0.0370
  533ERGO    C2 7970   7.791  11.563   9.036 -0.0637 -0.0191  0.1261
  534ERGO   ROH 7971   4.362  15.296   9.875 -0.1727 -0.1982 -0.2003
  534ERGO    R1 7972   4.276  15.312   9.605 -0.0434 -0.0762 -0.2349
  534ERGO    R2 7973   4.437  15.412   9.404  0.0944 -0.0879 -0.1312
  534ERGO    R3 7974   4.382  15.173   9.286  0.0373 -0.0268 -0.2298
  534ERGO    R4 7975   4.445  15.353   9.063  0.1531  0.0311 -0.1512
  534ERGO    R5 7976   4.266  15.232   9.085  0.1045  0.0863 -0.2369
  534ERGO    C1 7977   4.398  15.095   8.755  0.1336  0.1578 -0.2554
  534ERGO    C2 7978   4.618  15.226   8.528  0.0468 -0.0955  0.0873
  535ERGO   ROH 7979  11.750   2.885   9.903 -0.2533  0.0477 -0.1895
  535ERGO    R1 7980  11.630   2.836   9.652 -0.1766  0.1646 -0.2494
  535ERGO    R2 7981  11.613   3.029   9.455  0.0960  0.1882 -0.2538
  535ERGO    R3 7982  11.736   2.840   9.303 -0.0018  0.0789 -0.1986
  535ERGO    R4 7983  11.633   3.036   9.110  0.3021  0.2013 -0.2425
  535ERGO    R5 7984  11.598   2.821   9.109  0.0892  0.2346 -0.2815
  535ERGO    C1 7985  11.761   2.862   8.767  0.3304  0.1063 -0.1842
  535ERGO    C2 7986  11.817   2.957   8.438  0.0083 -0.0689  0.0361
  536ERGO   ROH 7987   1.899   4.624  10.225  0.0372  0.2455 -0.1857
  536ERGO    R1 7988   1.984   4.534   9.970  0.1042  0.1850 -0.1418
  536ERGO    R2 7989   1.806   4.445   9.778  0.1596  0.1102 -0.1534
  536ERGO    R3 7990   1.930   4.632   9.624  0.1693  0.0800 -0.1835
  536ERGO    R4 7991   1.833   4.432   9.433  0.0818  0.0884 -0.1591
  536ERGO    R5 7992   2.037   4.506   9.451  0.1060  0.0458 -0.2025
  536ERGO    C1 7993   1.964   4.600   9.089  0.0456  0.0473 -0.1906
  536ERGO    C2 7994   1.861   4.644   8.826  0.2034  0.0581 -0.0148
  537ERGO   ROH 7995   2.795   9.172   9.796  0.0509  0.0544 -0.2084
  537ERGO    R1 7996   2.996   9.124   9.602  0.0768 -0.0095 -0.1648
  537ERGO    R2 7997   2.940   9.024   9.351  0.0792  0.1532 -0.2263
  537ERGO    R3 7998   3.074   9.245   9.267  0.2812  0.0871 -0.0855
  537ERGO    R4 7999   3.105   9.053   9.048  0.1137  0.1814 -0.2057
  537ERGO    R5 8000   3.265   9.158   9.151  0.2105 -0.0213 -0.1311
  537ERGO    C1 8001   3.327   9.277   8.794  0.3234  0.1358 -0.0616
  537ERGO    C2 8002   3.291   9.202   8.543  0.0783  0.0618 -0.1499
  538ERGO   ROH 8003   0.745  13.941   9.813 -0.3081  0.3469 -0.0245
  538ERGO    R1 8004   0.932  13.975   9.604 -0.1070  0.0750  0.1030
  538ERGO    R2 8005   0.986  13.778   9.419 -0.2807 -0.0032  0.1245
  538ERGO    R3 8006   0.926  13.974   9.240  0.1336  0.1087  0.0987
  538ERGO    R4 8007   1.009  13.745   9.075 -0.1976 -0.0297  0.1333
  538ERGO    R5 8008   1.089  13.947   9.066  0.1597 -0.1695  0.1666
  538ERGO    C1 8009   0.965  13.909   8.708  0.2398  0.0600  0.1142
  538ERGO    C2 8010   0.972  13.746   8.453  0.0457  0.1376 -0.2368
  539ERGO   ROH 8011   0.650   0.340   9.575 -0.1952  0.1337  0.0469
  539ERGO    R1 8012   0.621   0.367   9.294 -0.1678  0.0745  0.0379
  539ERGO    R2 8013   0.809   0.272   9.115 -0.1137  0.1006  0.0772
  539ERGO    R3 8014   0.595   0.142   9.009 -0.0605  0.0143  0.0757
  539ERGO    R4 8015   0.754   0.226   8.777 -0.1461  0.1616  0.0744
  539ERGO    R5 8016   0.542   0.267   8.811 -0.1607  0.0377  0.1189
  539ERGO    C1 8017   0.521   0.078   8.480 -0.1150  0.1161  0.0714
  539ERGO    C2 8018   0.514  -0.277   8.340  0.2156 -0.0875  0.1222
  540ERGO   ROH 8019   5.604  11.785   9.924 -0.0978  0.0671 -0.0143
  540ERGO    R1 8020   5.750  11.625   9.742 -0.0667  0.1221 -0.0381
  540ERGO    R2 8021   5.638  11.521   9.512 -0.0599  0.0943 -0.0290
  540ERGO    R3 8022   5.848  11.644   9.392 -0.1145  0.1681 -0.0492
  540ERGO    R4 8023   5.748  11.455   9.191  0.0757 -0.0368  0.0434
  540ERGO    R5 8024   5.953  11.471   9.264  0.0458  0.1578  0.0919
  540ERGO    C1 8025   6.009  11.532   8.892  0.1034 -0.0437  0.0666
  540ERGO    C2 8026   6.042  11.299   8.507 -0.0431  0.0317  0.0986
  541ERGO   ROH 8027  15.325   5.887   9.941 -0.1462  0.1484 -0.0604
  541ERGO    R1 8028  15.214   5.973   9.695 -0.1232  0.0573 -0.1050
  541ERGO    R2 8029  15.122   6.231   9.655 -0.3471 -0.0164 -0.1335
  541ERGO    R3 8030  15.291   6.224   9.443 -0.2433  0.1419 -0.0551
  541ERGO    R4 8031  15.129   6.464   9.400 -0.4184 -0.0033 -0.1223
  541ERGO    R5 8032  15.160   6.302   9.259 -0.2138  0.0365 -0.1126
  541ERGO    C1 8033  15.292   6.594   9.053 -0.3623  0.1529 -0.0421
  541ERGO    C2 8034  15.404   6.881   8.904 -0.1830  0.0786 -0.1191
  542ERGO   ROH 8035  13.403   1.644   9.771  0.1877  0.1157 -0.1020
  542ERGO    R1 8036  13.518   1.769   9.545  0.2331 -0.1696 -0.2412
  542ERGO    R2 8037  13.469   1.684   9.286 -0.3865  0.0048 -0.1965
  542ERGO    R3 8038  13.398   1.944   9.249  0.2962  0.2373 -0.0342
  542ERGO    R4 8039  13.434   1.837   8.978 -0.5305  0.1173 -0.1256
  542ERGO    R5 8040  13.528   2.015   9.061  0.1637 -0.1436 -0.2837
  542ERGO    C1 8041  13.346   2.169   8.764  0.0264  0.4011  0.0681
  542ERGO    C2 8042  13.242   2.220   8.405 -0.0736 -0.0103  0.0215
  543ERGO   ROH 8043  14.017   5.895   9.940 -0.1357  0.0322 -0.0079
  543ERGO    R1 8044  14.137   5.976   9.697 -0.0060 -0.0023  0.0436
  543ERGO    R2 8045  13.992   6.086   9.489  0.0900 -0.1147 -0.0850
  543ERGO    R3 8046  14.174   6.287   9.512  0.0082 -0.0466 -0.0281
  543ERGO    R4 8047  14.027   6.347   9.265  0.2031 -0.2184 -0.1896
  543ERGO    R5 8048  14.243   6.330   9.286  0.1916 -0.1408  0.0086
  543ERGO    C1 8049  14.217   6.688   9.156  0.1921 -0.2149 -0.1971
  543ERGO    C2 8050  14.271   7.062   8.985  0.2190 -0.1198  0.1174
  544ERGO   ROH 8051   9.859  10.655  10.043  0.1273 -0.3009 -0.0926
  544ERGO    R1 8052   9.882  10.765   9.783 -0.0369 -0.1442 -0.0416
  544ERGO    R2 8053   9.940  10.611   9.560 -0.0047  0.0176 -0.1394
  544ERGO    R3 8054   9.713  10.725   9.463 -0.1161 -0.0867 -0.0093
  544ERGO    R4 8055   9.879  10.681   9.227 -0.2512 -0.0757 -0.1173
  544ERGO    R5 8056   9.788  10.869   9.288 -0.2825 -0.0924 -0.0925
  544ERGO    C1 8057   9.630  10.829   8.943 -0.4994 -0.2278  0.0179
  544ERGO    C2 8058   9.424  10.650   8.718 -0.3359 -0.0787 -0.1206
  545ERGO   ROH 8059   1.162  12.711   9.770 -0.0262 -0.0439 -0.1375
  545ERGO    R1 8060   1.194  12.847   9.524 -0.1137 -0.0509 -0.1523
  545ERGO    R2 8061   1.404  12.795   9.352 -0.0020  0.1633 -0.0793
  545ERGO    R3 8062   1.205  12.755   9.172  0.0955 -0.1043 -0.1344
  545ERGO    R4 8063   1.414  12.897   9.022 -0.0470  0.1896 -0.0730
  545ERGO    R5 8064   1.204  12.955   9.039 -0.1381 -0.0941 -0.1265
  545ERGO    C1 8065   1.232  12.919   8.661  0.0184 -0.0463 -0.1211
  545ERGO    C2 8066   1.257  12.865   8.404 -0.0580 -0.1034  0.0034
  546ERGO   ROH 8067  15.098  17.398  10.122  0.0481 -0.1794  0.0655
  546ERGO    R1 8068  14.933  17.430   9.894  0.0368 -0.1308  0.0793
  546ERGO    R2 8069  14.997  17.603   9.687  0.0215 -0.0759  0.1145
  546ERGO    R3 8070  14.966  17.379   9.535  0.0266 -0.0429  0.0671
  546ERGO    R4 8071  15.032  17.589   9.343 -0.0861  0.0136  0.1004
  546ERGO    R5 8072  14.860  17.456   9.336 -0.0531 -0.0219  0.1212
  546ERGO    C1 8073  15.023  17.372   9.001 -0.1438  0.0965  0.0476
  546ERGO    C2 8074  15.023  17.190   8.685  0.0002 -0.0648 -0.0807
  547ERGO   ROH 8075  16.460   0.118   9.480 -0.0394 -0.2232 -0.0074
  547ERGO    R1 8076  16.267   0.173   9.280 -0.0160 -0.3424 -0.0633
  547ERGO    R2 8077  16.324   0.321   9.054 -0.0776 -0.1852  0.0236
  547ERGO    R3 8078  16.226   0.103   8.925  0.2043 -0.2365 -0.1115
  547ERGO    R4 8079  16.283   0.297   8.712 -0.2657  0.0694  0.0255
  547ERGO    R5 8080  16.093   0.194   8.747 -0.0736 -0.2880  0.0631
  547ERGO    C1 8081  16.166   0.078   8.391 -0.1106  0.1694 -0.1002
  547ERGO    C2 8082  16.227  -0.203   8.250  0.2868 -0.2539  0.0340
  548ERGO   ROH 8083   5.031  17.795   9.770  0.2311 -0.1817  0.0492
  548ERGO    R1 8084   5.075  17.854   9.496  0.1035 -0.0729  0.0516
  548ERGO    R2 8085   5.327  17.899   9.393  0.0735 -0.2367 -0.0836
  548ERGO    R3 8086   5.257  17.702   9.220 -0.2059 -0.0810 -0.1547
  548ERGO    R4 8087   5.409  17.893   9.057  0.2134 -0.2943 -0.0498
  548ERGO    R5 8088   5.209  17.817   9.015  0.0825  0.0636 -0.1523
  548ERGO    C1 8089   5.390  17.705   8.699  0.0325 -0.1818 -0.0968
  548ERGO    C2 8090   5.423  17.679   8.411 -0.1208 -0.2843 -0.0736
  549ERGO   ROH 8091   9.132  16.922  10.221 -0.1654  0.1356  0.0407
  549ERGO    R1 8092   9.114  16.850   9.948 -0.0930  0.0522  0.0566
  549ERGO    R2 8093   9.051  17.031   9.749 -0.1582 -0.0301 -0.0039
  549ERGO    R3 8094   9.282  16.941   9.638 -0.0963  0.0541  0.0564
  549ERGO    R4 8095   9.100  16.982   9.411 -0.0151  0.0780  0.0009
  549ERGO    R5 8096   9.209  16.799   9.459  0.0062  0.0910 -0.0121
  549ERGO    C1 8097   9.345  16.868   9.109  0.1262  0.2204  0.0601
  549ERGO    C2 8098   9.328  16.875   8.754 -0.0052  0.3053 -0.2285
  550ERGO   ROH 8099  11.031   1.486  10.004  0.2861  0.1174 -0.0151
  550ERGO    R1 8100  10.960   1.411   9.741  0.3603 -0.0287  0.0051
  550ERGO    R2 8101  10.835   1.583   9.565 -0.1050 -0.2911  0.0582
  550ERGO    R3 8102  11.043   1.518   9.403 -0.0023  0.1942 -0.0171
  550ERGO    R4 8103  10.831   1.607   9.220 -0.3048 -0.3541  0.0550
  550ERGO    R5 8104  10.941   1.418   9.212  0.1617 -0.0947  0.0436
  550ERGO    C1 8105  11.025   1.560   8.868 -0.3247  0.0649 -0.0175
  550ERGO    C2 8106  10.908   1.690   8.683  0.0095  0.1371  0.0850
  551ERGO   ROH 8107   6.004  11.966   9.077 -0.1109 -0.1620 -0.0016
  551ERGO    R1 8108   6.005  12.079   8.818 -0.0388 -0.0590  0.0429
  551ERGO    R2 8109   5.891  11.953   8.600  0.0142  0.0308 -0.0381
  551ERGO    R3 8110   5.756  12.188   8.576  0.0284  0.0449  0.0201
  551ERGO    R4 8111   5.630  12.010   8.380 -0.1213  0.0375  0.1224
  551ERGO    R5 8112   5.713  12.208   8.341 -0.1207  0.0218  0.0452
  551ERGO    C1 8113   5.352  12.264   8.229 -0.1868  0.0546  0.2705
  551ERGO    C2 8114   5.215  12.379   7.950 -0.0221 -0.0115 -0.4796
  552ERGO   ROH 8115   5.080   9.803   9.945 -0.2513 -0.2239 -0.0291
  552ERGO    R1 8116   4.994   9.833   9.676  0.0604  0.1039 -0.0998
  552ERGO    R2 8117   5.166   9.910   9.474  0.4791 -0.3386  0.0631
  552ERGO    R3 8118   5.075   9.683   9.355 -0.0987 -0.0592 -0.0641
  552ERGO    R4 8119   5.159   9.854   9.133  0.5628 -0.2225  0.0423
  552ERGO    R5 8120   4.964   9.759   9.157  0.2559  0.3240 -0.1265
  552ERGO    C1 8121   5.069   9.608   8.823  0.0692  0.1074 -0.0891
  552ERGO    C2 8122   5.066   9.663   8.539 -0.1694  0.0675  0.0531
  553ERGO   ROH 8123  12.089   1.192   9.975  0.2996  0.3501  0.0224
  553ERGO    R1 8124  12.179   1.077   9.733  0.4447  0.3456  0.0769
  553ERGO    R2 8125  12.017   1.053   9.510  0.4088 -0.1304  0.1401
  553ERGO    R3 8126  12.221   1.186   9.388  0.1189  0.1843 -0.0173
  553ERGO    R4 8127  12.099   1.027   9.175  0.4600 -0.3511  0.1689
  553ERGO    R5 8128  12.309   1.029   9.231  0.4666  0.1834  0.1707
  553ERGO    C1 8129  12.338   1.136   8.866  0.2177 -0.1841  0.0381
  553ERGO    C2 8130  12.286   1.090   8.562  0.0307  0.0845  0.0650
  554ERGO   ROH 8131  16.825  10.816   9.654  0.1540  0.0840 -0.1084
  554ERGO    R1 8132  16.722  10.648   9.450  0.0555  0.0514 -0.0330
  554ERGO    R2 8133  16.531  10.733   9.270  0.0026  0.0380  0.0134
  554ERGO    R3 8134  16.713  10.648   9.087 -0.0744 -0.0319 -0.0302
  554ERGO    R4 8135  16.464  10.681   8.935 -0.1510 -0.1433  0.0713
  554ERGO    R5 8136  16.589  10.502   8.943 -0.1242 -0.1222  0.1039
  554ERGO    C1 8137  16.596  10.571   8.568 -0.3125 -0.3146  0.0640
  554ERGO    C2 8138  16.563  10.455   8.245  0.0307  0.1377  0.0424
  555ERGO   ROH 8139   2.894  11.853   9.701 -0.0490 -0.1269 -0.0262
  555ERGO    R1 8140   2.913  11.975   9.446 -0.1963 -0.1696 -0.0582
  555ERGO    R2 8141   3.152  12.001   9.311 -0.2071  0.1713 -0.0208
  555ERGO    R3 8142   3.016  11.874   9.112  0.0262 -0.1062 -0.0101
  555ERGO    R4 8143   3.177  12.077   8.975 -0.2803  0.1269 -0.0367
  555ERGO    R5 8144   2.962  12.049   8.957 -0.2367 -0.2306 -0.0640
  555ERGO    C1 8145   3.065  12.003   8.593 -0.1039 -0.1595 -0.0359
  555ERGO    C2 8146   3.181  12.273   8.348  0.4276  0.0190 -0.1102
  556ERGO   ROH 8147  12.403   8.536  10.041 -0.1962 -0.0816  0.1649
  556ERGO    R1 8148  12.437   8.366   9.816 -0.0543 -0.0075  0.1296
  556ERGO    R2 8149  12.227   8.296   9.649  0.0310 -0.0403  0.0392
  556ERGO    R3 8150  12.392   8.393   9.456  0.0614  0.0731  0.1198
  556ERGO    R4 8151  12.220   8.203   9.317  0.2609 -0.0536  0.0355
  556ERGO    R5 8152  12.437   8.205   9.316  0.2637  0.0989  0.1442
  556ERGO    C1 8153  12.370   8.240   8.942  0.4234  0.0451  0.1092
  556ERGO    C2 8154  12.418   8.180   8.525 -0.2451 -0.3230  0.0368
  557ERGO   ROH 8155   1.816  10.587   9.505  0.0951 -0.0921 -0.1683
  557ERGO    R1 8156   1.734  10.411   9.300 -0.0250 -0.1354 -0.0852
  557ERGO    R2 8157   1.481  10.420   9.188 -0.0024  0.0227 -0.1306
  557ERGO    R3 8158   1.620  10.441   8.955  0.0566 -0.2238 -0.1197
  557ERGO    R4 8159   1.339  10.453   8.875  0.0795  0.1537 -0.1541
  557ERGO    R5 8160   1.490  10.318   8.797 -0.0997 -0.0780 -0.1063
  557ERGO    C1 8161   1.387  10.493   8.474  0.1826 -0.0014 -0.1574
  557ERGO    C2 8162   1.118  10.443   8.238  0.0711 -0.2483  0.0191
  558ERGO   ROH 8163   1.489   0.829   9.695 -0.3189  0.0980  0.0361
  558ERGO    R1 8164   1.684   0.815   9.490 -0.2419  0.2313  0.0983
  558ERGO    R2 8165   1.703   0.600   9.317  0.0750  0.1547  0.2144
  558ERGO    R3 8166   1.685   0.794   9.127 -0.1194  0.0361  0.1094
  558ERGO    R4 8167   1.845   0.583   9.002  0.2028  0.1872  0.2701
  558ERGO    R5 8168   1.899   0.793   9.020 -0.0827  0.2685  0.1819
  558ERGO    C1 8169   1.911   0.754   8.641  0.0947  0.0948  0.2040
  558ERGO    C2 8170   2.010   0.643   8.356 -0.2458 -0.3042 -0.3389
  559ERGO   ROH 8171  13.582  15.977   9.812 -0.3115 -0.1483  0.0276
  559ERGO    R1 8172  13.429  16.030   9.580 -0.1661  0.0497 -0.0267
  559ERGO    R2 8173  13.465  16.256   9.425  0.1743  0.0106 -0.0132
  559ERGO    R3 8174  13.493  16.075   9.225  0.0176 -0.0255 -0.0034
  559ERGO    R4 8175  13.436  16.327   9.088  0.2339  0.0141 -0.0178
  559ERGO    R5 8176  13.329  16.139   9.063  0.0724  0.1042 -0.0066
  559ERGO    C1 8177  13.444  16.198   8.704  0.1215 -0.0177 -0.0114
  559ERGO    C2 8178  13.512  16.289   8.343  0.0710  0.1492 -0.1040
  560ERGO   ROH 8179   2.847   6.214   9.856  0.0015 -0.2391 -0.0356
  560ERGO    R1 8180   2.725   6.006   9.708 -0.2424 -0.1333  0.0123
  560ERGO    R2 8181   2.462   6.018   9.624 -0.1867  0.2279 -0.1281
  560ERGO    R3 8182   2.572   5.970   9.380 -0.1293 -0.0686 -0.0483
  560ERGO    R4 8183   2.285   5.997   9.328 -0.0586  0.4897 -0.2275
  560ERGO    R5 8184   2.412   5.830   9.269 -0.3486  0.2097 -0.0964
  560ERGO    C1 8185   2.284   5.939   8.927  0.0698  0.3639 -0.2105
  560ERGO    C2 8186   2.194   5.971   8.576 -0.0494  0.1812  0.0324
  561ERGO   ROH 8187  12.923  13.911   9.755  0.1964  0.0112  0.0841
  561ERGO    R1 8188  12.973  14.050   9.514  0.1121 -0.1154 -0.0077
  561ERGO    R2 8189  13.216  14.169   9.459  0.0224  0.0410 -0.0601
  561ERGO    R3 8190  13.203  14.018   9.233  0.1701 -0.1269  0.0400
  561ERGO    R4 8191  13.459  14.160   9.214 -0.0433  0.2605 -0.1357
  561ERGO    R5 8192  13.301  14.157   9.064 -0.0986 -0.0772 -0.0827
  561ERGO    C1 8193  13.589  14.014   8.859  0.0571  0.2306 -0.0859
  561ERGO    C2 8194  13.838  14.013   8.581 -0.0824  0.1099 -0.2937
  562ERGO   ROH 8195   1.642   8.925  10.042  0.1525 -0.0985 -0.0591
  562ERGO    R1 8196   1.570   8.742   9.839 -0.1757 -0.0791  0.0348
  562ERGO    R2 8197   1.320   8.742   9.721 -0.1568  0.3625 -0.0171
  562ERGO    R3 8198   1.464   8.762   9.491 -0.0578 -0.0686 -0.0019
  562ERGO    R4 8199   1.184   8.755   9.404 -0.0691  0.4622 -0.0515
  562ERGO    R5 8200   1.345   8.625   9.334 -0.3152  0.0800  0.0554
  562ERGO    C1 8201   1.240   8.782   9.003  0.0750  0.1154 -0.0573
  562ERGO    C2 8202   1.320   9.100   8.822  0.1403 -0.1384  0.0882
  563ERGO   ROH 8203   6.470  11.109   8.321 -0.1891  0.1070 -0.2672
  563ERGO    R1 8204   6.701  10.979   8.222 -0.1525  0.1144 -0.1938
  563ERGO    R2 8205   6.955  11.079   8.260 -0.1683  0.1445 -0.1466
  563ERGO    R3 8206   7.002  10.832   8.362 -0.1732  0.1637 -0.0993
  563ERGO    R4 8207   7.264  10.924   8.267 -0.2249  0.0163 -0.3800
  563ERGO    R5 8208   7.166  10.737   8.215 -0.3517  0.0391 -0.2172
  563ERGO    C1 8209   7.488  10.602   8.368 -0.2625 -0.0403 -0.4715
  563ERGO    C2 8210   7.802  10.731   8.485 -0.1403 -0.1383  0.1354
  564ERGO   ROH 8211   6.546  15.761   9.408 -0.0620 -0.4181  0.0636
  564ERGO    R1 8212   6.602  15.853   9.146 -0.3315 -0.2169  0.0724
  564ERGO    R2 8213   6.831  15.783   9.009 -0.1966  0.3296 -0.0098
  564ERGO    R3 8214   6.654  15.702   8.819 -0.0769 -0.0171  0.0186
  564ERGO    R4 8215   6.882  15.807   8.668 -0.2295  0.2598 -0.0196
  564ERGO    R5 8216   6.674  15.866   8.645 -0.3202 -0.0598 -0.0509
  564ERGO    C1 8217   6.746  15.746   8.291 -0.1364 -0.1063  0.0014
  564ERGO    C2 8218   6.798  15.783   7.913 -0.1797 -0.4978 -0.1951
  565ERGO   ROH 8219   9.119   0.725   9.993 -0.0013  0.2296 -0.0154
  565ERGO    R1 8220   9.235   0.671   9.741  0.0794  0.2920  0.0082
  565ERGO    R2 8221   9.089   0.578   9.526  0.2146 -0.0376  0.0526
  565ERGO    R3 8222   9.197   0.793   9.400 -0.1193  0.0784 -0.0481
  565ERGO    R4 8223   9.127   0.608   9.184  0.4018 -0.2521  0.0516
  565ERGO    R5 8224   9.322   0.699   9.219  0.2031  0.1671  0.1210
  565ERGO    C1 8225   9.251   0.827   8.867  0.1975 -0.2680 -0.0434
  565ERGO    C2 8226   9.340   1.003   8.485  0.3854  0.0779 -0.1368
  566ERGO   ROH 8227   1.571  10.895   9.873 -0.0100  0.1181 -0.1369
  566ERGO    R1 8228   1.431  10.847   9.632 -0.0115  0.0504 -0.1233
  566ERGO    R2 8229   1.410  11.036   9.432 -0.1182  0.0395 -0.1267
  566ERGO    R3 8230   1.512  10.837   9.277 -0.0396  0.0833 -0.1299
  566ERGO    R4 8231   1.468  11.060   9.092  0.0908  0.1429 -0.0844
  566ERGO    R5 8232   1.394  10.856   9.069  0.0896  0.1577 -0.1956
  566ERGO    C1 8233   1.598  10.888   8.749  0.2862  0.2442 -0.0629
  566ERGO    C2 8234   1.557  11.154   8.438 -0.0958  0.0782  0.2817
  567ERGO   ROH 8235   0.606  16.493   9.542  0.0122  0.1731  0.0148
  567ERGO    R1 8236   0.610  16.528   9.261  0.0031  0.0809  0.0028
  567ERGO    R2 8237   0.617  16.316   9.084  0.0710  0.0234  0.0736
  567ERGO    R3 8238   0.397  16.438   8.980  0.0333 -0.0797  0.0308
  567ERGO    R4 8239   0.574  16.396   8.751  0.1183  0.0517  0.0738
  567ERGO    R5 8240   0.483  16.584   8.812 -0.0007 -0.0069  0.0775
  567ERGO    C1 8241   0.342  16.557   8.459  0.1104 -0.0288  0.0340
  567ERGO    C2 8242   0.278  16.716   8.202 -0.1593  0.1470 -0.0308
  568ERGO   ROH 8243   7.155  11.148  10.236 -0.0166 -0.0985  0.0614
  568ERGO    R1 8244   7.136  11.244   9.970 -0.1168 -0.1569  0.0478
  568ERGO    R2 8245   7.343  11.223   9.789 -0.0906  0.0447  0.0586
  568ERGO    R3 8246   7.154  11.102   9.635  0.0453 -0.1842  0.0658
  568ERGO    R4 8247   7.329  11.241   9.444 -0.1694  0.1134  0.0648
  568ERGO    R5 8248   7.112  11.259   9.459 -0.2022 -0.1910  0.1101
  568ERGO    C1 8249   7.143  11.138   9.099 -0.0876 -0.0615  0.0751
  568ERGO    C2 8250   7.192  11.050   8.744 -0.2508  0.0817  0.0987
  569ERGO   ROH 8251   1.328  11.924   9.335  0.0306 -0.0673  0.0965
  569ERGO    R1 8252   1.526  11.904   9.134 -0.1265 -0.0208 -0.0657
  569ERGO    R2 8253   1.512  11.719   8.930 -0.2676  0.0000 -0.0767
  569ERGO    R3 8254   1.540  11.939   8.772 -0.4212  0.0219 -0.0752
  569ERGO    R4 8255   1.595  11.711   8.595 -0.0264  0.0714 -0.0208
  569ERGO    R5 8256   1.724  11.884   8.628 -0.2548  0.2293  0.0540
  569ERGO    C1 8257   1.670  11.912   8.251 -0.0301  0.1334  0.0131
  569ERGO    C2 8258   1.652  12.010   7.949  0.5082 -0.0753  0.4086
  570ERGO   ROH 8259  17.660  17.519   9.666  0.0200  0.1609 -0.1876
  570ERGO    R1 8260  17.604  17.419   9.408  0.0679 -0.0566 -0.1176
  570ERGO    R2 8261  17.802  17.367   9.222  0.1026 -0.1667 -0.0613
  570ERGO    R3 8262  17.687  17.121   9.216  0.1515 -0.1937  0.1301
  570ERGO    R4 8263  17.781  17.164   8.942 -0.2387 -0.2122 -0.0052
  570ERGO    R5 8264  17.579  17.110   9.003 -0.1413 -0.2522  0.2803
  570ERGO    C1 8265  17.661  16.816   8.774 -0.3912 -0.2643  0.2071
  570ERGO    C2 8266  17.740  16.472   8.727 -0.0662 -0.1230 -0.0338
  571ERGO   ROH 8267   4.478   1.394   9.791  0.2601  0.0917  0.1549
  571ERGO    R1 8268   4.561   1.466   9.530  0.0625 -0.0899  0.0388
  571ERGO    R2 8269   4.442   1.364   9.303 -0.2778 -0.0592  0.1987
  571ERGO    R3 8270   4.412   1.627   9.240 -0.0804 -0.0506  0.1326
  571ERGO    R4 8271   4.504   1.501   8.992 -0.3924 -0.2277  0.0999
  571ERGO    R5 8272   4.594   1.673   9.091 -0.1504 -0.2737 -0.0285
  571ERGO    C1 8273   4.512   1.827   8.751 -0.2738 -0.3178 -0.0198
  571ERGO    C2 8274   4.637   2.106   8.524  0.2207  0.2079 -0.1363
  572ERGO   ROH 8275   3.510  10.171   9.605 -0.0173  0.0724  0.0027
  572ERGO    R1 8276   3.464  10.068   9.345  0.1305 -0.0458  0.0224
  572ERGO    R2 8277   3.367  10.224   9.139 -0.1095 -0.2274 -0.0039
  572ERGO    R3 8278   3.589  10.135   9.010  0.0268  0.0802  0.0075
  572ERGO    R4 8279   3.435  10.274   8.804 -0.2593 -0.2938 -0.0452
  572ERGO    R5 8280   3.510  10.070   8.794  0.0923 -0.1776  0.0562
  572ERGO    C1 8281   3.683  10.219   8.487 -0.2186 -0.0439 -0.0583
  572ERGO    C2 8282   3.523  10.391   8.195 -0.0424 -0.2394  0.0726
  573ERGO   ROH 8283   5.087   0.543   9.889 -0.0294 -0.0959 -0.0522
  573ERGO    R1 8284   5.309   0.648   9.748 -0.0863 -0.1170 -0.1589
  573ERGO    R2 8285   5.281   0.788   9.511 -0.1968 -0.0091 -0.0862
  573ERGO    R3 8286   5.424   0.977   9.644 -0.0412 -0.1150 -0.1010
  573ERGO    R4 8287   5.377   1.093   9.378 -0.0278 -0.0571 -0.0755
  573ERGO    R5 8288   5.570   1.070   9.478 -0.0200 -0.1928 -0.1239
  573ERGO    C1 8289   5.567   1.448   9.426  0.2168 -0.1846 -0.0832
  573ERGO    C2 8290   5.588   1.726   9.157  0.1793  0.0229  0.3299
  574ERGO   ROH 8291   4.449   3.151   9.213  0.1975 -0.1846 -0.0050
  574ERGO    R1 8292   4.318   3.206   8.969  0.1099 -0.1588  0.0471
  574ERGO    R2 8293   4.388   3.083   8.731  0.1014 -0.0504 -0.0128
  574ERGO    R3 8294   4.124   3.018   8.725  0.1266 -0.1611  0.0355
  574ERGO    R4 8295   4.214   2.992   8.447  0.0240  0.1523 -0.0318
  574ERGO    R5 8296   4.046   3.110   8.518 -0.0007  0.0092  0.1568
  574ERGO    C1 8297   3.865   2.879   8.275  0.0026  0.1664  0.0025
  574ERGO    C2 8298   3.929   2.661   8.038  0.1018 -0.0832 -0.2698
  575ERGO   ROH 8299  17.927  13.512   9.616 -0.2170  0.0278 -0.0090
  575ERGO    R1 8300  17.794  13.504   9.366 -0.1112  0.1028 -0.0685
  575ERGO    R2 8301  17.851  13.681   9.162 -0.0577  0.1947  0.0262
  575ERGO    R3 8302  17.886  13.453   9.018  0.0432  0.2588 -0.0523
  575ERGO    R4 8303  17.736  13.629   8.840 -0.2115  0.1875  0.0816
  575ERGO    R5 8304  17.682  13.426   8.897 -0.0124  0.1259  0.0646
  575ERGO    C1 8305  17.702  13.385   8.518 -0.2062  0.2437  0.0402
  575ERGO    C2 8306  17.542  13.272   8.245 -0.3609  0.3957  0.1236
  576ERGO   ROH 8307   6.556   8.857   9.978 -0.0913  0.0368  0.1445
  576ERGO    R1 8308   6.510   8.665   9.776 -0.0300  0.0005  0.1639
  576ERGO    R2 8309   6.497   8.731   9.508 -0.0985 -0.0230  0.1561
  576ERGO    R3 8310   6.689   8.540   9.484 -0.0098  0.0670  0.1499
  576ERGO    R4 8311   6.512   8.497   9.254 -0.0582 -0.1023  0.2316
  576ERGO    R5 8312   6.572   8.348   9.402  0.0682 -0.0203  0.2544
  576ERGO    C1 8313   6.701   8.181   9.084  0.0485 -0.0639  0.2697
  576ERGO    C2 8314   6.656   7.940   8.760 -0.1472 -0.0423 -0.3624
  577ERGO   ROH 8315   6.534   2.475  10.290  0.0762 -0.0351  0.0043
  577ERGO    R1 8316   6.452   2.638  10.074  0.1668  0.0714  0.0499
  577ERGO    R2 8317   6.632   2.760   9.904  0.2321 -0.1445 -0.0353
  577ERGO    R3 8318   6.485   2.634   9.712 -0.0202  0.0383  0.0316
  577ERGO    R4 8319   6.649   2.830   9.565  0.2708 -0.2569 -0.0573
  577ERGO    R5 8320   6.432   2.808   9.555  0.2248  0.0916  0.0000
  577ERGO    C1 8321   6.521   2.752   9.189  0.0566 -0.1508 -0.0072
  577ERGO    C2 8322   6.601   2.618   8.928 -0.0763 -0.0443  0.1765
  578ERGO   ROH 8323  16.096   1.718   9.682 -0.2548  0.1073  0.0902
  578ERGO    R1 8324  16.170   1.891   9.470 -0.2551  0.0525  0.0445
  578ERGO    R2 8325  16.431   1.972   9.428 -0.2815  0.1963  0.1396
  578ERGO    R3 8326  16.387   1.874   9.178 -0.0940  0.0461  0.1639
  578ERGO    R4 8327  16.610   2.062   9.147 -0.2574  0.2406  0.1695
  578ERGO    R5 8328  16.424   2.062   9.034 -0.2144  0.0175  0.0968
  578ERGO    C1 8329  16.674   2.023   8.749 -0.0676  0.1255  0.2096
  578ERGO    C2 8330  16.983   1.982   8.625 -0.2346  0.0660  0.1030
  579ERGO   ROH 8331   8.881   7.802   9.905  0.3327 -0.4937 -0.0119
  579ERGO    R1 8332   8.961   7.781   9.634  0.0435 -0.1608 -0.1313
  579ERGO    R2 8333   8.909   7.978   9.447  0.0276  0.1725  0.2138
  579ERGO    R3 8334   9.177   7.966   9.407 -0.0184 -0.0109 -0.0698
  579ERGO    R4 8335   9.065   8.021   9.142 -0.2736 -0.1129  0.0118
  579ERGO    R5 8336   9.201   7.859   9.194 -0.3121 -0.1615 -0.0332
  579ERGO    C1 8337   9.409   8.035   8.927 -0.4920 -0.4510 -0.3722
  579ERGO    C2 8338   9.574   8.174   8.691 -0.3833  0.1530  0.1915
  580ERGO   ROH 8339  16.605   6.442  10.190  0.0533  0.1634 -0.0417
  580ERGO    R1 8340  16.696   6.463   9.922  0.0272  0.0350 -0.0620
  580ERGO    R2 8341  16.811   6.251   9.787 -0.0056 -0.0399  0.0183
  580ERGO    R3 8342  16.618   6.306   9.604 -0.0233 -0.1025  0.0189
  580ERGO    R4 8343  16.836   6.190   9.448  0.0138 -0.0052  0.0140
  580ERGO    R5 8344  16.737   6.380   9.411 -0.0562 -0.0451  0.0252
  580ERGO    C1 8345  16.670   6.206   9.078  0.0086 -0.0438  0.0118
  580ERGO    C2 8346  16.420   6.065   8.951 -0.0329 -0.0602 -0.1929
  581ERGO   ROH 8347  17.925   1.562   9.792  0.0632  0.2229  0.1872
  581ERGO    R1 8348  18.085   1.695   9.600  0.0350  0.1618  0.1216
  581ERGO    R2 8349  18.218   1.561   9.398  0.0865  0.0868  0.2086
  581ERGO    R3 8350  18.085   1.737   9.239  0.0473 -0.0426  0.0956
  581ERGO    R4 8351  18.318   1.655   9.081  0.2144  0.0998  0.2521
  581ERGO    R5 8352  18.259   1.859   9.128  0.0285  0.0684  0.1803
  581ERGO    C1 8353  18.252   1.874   8.747  0.2519 -0.0140  0.1711
  581ERGO    C2 8354  18.411   1.813   8.489  0.0917 -0.2329 -0.1621
  582ERGO   ROH 8355   1.059   1.970   9.789 -0.3271  0.2193 -0.0639
  582ERGO    R1 8356   1.146   1.917   9.524 -0.1114  0.2990 -0.0119
  582ERGO    R2 8357   0.970   1.893   9.312  0.0225 -0.0532 -0.0913
  582ERGO    R3 8358   1.127   2.086   9.202 -0.2483  0.1935 -0.0602
  582ERGO    R4 8359   0.991   1.962   8.974  0.0994 -0.1344 -0.1031
  582ERGO    R5 8360   1.206   1.989   8.998  0.0469  0.2559  0.0182
  582ERGO    C1 8361   1.151   2.183   8.674 -0.1101  0.0499 -0.0806
  582ERGO    C2 8362   1.064   2.169   8.451 -0.1732  0.1551 -0.2228
  583ERGO   ROH 8363  15.798   4.436   9.783  0.2241 -0.1447  0.0996
  583ERGO    R1 8364  15.833   4.440   9.502  0.1545 -0.0800  0.0922
  583ERGO    R2 8365  15.705   4.623   9.338 -0.0016 -0.1385  0.1523
  583ERGO    R3 8366  15.959   4.675   9.254 -0.0549  0.0378  0.0940
  583ERGO    R4 8367  15.787   4.772   9.038 -0.1771 -0.1623  0.0909
  583ERGO    R5 8368  15.953   4.633   9.019 -0.0658 -0.0395  0.1052
  583ERGO    C1 8369  16.072   4.909   8.784 -0.3295 -0.0106  0.0003
  583ERGO    C2 8370  16.301   5.142   8.653  0.1462  0.0007 -0.1587
  584ERGO   ROH 8371   5.189   2.223  10.232  0.3847  0.1366  0.1322
  584ERGO    R1 8372   5.040   2.249   9.993  0.2701 -0.1834  0.1648
  584ERGO    R2 8373   4.918   2.485   9.918 -0.0814 -0.3838  0.0870
  584ERGO    R3 8374   5.060   2.448   9.689 -0.1022 -0.2979  0.0600
  584ERGO    R4 8375   4.835   2.619   9.611 -0.1038 -0.2560  0.1482
  584ERGO    R5 8376   4.893   2.431   9.518 -0.1189 -0.2225  0.0671
  584ERGO    C1 8377   4.920   2.663   9.217 -0.1364 -0.1010  0.1583
  584ERGO    C2 8378   5.099   2.946   9.013  0.1840  0.1100  0.0197
  585ERGO   ROH 8379  17.544  16.402   9.655  0.0912 -0.1611 -0.0892
  585ERGO    R1 8380  17.576  16.228   9.434  0.0133 -0.1523 -0.1077
  585ERGO    R2 8381  17.363  16.138   9.283 -0.0196  0.0251 -0.1689
  585ERGO    R3 8382  17.509  16.238   9.076  0.1001 -0.0495 -0.1214
  585ERGO    R4 8383  17.310  16.064   8.949 -0.0953  0.2295 -0.2036
  585ERGO    R5 8384  17.526  16.056   8.922 -0.1021 -0.0036 -0.2002
  585ERGO    C1 8385  17.416  16.115   8.562 -0.0267  0.2784 -0.1792
  585ERGO    C2 8386  17.228  16.202   8.338 -0.3257  0.0954  0.1401
  586ERGO   ROH 8387   7.797  15.564   9.639 -0.1244 -0.1016 -0.0275
  586ERGO    R1 8388   7.695  15.548   9.376 -0.0932  0.2869 -0.0702
  586ERGO    R2 8389   7.748  15.739   9.183  0.6184  0.1727 -0.0191
  586ERGO    R3 8390   7.833  15.525   9.040 -0.0288 -0.1059 -0.0212
  586ERGO    R4 8391   7.793  15.736   8.841  0.8123  0.1100  0.0063
  586ERGO    R5 8392   7.708  15.535   8.836  0.1136  0.3840 -0.0944
  586ERGO    C1 8393   7.900  15.532   8.506  0.3176 -0.1880  0.0192
  586ERGO    C2 8394   7.918  15.612   8.110 -0.0016 -0.0780 -0.1798
  587ERGO   ROH 8395   6.970   0.246   9.900  0.1192 -0.0241  0.0123
  587ERGO    R1 8396   6.902   0.218   9.627  0.1991 -0.0885 -0.0032
  587ERGO    R2 8397   6.640   0.230   9.537  0.1926 -0.3346 -0.0591
  587ERGO    R3 8398   6.741   0.421   9.372  0.0546 -0.2343 -0.0252
  587ERGO    R4 8399   6.528   0.295   9.216  0.0679 -0.2423  0.0037
  587ERGO    R5 8400   6.735   0.323   9.154  0.0216 -0.1379 -0.0576
  587ERGO    C1 8401   6.557   0.512   8.875 -0.1343 -0.0944  0.0722
  587ERGO    C2 8402   6.536   0.790   8.765 -0.4536  0.0781  0.2282
  588ERGO   ROH 8403   5.084  12.606   9.981  0.0000 -0.0544 -0.1036
  588ERGO    R1 8404   4.981  12.539   9.726 -0.1482  0.0963 -0.0840
  588ERGO    R2 8405   4.813  12.322   9.686 -0.0540  0.0413 -0.1340
  588ERGO    R3 8406   4.652  12.509   9.574 -0.2454  0.0399  0.1272
  588ERGO    R4 8407   4.594  12.263   9.426  0.0720  0.1820 -0.2755
  588ERGO    R5 8408   4.651  12.455   9.341 -0.1254  0.3951  0.0325
  588ERGO    C1 8409   4.314  12.404   9.169 -0.0344  0.2626 -0.1125
  588ERGO    C2 8410   3.974  12.291   9.196  0.1210 -0.0311  0.4946
  589ERGO   ROH 8411  11.558   4.935   9.988  0.0092 -0.1548  0.1334
  589ERGO    R1 8412  11.675   4.960   9.731  0.0547 -0.1751  0.1528
  589ERGO    R2 8413  11.663   4.759   9.542 -0.0291 -0.1366  0.1213
  589ERGO    R3 8414  11.558   4.956   9.386  0.0969 -0.0558  0.1357
  589ERGO    R4 8415  11.682   4.769   9.197 -0.1723 -0.2192  0.1092
  589ERGO    R5 8416  11.718   4.984   9.211  0.0507 -0.2484  0.0576
  589ERGO    C1 8417  11.596   4.960   8.850 -0.1375 -0.1915  0.1156
  589ERGO    C2 8418  11.535   4.970   8.438 -0.0669 -0.3070  0.2392
  590ERGO   ROH 8419   3.192   4.035   9.817 -0.0054 -0.0507  0.2014
  590ERGO    R1 8420   3.177   4.084   9.538  0.0363 -0.1134  0.1878
  590ERGO    R2 8421   3.386   4.196   9.395  0.0130 -0.0267  0.2160
  590ERGO    R3 8422   3.356   3.974   9.241  0.1704 -0.0759  0.2555
  590ERGO    R4 8423   3.462   4.177   9.059  0.1648 -0.0864  0.2530
  590ERGO    R5 8424   3.283   4.057   9.029  0.2294 -0.1637  0.2034
  590ERGO    C1 8425   3.479   3.957   8.718  0.4009 -0.1673  0.3117
  590ERGO    C2 8426   3.826   3.965   8.614  0.1306  0.1776  0.0794
  591ERGO   ROH 8427  13.079   6.549   8.341  0.0602  0.1202 -0.0585
  591ERGO    R1 8428  13.191   6.350   8.174  0.0487  0.0179  0.0558
  591ERGO    R2 8429  13.161   6.080   8.224 -0.2362  0.0465  0.0363
  591ERGO    R3 8430  13.067   6.076   7.969  0.0074  0.1202 -0.0581
  591ERGO    R4 8431  13.153   5.800   8.021 -0.1984  0.0628  0.0115
  591ERGO    R5 8432  13.214   5.926   7.854  0.0379  0.0422  0.0755
  591ERGO    C1 8433  13.060   5.634   7.663  0.0523  0.1415 -0.0915
  591ERGO    C2 8434  12.907   5.257   7.704 -0.0135 -0.2575 -0.0938
  592ERGO   ROH 8435   1.023   3.451   9.914 -0.1199 -0.1919 -0.1357
  592ERGO    R1 8436   0.859   3.662   9.820 -0.1752 -0.1811 -0.0152
  592ERGO    R2 8437   0.956   3.866   9.661 -0.1958  0.0128  0.2175
  592ERGO    R3 8438   0.752   3.791   9.497 -0.0863  0.0693  0.0522
  592ERGO    R4 8439   0.863   4.033   9.373  0.0607  0.0613  0.1605
  592ERGO    R5 8440   0.654   3.998   9.426  0.0101  0.0977 -0.0032
  592ERGO    C1 8441   0.619   4.059   9.051  0.3129  0.1427 -0.0279
  592ERGO    C2 8442   0.636   4.132   8.697 -0.0593  0.2539 -0.0157
  593ERGO   ROH 8443   7.925   2.798  10.486 -0.2847  0.0180 -0.0134
  593ERGO    R1 8444   7.887   2.741  10.211 -0.2098 -0.0601 -0.0082
  593ERGO    R2 8445   7.666   2.830  10.070 -0.0484  0.1189 -0.1562
  593ERGO    R3 8446   7.855   2.933   9.904  0.1490 -0.1546 -0.1088
  593ERGO    R4 8447   7.634   2.858   9.727  0.0721  0.1968 -0.1617
  593ERGO    R5 8448   7.842   2.798   9.707 -0.0139 -0.1204 -0.1210
  593ERGO    C1 8449   7.792   2.972   9.372  0.3276 -0.0147 -0.1204
  593ERGO    C2 8450   7.726   3.134   9.154 -0.1819  0.0087  0.1076
  594ERGO   ROH 8451   4.404  11.788   9.465 -0.0841  0.1620  0.1053
  594ERGO    R1 8452   4.317  11.935   9.239  0.0047  0.0756  0.0134
  594ERGO    R2 8453   4.465  11.950   9.006  0.0943 -0.0214  0.0595
  594ERGO    R3 8454   4.234  11.862   8.893  0.1335 -0.0611  0.0113
  594ERGO    R4 8455   4.410  11.919   8.666  0.1025  0.1343  0.0433
  594ERGO    R5 8456   4.208  11.996   8.696  0.0727  0.0298  0.0838
  594ERGO    C1 8457   4.161  11.818   8.362  0.1441  0.1879 -0.0114
  594ERGO    C2 8458   4.201  11.691   8.112  0.0727 -0.1738  0.1033
  595ERGO   ROH 8459  17.184   2.194   9.816  0.1587 -0.0874 -0.0799
  595ERGO    R1 8460  17.205   2.098   9.550  0.0554 -0.0027 -0.1188
  595ERGO    R2 8461  17.037   2.183   9.347 -0.0768  0.0012 -0.0076
  595ERGO    R3 8462  17.271   2.241   9.222 -0.1590  0.1154 -0.1128
  595ERGO    R4 8463  17.075   2.223   9.006 -0.2300 -0.0797 -0.0355
  595ERGO    R5 8464  17.263   2.115   9.019 -0.1535  0.0460 -0.0708
  595ERGO    C1 8465  17.317   2.300   8.690 -0.3965 -0.0196 -0.1505
  595ERGO    C2 8466  17.381   2.309   8.370 -0.1016  0.1249 -0.0991
  596ERGO   ROH 8467  16.938  12.311   9.844  0.0894 -0.0577  0.1180
  596ERGO    R1 8468  16.751  12.348   9.635  0.1436  0.0421  0.0865
  596ERGO    R2 8469  16.828  12.399   9.374  0.2180 -0.0778  0.0830
  596ERGO    R3 8470  16.671  12.184   9.320  0.0540  0.0314  0.1149
  596ERGO    R4 8471  16.779  12.265   9.060 -0.0686  0.0475  0.0705
  596ERGO    R5 8472  16.569  12.236   9.110 -0.0533  0.1567  0.1976
  596ERGO    C1 8473  16.604  11.984   8.825 -0.3891  0.2231  0.0931
  596ERGO    C2 8474  16.623  11.927   8.499  0.1300 -0.0070 -0.0248
  597ERGO   ROH 8475   5.340   8.865  10.149  0.3275  0.1865 -0.0360
  597ERGO    R1 8476   5.454   8.760   9.912  0.1643  0.1351 -0.0918
  597ERGO    R2 8477   5.321   8.580   9.750 -0.0016  0.2083 -0.0327
  597ERGO    R3 8478   5.374   8.763   9.557  0.0022  0.1836 -0.0567
  597ERGO    R4 8479   5.427   8.504   9.430 -0.3407  0.1402 -0.1344
  597ERGO    R5 8480   5.563   8.674   9.441 -0.1723  0.0189 -0.2283
  597ERGO    C1 8481   5.539   8.632   9.062 -0.5345  0.0774 -0.2161
  597ERGO    C2 8482   5.441   8.437   8.845  0.1908  0.2824 -0.0513
  598ERGO   ROH 8483   8.557  16.142  10.121 -0.1957  0.1529 -0.1558
  598ERGO    R1 8484   8.665  16.106   9.862 -0.1139  0.2536 -0.1363
  598ERGO    R2 8485   8.571  15.913   9.688  0.1729  0.0867 -0.1095
  598ERGO    R3 8486   8.543  16.125   9.519 -0.1044  0.0185 -0.1551
  598ERGO    R4 8487   8.632  15.904   9.348  0.2457  0.1041 -0.0977
  598ERGO    R5 8488   8.724  16.101   9.364 -0.0382  0.2461 -0.1193
  598ERGO    C1 8489   8.641  16.097   8.991  0.0277  0.0502 -0.1334
  598ERGO    C2 8490   8.666  16.202   8.552 -0.0322  0.0815  0.0454
  599ERGO   ROH 8491   0.097   5.298  10.118 -0.0263 -0.0904 -0.0080
  599ERGO    R1 8492   0.118   5.428   9.868 -0.2094 -0.0983 -0.0296
  599ERGO    R2 8493   0.361   5.490   9.752 -0.2862  0.3100  0.0022
  599ERGO    R3 8494   0.261   5.352   9.541 -0.0114  0.0817  0.0147
  599ERGO    R4 8495   0.413   5.573   9.421  0.0594 -0.0090 -0.0301
  599ERGO    R5 8496   0.204   5.521   9.381  0.1225 -0.0956 -0.2185
  599ERGO    C1 8497   0.349   5.491   9.030  0.5185 -0.4089 -0.0372
  599ERGO    C2 8498   0.553   5.430   8.842 -0.1340 -0.4345  0.0705
  600ERGO   ROH 8499   5.938  13.396   9.873 -0.0057 -0.1333  0.0356
  600ERGO    R1 8500   5.820  13.379   9.617 -0.0102 -0.0171  0.0279
  600ERGO    R2 8501   5.887  13.549   9.410  0.0869 -0.0079  0.0593
  600ERGO    R3 8502   5.933  13.316   9.277 -0.0331 -0.0080  0.0201
  600ERGO    R4 8503   5.922  13.522   9.067 -0.1346 -0.0062  0.0363
  600ERGO    R5 8504   5.805  13.338   9.075 -0.1550  0.0150  0.1030
  600ERGO    C1 8505   5.985  13.288   8.742 -0.3763 -0.0055 -0.0139
  600ERGO    C2 8506   6.212  13.227   8.536 -0.3255  0.0855 -0.0420
  601ERGO   ROH 8507   6.340  10.885  10.363 -0.0549 -0.2178 -0.2810
  601ERGO    R1 8508   6.235  11.007  10.130  0.0919 -0.2402 -0.3611
  601ERGO    R2 8509   6.164  11.274  10.121 -0.2804 -0.3291 -0.3065
  601ERGO    R3 8510   6.331  11.279   9.907  0.0205  0.0258 -0.0735
  601ERGO    R4 8511   6.140  11.497   9.858 -0.2961 -0.2878 -0.2689
  601ERGO    R5 8512   6.189  11.333   9.722  0.1826 -0.1668 -0.2581
  601ERGO    C1 8513   6.284  11.632   9.505 -0.0227  0.0695 -0.0284
  601ERGO    C2 8514   6.197  11.950   9.496  0.2762  0.0555  0.0029
  602ERGO   ROH 8515   5.200   5.917  10.242 -0.0910 -0.1649 -0.0749
  602ERGO    R1 8516   5.415   5.801  10.099  0.0129 -0.1471  0.0612
  602ERGO    R2 8517   5.419   5.787   9.823  0.0512 -0.4137  0.0662
  602ERGO    R3 8518   5.659   5.910   9.852 -0.0472 -0.1993 -0.0200
  602ERGO    R4 8519   5.672   5.786   9.587  0.1198 -0.5154  0.1408
  602ERGO    R5 8520   5.816   5.761   9.749  0.0929 -0.2088  0.2090
  602ERGO    C1 8521   6.044   5.901   9.477  0.0674 -0.3734  0.1034
  602ERGO    C2 8522   6.182   5.834   9.040  0.1589  0.1243  0.0785
  603ERGO   ROH 8523  16.835  14.657   9.993 -0.3440 -0.2389  0.2829
  603ERGO    R1 8524  16.828  14.599   9.716 -0.0585  0.1319  0.1915
  603ERGO    R2 8525  16.679  14.391   9.611  0.4054 -0.0181 -0.1879
  603ERGO    R3 8526  16.575  14.588   9.455  0.1187  0.0051  0.0198
  603ERGO    R4 8527  16.495  14.339   9.323  0.0371  0.0100  0.0330
  603ERGO    R5 8528  16.600  14.506   9.231 -0.1427  0.0906 -0.0508
  603ERGO    C1 8529  16.292  14.494   9.008 -0.4465  0.0481  0.3566
  603ERGO    C2 8530  16.111  14.616   8.592  0.0320  0.0793  0.0959
  604ERGO   ROH 8531   1.755  11.932   9.562  0.0406  0.1633  0.1436
  604ERGO    R1 8532   1.947  11.965   9.357  0.0787 -0.0194  0.1472
  604ERGO    R2 8533   2.084  11.753   9.245 -0.0916 -0.1495  0.1757
  604ERGO    R3 8534   1.987  11.855   9.012 -0.0005 -0.0931  0.1624
  604ERGO    R4 8535   2.204  11.677   8.930 -0.0793 -0.1966  0.1922
  604ERGO    R5 8536   2.180  11.886   8.875  0.0356 -0.1852  0.1951
  604ERGO    C1 8537   2.183  11.728   8.528  0.0134 -0.1712  0.1891
  604ERGO    C2 8538   2.262  11.519   8.375  0.0799 -0.0238  0.1560
  605ERGO   ROH 8539  10.939  14.427  10.146  0.0069  0.0375 -0.0572
  605ERGO    R1 8540  11.118  14.455   9.929  0.0181 -0.0007 -0.0524
  605ERGO    R2 8541  11.173  14.248   9.753 -0.0303 -0.0080 -0.0560
  605ERGO    R3 8542  11.101  14.432   9.566  0.0209  0.0151 -0.0541
  605ERGO    R4 8543  11.261  14.235   9.420 -0.0266 -0.0278 -0.0546
  605ERGO    R5 8544  11.293  14.450   9.424  0.0306 -0.0340 -0.0501
  605ERGO    C1 8545  11.244  14.399   9.049  0.0236 -0.0176 -0.0521
  605ERGO    C2 8546  11.449  14.201   8.883  0.1109 -0.1795  0.0495
  606ERGO   ROH 8547  10.031  11.688   9.982 -0.1421 -0.2229 -0.0416
  606ERGO    R1 8548   9.990  11.664   9.703  0.0299 -0.3036 -0.0613
  606ERGO    R2 8549  10.045  11.869   9.526 -0.2822 -0.1912 -0.0328
  606ERGO    R3 8550  10.196  11.679   9.403  0.1451  0.0918  0.0319
  606ERGO    R4 8551  10.152  11.884   9.198 -0.2493 -0.0299 -0.0154
  606ERGO    R5 8552  10.110  11.671   9.179  0.1988 -0.1318  0.0163
  606ERGO    C1 8553  10.355  11.715   8.891  0.1710  0.3298  0.0554
  606ERGO    C2 8554  10.312  11.848   8.514  0.2686  0.1834  0.1190
  607ERGO   ROH 8555  15.495  16.540   9.946 -0.1678 -0.1589  0.0534
  607ERGO    R1 8556  15.445  16.633   9.683 -0.0614  0.1269  0.1296
  607ERGO    R2 8557  15.587  16.841   9.570  0.2438  0.0120  0.2775
  607ERGO    R3 8558  15.632  16.660   9.372 -0.0528  0.0899  0.1331
  607ERGO    R4 8559  15.697  16.920   9.252  0.3837  0.0774  0.3420
  607ERGO    R5 8560  15.559  16.770   9.172  0.1362  0.3695  0.2172
  607ERGO    C1 8561  15.804  16.796   8.881  0.1867  0.1885  0.2439
  607ERGO    C2 8562  16.016  16.831   8.692  0.1501  0.2950 -0.0739
  608ERGO   ROH 8563   4.776  14.977   9.815  0.3683 -0.2342 -0.0477
  608ERGO    R1 8564   4.719  15.062   9.551  0.1540 -0.1567  0.0214
  608ERGO    R2 8565   4.918  15.134   9.371  0.0021  0.0203 -0.0783
  608ERGO    R3 8566   4.796  14.949   9.214 -0.0004  0.0205 -0.0759
  608ERGO    R4 8567   4.992  15.077   9.039 -0.0989  0.1250 -0.1192
  608ERGO    R5 8568   4.780  15.054   9.000 -0.1095  0.0697 -0.0461
  608ERGO    C1 8569   4.922  14.869   8.697 -0.1600  0.1860 -0.1408
  608ERGO    C2 8570   4.668  14.756   8.351  0.1202  0.0892 -0.1088
  609ERGO   ROH 8571  10.172   0.739   9.666  0.1532 -0.0178  0.0868
  609ERGO    R1 8572  10.295   0.643   9.429  0.0576  0.0499  0.0086
  609ERGO    R2 8573  10.194   0.430   9.286  0.0261  0.0599  0.0138
  609ERGO    R3 8574  10.202   0.607   9.079 -0.1037  0.1027  0.0453
  609ERGO    R4 8575  10.184   0.343   8.951  0.2901  0.0941 -0.0049
  609ERGO    R5 8576  10.334   0.497   8.912  0.1152  0.2932  0.0880
  609ERGO    C1 8577  10.185   0.459   8.563  0.3219  0.1542  0.0139
  609ERGO    C2 8578  10.113   0.281   8.303 -0.3443  0.0159 -0.0523
  610ERGO   ROH 8579   1.982   9.661   9.908 -0.3024  0.1372  0.1668
  610ERGO    R1 8580   2.033   9.705   9.633  0.1302  0.0818  0.2326
  610ERGO    R2 8581   2.129   9.507   9.467 -0.2023 -0.1371  0.3017
  610ERGO    R3 8582   1.911   9.571   9.317  0.1246  0.4876  0.0554
  610ERGO    R4 8583   2.073   9.398   9.144 -0.3122 -0.3018  0.3738
  610ERGO    R5 8584   1.998   9.597   9.095  0.4239 -0.0548  0.0877
  610ERGO    C1 8585   1.835   9.395   8.815 -0.0692  0.1887  0.1848
  610ERGO    C2 8586   1.844   9.167   8.497 -0.0126  0.1139 -0.4259
  611ERGO   ROH 8587  17.489   8.414   9.921  0.1186 -0.2423  0.0352
  611ERGO    R1 8588  17.588   8.344   9.665 -0.0280 -0.1624 -0.0452
  611ERGO    R2 8589  17.494   8.125   9.524 -0.0436 -0.1738 -0.0193
  611ERGO    R3 8590  17.452   8.310   9.329 -0.2445 -0.1554  0.0402
  611ERGO    R4 8591  17.405   8.053   9.198  0.0947 -0.1736 -0.0576
  611ERGO    R5 8592  17.540   8.209   9.131 -0.0875  0.0212  0.0170
  611ERGO    C1 8593  17.313   8.184   8.826 -0.0134 -0.1562 -0.0241
  611ERGO    C2 8594  17.268   8.233   8.390  0.3017  0.3525 -0.4150
  612ERGO   ROH 8595  14.358   9.072  10.218  0.2250  0.2822 -0.1229
  612ERGO    R1 8596  14.242   9.131   9.966  0.0142  0.1639 -0.0556
  612ERGO    R2 8597  14.391   9.156   9.736 -0.1443  0.3339 -0.1416
  612ERGO    R3 8598  14.219   8.969   9.641  0.0024  0.1465 -0.0462
  612ERGO    R4 8599  14.404   9.018   9.419 -0.1852  0.3675 -0.1581
  612ERGO    R5 8600  14.186   9.029   9.412 -0.2052  0.1271 -0.0240
  612ERGO    C1 8601  14.248   8.762   9.146 -0.0713  0.2112 -0.0782
  612ERGO    C2 8602  14.078   8.673   8.814  0.0155  0.1434  0.1569
  613ERGO   ROH 8603   9.505   9.336  10.238 -0.0802  0.0852 -0.0165
  613ERGO    R1 8604   9.518   9.241   9.972  0.1571  0.0966 -0.0116
  613ERGO    R2 8605   9.302   9.251   9.800  0.1448 -0.3831 -0.0381
  613ERGO    R3 8606   9.477   9.383   9.639 -0.1164 -0.0012 -0.0222
  613ERGO    R4 8607   9.265   9.293   9.459  0.0833 -0.4676 -0.0414
  613ERGO    R5 8608   9.478   9.257   9.436  0.1743 -0.0087 -0.0205
  613ERGO    C1 8609   9.408   9.441   9.109 -0.1977 -0.1581 -0.0285
  613ERGO    C2 8610   9.399   9.507   8.813 -0.2548 -0.1277  0.1466
  614ERGO   ROH 8611  14.841   3.601   9.718  0.0064  0.0846 -0.3753
  614ERGO    R1 8612  14.839   3.726   9.465  0.2228  0.2182 -0.3150
  614ERGO    R2 8613  15.032   3.907   9.387  0.4359  0.0749 -0.1541
  614ERGO    R3 8614  15.058   3.739   9.174  0.3474  0.1493 -0.2226
  614ERGO    R4 8615  15.049   4.009   9.057  0.6248  0.1990 -0.1065
  614ERGO    R5 8616  14.922   3.839   9.003  0.4917  0.3419 -0.2199
  614ERGO    C1 8617  15.084   3.911   8.665  0.6517  0.3411 -0.1430
  614ERGO    C2 8618  15.121   4.012   8.374 -0.0779 -0.0932 -0.1490
  615ERGO   ROH 8619   7.045   9.258  10.411  0.0407  0.1501  0.0322
  615ERGO    R1 8620   7.129   9.023  10.278  0.2324  0.1936  0.0712
  615ERGO    R2 8621   6.965   8.884  10.104  0.2331 -0.1371  0.3175
  615ERGO    R3 8622   7.174   8.917   9.933  0.0097  0.0776  0.0778
  615ERGO    R4 8623   7.011   8.706   9.811  0.0844 -0.0709  0.2530
  615ERGO    R5 8624   7.224   8.695   9.857  0.1455  0.1352  0.0085
  615ERGO    C1 8625   7.234   8.632   9.481 -0.2120  0.1692 -0.0095
  615ERGO    C2 8626   7.191   8.650   9.175  0.1826 -0.1043 -0.0120
  616ERGO   ROH 8627   7.328  16.397   8.503  0.0065 -0.0785 -0.0536
  616ERGO    R1 8628   7.410  16.418   8.233  0.1236 -0.1721 -0.0248
  616ERGO    R2 8629   7.491  16.657   8.120 -0.0550 -0.1685 -0.1328
  616ERGO    R3 8630   7.713  16.515   8.055  0.1220  0.0095  0.0645
  616ERGO    R4 8631   7.695  16.724   7.849 -0.2065 -0.3354 -0.2915
  616ERGO    R5 8632   7.711  16.508   7.816  0.0694 -0.3877  0.0627
  616ERGO    C1 8633   8.022  16.629   7.631 -0.1287 -0.2654 -0.1988
  616ERGO    C2 8634   8.329  16.632   7.539 -0.3177 -0.2305 -0.0303
  617ERGO   ROH 8635  15.795   0.872   9.685  0.1195 -0.0071  0.0073
  617ERGO    R1 8636  15.626   0.892   9.459  0.0725 -0.1253  0.0329
  617ERGO    R2 8637  15.663   1.082   9.261 -0.0646 -0.1284  0.0115
  617ERGO    R3 8638  15.662   0.864   9.098  0.0265 -0.1433  0.0278
  617ERGO    R4 8639  15.658   1.093   8.916 -0.2308 -0.1460  0.0111
  617ERGO    R5 8640  15.519   0.926   8.917 -0.1086 -0.2577  0.0875
  617ERGO    C1 8641  15.655   0.895   8.562 -0.2421 -0.1702  0.0262
  617ERGO    C2 8642  15.554   0.718   8.281  0.1635  0.0552  0.0321
  618ERGO   ROH 8643   8.571   3.435  10.239 -0.4131 -0.0392 -0.0129
  618ERGO    R1 8644   8.718   3.494  10.004 -0.2759 -0.1676  0.0378
  618ERGO    R2 8645   8.723   3.326   9.785 -0.3548 -0.1697  0.0320
  618ERGO    R3 8646   8.643   3.550   9.652 -0.1071 -0.0902  0.0143
  618ERGO    R4 8647   8.713   3.360   9.441 -0.0595 -0.0826  0.0298
  618ERGO    R5 8648   8.789   3.562   9.463  0.0508 -0.1380  0.1338
  618ERGO    C1 8649   8.632   3.589   9.117  0.3450  0.0427  0.0117
  618ERGO    C2 8650   8.640   3.526   8.727 -0.2665  0.0126  0.2880
  619ERGO   ROH 8651   9.528   4.211  10.080 -0.5111  0.1482 -0.0520
  619ERGO    R1 8652   9.665   4.156   9.838 -0.2290  0.1407  0.1054
  619ERGO    R2 8653   9.556   4.001   9.637  0.0716 -0.0076  0.0479
  619ERGO    R3 8654   9.611   4.219   9.484  0.0888 -0.0287  0.0245
  619ERGO    R4 8655   9.596   3.997   9.293  0.2339 -0.0669  0.0667
  619ERGO    R5 8656   9.761   4.138   9.315  0.1860 -0.0241  0.1118
  619ERGO    C1 8657   9.671   4.200   8.950  0.3445 -0.1212  0.0557
  619ERGO    C2 8658   9.608   4.256   8.630  0.2935 -0.1519  0.0736
  620ERGO   ROH 8659  10.212   5.069   9.951  0.2457  0.0916 -0.0782
  620ERGO    R1 8660  10.097   5.067   9.692  0.1815  0.3036 -0.0528
  620ERGO    R2 8661  10.188   5.227   9.487  0.4491  0.1245 -0.0755
  620ERGO    R3 8662  10.208   4.991   9.354 -0.0339  0.0751 -0.0764
  620ERGO    R4 8663  10.154   5.191   9.145  0.4473  0.2143 -0.0854
  620ERGO    R5 8664  10.042   5.007   9.181  0.0307  0.4464 -0.1159
  620ERGO    C1 8665  10.153   4.947   8.821 -0.0072  0.2202 -0.0921
  620ERGO    C2 8666  10.019   4.811   8.462 -0.2986 -0.1385  0.0732
  621ERGO   ROH 8667  12.529   3.200   9.677 -0.3067  0.1509 -0.1732
  621ERGO    R1 8668  12.490   3.255   9.402 -0.0211  0.1455 -0.2200
  621ERGO    R2 8669  12.697   3.328   9.233  0.1970 -0.0510 -0.0597
  621ERGO    R3 8670  12.607   3.118   9.086  0.1451 -0.0033 -0.0927
  621ERGO    R4 8671  12.733   3.297   8.891  0.0484  0.0510 -0.0838
  621ERGO    R5 8672  12.531   3.217   8.882  0.0566  0.0496 -0.0262
  621ERGO    C1 8673  12.670   3.082   8.553 -0.0870  0.1552 -0.1288
  621ERGO    C2 8674  12.980   2.982   8.262 -0.1152  0.1192 -0.1607
  622ERGO   ROH 8675  15.921  13.297   9.999  0.2632  0.1376 -0.1221
  622ERGO    R1 8676  15.926  13.495   9.796  0.2038  0.0749 -0.1870
  622ERGO    R2 8677  15.941  13.432   9.527 -0.0573 -0.0157 -0.1893
  622ERGO    R3 8678  15.719  13.587   9.511  0.0132  0.1006 -0.0396
  622ERGO    R4 8679  15.831  13.590   9.240 -0.0737  0.1989 -0.0652
  622ERGO    R5 8680  15.780  13.764   9.362  0.0467  0.1527  0.0422
  622ERGO    C1 8681  15.558  13.828   9.059 -0.0171  0.4329  0.1475
  622ERGO    C2 8682  15.677  13.896   8.828 -0.0958  0.0267 -0.1078
  623ERGO   ROH 8683  17.528   4.593  10.252 -0.2436  0.1773  0.0434
  623ERGO    R1 8684  17.502   4.679   9.983 -0.1275 -0.1514 -0.0767
  623ERGO    R2 8685  17.582   4.930   9.898 -0.5532 -0.0675 -0.2320
  623ERGO    R3 8686  17.726   4.786   9.717 -0.0483  0.0391  0.0610
  623ERGO    R4 8687  17.735   5.062   9.618 -0.6954 -0.0284 -0.2934
  623ERGO    R5 8688  17.672   4.886   9.506 -0.1735 -0.3657 -0.1173
  623ERGO    C1 8689  17.959   5.005   9.285 -0.3045  0.0945 -0.0541
  623ERGO    C2 8690  18.140   5.197   9.201 -0.0836  0.2773  0.0056
  624ERGO   ROH 8691   2.786   5.296  10.132  0.0714  0.0288  0.0750
  624ERGO    R1 8692   2.924   5.144   9.937  0.0157 -0.0247  0.0775
  624ERGO    R2 8693   2.796   4.965   9.770 -0.0519  0.0361  0.0677
  624ERGO    R3 8694   2.918   5.110   9.575  0.0202 -0.0130  0.0755
  624ERGO    R4 8695   2.798   4.883   9.434  0.1250 -0.0900  0.0976
  624ERGO    R5 8696   3.006   4.946   9.425  0.1225 -0.0573  0.1785
  624ERGO    C1 8697   2.914   4.972   9.056  0.2957 -0.2095  0.1224
  624ERGO    C2 8698   2.747   4.990   8.785 -0.1663  0.0693  0.1454
  625ERGO   ROH 8699  17.005  13.508   9.819  0.0228  0.1304  0.1243
  625ERGO    R1 8700  16.981  13.507   9.537  0.0748  0.1244  0.1198
  625ERGO    R2 8701  16.886  13.288   9.396  0.1240  0.1135  0.1053
  625ERGO    R3 8702  16.711  13.470   9.295  0.1233  0.0930  0.0696
  625ERGO    R4 8703  16.712  13.252   9.100 -0.0027 -0.0254  0.1954
  625ERGO    R5 8704  16.747  13.463   9.059  0.0278 -0.0550  0.0572
  625ERGO    C1 8705  16.447  13.401   8.832 -0.0774 -0.1255  0.2144
  625ERGO    C2 8706  16.305  13.272   8.620  0.1921 -0.0352  0.2018
  626ERGO   ROH 8707   0.113  13.783   9.652  0.2693 -0.1910 -0.1835
  626ERGO    R1 8708  -0.001  13.782   9.393  0.1427 -0.2281 -0.1289
  626ERGO    R2 8709  -0.021  14.009   9.238 -0.1721 -0.1958 -0.0514
  626ERGO    R3 8710   0.110  13.858   9.055 -0.0995 -0.0036 -0.1604
  626ERGO    R4 8711  -0.000  14.082   8.901 -0.3793 -0.0554 -0.0356
  626ERGO    R5 8712  -0.027  13.870   8.859 -0.1906 -0.0662 -0.0993
  626ERGO    C1 8713   0.136  13.982   8.532 -0.4315  0.2070 -0.1287
  626ERGO    C2 8714   0.251  14.028   8.255  0.1826  0.1228 -0.0597
  627ERGO   ROH 8715  14.997   2.274  10.025 -0.0416 -0.0763 -0.1870
  627ERGO    R1 8716  14.997   2.162   9.765 -0.2455 -0.0404 -0.2043
  627ERGO    R2 8717  14.847   2.266   9.558 -0.1320  0.2117 -0.1648
  627ERGO    R3 8718  15.086   2.273   9.430 -0.1371 -0.1159 -0.2004
  627ERGO    R4 8719  14.887   2.312   9.218 -0.1119  0.1872 -0.1663
  627ERGO    R5 8720  15.045   2.162   9.221 -0.3233 -0.0387 -0.2051
  627ERGO    C1 8721  15.136   2.345   8.899 -0.1050 -0.1345 -0.2004
  627ERGO    C2 8722  15.093   2.516   8.635  0.2892  0.2868 -0.2962
  628ERGO   ROH 8723   8.251   0.795   9.762  0.0753 -0.0963 -0.0636
  628ERGO    R1 8724   8.103   0.762   9.523  0.0213 -0.0574 -0.0355
  628ERGO    R2 8725   8.096   0.954   9.324  0.1065 -0.0948 -0.0702
  628ERGO    R3 8726   8.177   0.748   9.167 -0.0400 -0.1731 -0.0453
  628ERGO    R4 8727   8.131   0.969   8.981  0.1037 -0.1550 -0.0735
  628ERGO    R5 8728   8.045   0.769   8.968 -0.0369 -0.1034 -0.0443
  628ERGO    C1 8729   8.227   0.784   8.633 -0.0355 -0.2635 -0.0519
  628ERGO    C2 8730   8.317   0.604   8.312 -0.0555 -0.1360  0.0134
  629ERGO   ROH 8731  13.042   0.500   9.904  0.3707  0.0675  0.0060
  629ERGO    R1 8732  12.972   0.608   9.653  0.3148 -0.0002 -0.0082
  629ERGO    R2 8733  13.147   0.758   9.501  0.2805 -0.0337 -0.0862
  629ERGO    R3 8734  13.087   0.575   9.309  0.2450 -0.0880 -0.0226
  629ERGO    R4 8735  13.307   0.732   9.195 -0.0827  0.1753 -0.2995
  629ERGO    R5 8736  13.113   0.694   9.103 -0.1600 -0.0416 -0.0517
  629ERGO    C1 8737  13.343   0.546   8.837 -0.3275  0.2460 -0.3642
  629ERGO    C2 8738  13.512   0.455   8.500  0.0684  0.1961 -0.1740
  630ERGO   ROH 8739   9.907   3.976  10.236 -0.0978 -0.1023 -0.0455
  630ERGO    R1 8740  10.047   3.995   9.991 -0.1047 -0.0077 -0.0422
  630ERGO    R2 8741  10.122   3.773   9.845 -0.1168  0.0486 -0.1351
  630ERGO    R3 8742   9.988   3.900   9.645 -0.1186  0.1346 -0.0797
  630ERGO    R4 8743  10.180   3.726   9.507 -0.1523  0.1592 -0.1570
  630ERGO    R5 8744  10.155   3.940   9.478 -0.1286  0.1725 -0.0802
  630ERGO    C1 8745  10.087   3.817   9.123 -0.1748  0.3043 -0.1178
  630ERGO    C2 8746  10.022   3.879   8.747 -0.1817  0.0025  0.2700
  631ERGO   ROH 8747   4.536   8.439   9.896  0.0393  0.0168 -0.0051
  631ERGO    R1 8748   4.675   8.326   9.677 -0.0813 -0.1893  0.0215
  631ERGO    R2 8749   4.559   8.144   9.505 -0.3614  0.0695 -0.0752
  631ERGO    R3 8750   4.639   8.322   9.315  0.0511 -0.0205  0.0058
  631ERGO    R4 8751   4.609   8.067   9.172 -0.0631  0.0155 -0.0213
  631ERGO    R5 8752   4.786   8.195   9.174  0.0756 -0.1796  0.1749
  631ERGO    C1 8753   4.713   8.188   8.799  0.4979 -0.1006  0.0860
  631ERGO    C2 8754   4.747   8.008   8.483 -0.1376 -0.0215  0.0985
  632ERGO   ROH 8755   3.998  11.274   9.769 -0.0585 -0.1575 -0.1081
  632ERGO    R1 8756   3.911  11.129   9.542 -0.1183 -0.1598 -0.0848
  632ERGO    R2 8757   3.648  11.132   9.454 -0.1093 -0.0205 -0.1188
  632ERGO    R3 8758   3.761  11.209   9.220 -0.0301 -0.1432 -0.1213
  632ERGO    R4 8759   3.488  11.136   9.148 -0.1002  0.1215 -0.1215
  632ERGO    R5 8760   3.669  11.060   9.057 -0.1732 -0.0612 -0.1149
  632ERGO    C1 8761   3.501  11.211   8.750 -0.0207  0.0890 -0.1255
  632ERGO    C2 8762   3.331  11.178   8.396 -0.1125 -0.1765 -0.0101
  633ERGO   ROH 8763   4.544  16.318   9.768  0.1807 -0.1358  0.0268
  633ERGO    R1 8764   4.468  16.422   9.516  0.2436 -0.0903  0.0256
  633ERGO    R2 8765   4.651  16.485   9.319  0.2752 -0.3795 -0.0463
  633ERGO    R3 8766   4.497  16.319   9.168  0.0059 -0.2145  0.0410
  633ERGO    R4 8767   4.655  16.471   8.974  0.0679 -0.4033 -0.0493
  633ERGO    R5 8768   4.438  16.451   8.976  0.0469 -0.1602  0.0690
  633ERGO    C1 8769   4.514  16.308   8.631 -0.3055 -0.2624  0.0311
  633ERGO    C2 8770   4.412  16.277   8.299  0.1406  0.0537 -0.0115
  634ERGO   ROH 8771   8.543   4.890  10.265  0.1099 -0.2070 -0.0574
  634ERGO    R1 8772   8.441   4.825  10.009  0.2301 -0.2358 -0.0968
  634ERGO    R2 8773   8.340   5.015   9.837  0.0119 -0.3000 -0.0268
  634ERGO    R3 8774   8.520   4.909   9.664  0.1696  0.0029 -0.0575
  634ERGO    R4 8775   8.327   5.051   9.493 -0.2205 -0.4405 -0.0362
  634ERGO    R5 8776   8.389   4.842   9.475  0.2087 -0.3412  0.0205
  634ERGO    C1 8777   8.490   4.971   9.130 -0.2077 -0.2380 -0.0705
  634ERGO    C2 8778   8.434   5.088   8.850  0.0752 -0.2419  0.0517
  635ERGO   ROH 8779   7.784  17.987   9.799 -0.0528 -0.0011 -0.1101
  635ERGO    R1 8780   7.909  17.971   9.546  0.1198  0.3788 -0.0570
  635ERGO    R2 8781   7.800  17.831   9.334  0.6501 -0.0160 -0.0984
  635ERGO    R3 8782   7.829  18.068   9.204 -0.0649  0.0934 -0.0966
  635ERGO    R4 8783   7.854  17.865   8.994  0.5311  0.1655 -0.0995
  635ERGO    R5 8784   7.996  18.025   9.038  0.0647  0.5982 -0.1078
  635ERGO    C1 8785   7.913  18.108   8.675 -0.2094  0.3741 -0.0984
  635ERGO    C2 8786   7.716  18.197   8.428  0.2672  0.2893  0.1197
  636ERGO   ROH 8787   6.523   7.901  10.303 -0.1917  0.0853 -0.0913
  636ERGO    R1 8788   6.591   7.856  10.032 -0.2600 -0.1319 -0.0758
  636ERGO    R2 8789   6.411   7.754   9.848 -0.4298  0.0762 -0.0372
  636ERGO    R3 8790   6.478   7.976   9.707 -0.0728 -0.0765 -0.1204
  636ERGO    R4 8791   6.308   7.820   9.525 -0.2334  0.0819 -0.0992
  636ERGO    R5 8792   6.508   7.898   9.483 -0.1117 -0.2167 -0.0740
  636ERGO    C1 8793   6.310   8.068   9.205  0.2162 -0.0581 -0.2134
  636ERGO    C2 8794   6.187   8.176   8.854 -0.0257 -0.1372  0.1378
  637ERGO   ROH 8795   8.195  14.073   9.946  0.1821  0.2432  0.0245
  637ERGO    R1 8796   8.306  14.082   9.686  0.1803  0.0978  0.0171
  637ERGO    R2 8797   8.259  13.886   9.496  0.1535  0.0058  0.1137
  637ERGO    R3 8798   8.181  14.097   9.345  0.1766 -0.0596  0.0113
  637ERGO    R4 8799   8.278  13.899   9.152  0.1070 -0.1808  0.1036
  637ERGO    R5 8800   8.342  14.107   9.168  0.1516 -0.1866 -0.0170
  637ERGO    C1 8801   8.215  14.106   8.808  0.1016 -0.3507  0.0015
  637ERGO    C2 8802   7.894  14.185   8.578 -0.1927 -0.0369 -0.0021
  638ERGO   ROH 8803   7.103  13.191   9.939  0.0470  0.0055  0.0538
  638ERGO    R1 8804   7.268  13.179   9.710 -0.0515  0.0642 -0.0213
  638ERGO    R2 8805   7.308  12.946   9.567 -0.0003  0.0681 -0.0144
  638ERGO    R3 8806   7.226  13.099   9.357 -0.1737  0.0057  0.0062
  638ERGO    R4 8807   7.355  12.866   9.234  0.0377  0.1359 -0.0254
  638ERGO    R5 8808   7.401  13.076   9.195 -0.1688  0.1853 -0.0165
  638ERGO    C1 8809   7.306  12.964   8.843 -0.1029  0.1170 -0.0123
  638ERGO    C2 8810   7.224  12.897   8.540  0.0339  0.2084  0.4373
  639ERGO   ROH 8811  18.126  10.938   9.911 -0.1168  0.2027  0.0705
  639ERGO    R1 8812  18.202  10.799   9.677 -0.0518  0.1240  0.1390
  639ERGO    R2 8813  18.021  10.724   9.483  0.0120  0.1024  0.0947
  639ERGO    R3 8814  18.191  10.858   9.318  0.0969  0.0223  0.1147
  639ERGO    R4 8815  17.982  10.752   9.141  0.0032  0.1986  0.1023
  639ERGO    R5 8816  18.198  10.724   9.119 -0.0102  0.0531  0.0843
  639ERGO    C1 8817  18.119  10.894   8.786  0.0778  0.1793  0.1255
  639ERGO    C2 8818  18.154  10.921   8.389 -0.0398 -0.0777  0.2915
  640ERGO   ROH 8819   4.502   4.594   9.752  0.2557 -0.1249 -0.0595
  640ERGO    R1 8820   4.414   4.553   9.486  0.0547 -0.0464 -0.0064
  640ERGO    R2 8821   4.264   4.740   9.348  0.2107  0.1283  0.0605
  640ERGO    R3 8822   4.462   4.716   9.164  0.0804 -0.1417 -0.0519
  640ERGO    R4 8823   4.223   4.789   9.009  0.1304  0.4191  0.1089
  640ERGO    R5 8824   4.354   4.618   8.974 -0.2115  0.1794 -0.0642
  640ERGO    C1 8825   4.386   4.796   8.638 -0.0387  0.3350  0.0314
  640ERGO    C2 8826   4.421   5.034   8.432 -0.0331  0.0172  0.0382
  641ERGO   ROH 8827   5.994  10.071  10.075  0.2987  0.1669  0.1689
  641ERGO    R1 8828   6.080  10.187   9.831  0.0889  0.1099  0.0653
  641ERGO    R2 8829   6.262  10.063   9.664  0.1799  0.2073  0.0876
  641ERGO    R3 8830   6.067  10.099   9.478  0.0732 -0.1365  0.1258
  641ERGO    R4 8831   6.310  10.049   9.322  0.1249  0.2652  0.0775
  641ERGO    R5 8832   6.175  10.219   9.301 -0.1699  0.0365  0.0929
  641ERGO    C1 8833   6.155  10.076   8.948 -0.0074 -0.0238  0.1074
  641ERGO    C2 8834   6.280  10.195   8.678  0.1802  0.2309 -0.2248
  642ERGO   ROH 8835   5.173  11.406  10.011 -0.3396  0.2321  0.0882
  642ERGO    R1 8836   5.236  11.468   9.742 -0.1790  0.1603  0.1084
  642ERGO    R2 8837   5.302  11.275   9.556 -0.0231  0.1164  0.2111
  642ERGO    R3 8838   5.101  11.389   9.414  0.0469  0.0340  0.0421
  642ERGO    R4 8839   5.264  11.251   9.214  0.2195  0.0092  0.1896
  642ERGO    R5 8840   5.205  11.461   9.211  0.1743 -0.0007  0.0916
  642ERGO    C1 8841   5.054  11.345   8.880  0.4266 -0.1304  0.0186
  642ERGO    C2 8842   4.964  11.267   8.612 -0.1463  0.3954 -0.2574
  643ERGO   ROH 8843   8.569  17.763  10.260 -0.3545 -0.0508 -0.1202
  643ERGO    R1 8844   8.579  17.792   9.979 -0.0569  0.1921 -0.0905
  643ERGO    R2 8845   8.782  17.928   9.850  0.2906 -0.0147  0.2112
  643ERGO    R3 8846   8.805  17.697   9.710  0.0328  0.0647  0.0305
  643ERGO    R4 8847   8.881  17.908   9.520  0.3511  0.1163  0.2207
  643ERGO    R5 8848   8.729  17.753   9.490  0.1637  0.3334  0.0545
  643ERGO    C1 8849   8.960  17.678   9.195  0.1444  0.2671  0.0566
  643ERGO    C2 8850   9.077  17.736   8.840 -0.2586 -0.0144  0.0907
  644ERGO   ROH 8851  14.153   5.020   9.906 -0.1411 -0.0782 -0.0316
  644ERGO    R1 8852  14.065   5.106   9.651  0.0084  0.1727 -0.0020
  644ERGO    R2 8853  14.238   5.201   9.459  0.2023 -0.1810 -0.0112
  644ERGO    R3 8854  14.122   5.010   9.305 -0.2652  0.1010 -0.0295
  644ERGO    R4 8855  14.276   5.174   9.116  0.0452 -0.1752 -0.0297
  644ERGO    R5 8856  14.064   5.123   9.102 -0.0799  0.2861  0.0169
  644ERGO    C1 8857  14.189   4.977   8.773 -0.4851  0.0929 -0.0577
  644ERGO    C2 8858  14.214   4.848   8.365 -0.0210 -0.0724  0.0972
  645ERGO   ROH 8859   9.160  12.122   9.963  0.0747 -0.0825 -0.0480
  645ERGO    R1 8860   9.284  12.144   9.710  0.0496 -0.1774 -0.0685
  645ERGO    R2 8861   9.177  12.032   9.481 -0.0761 -0.0925 -0.0507
  645ERGO    R3 8862   9.201  12.286   9.385  0.1052 -0.1089 -0.0531
  645ERGO    R4 8863   9.152  12.119   9.148 -0.2043 -0.0532 -0.0318
  645ERGO    R5 8864   9.318  12.258   9.177 -0.0503 -0.2115 -0.1289
  645ERGO    C1 8865   9.160  12.407   8.863 -0.1088 -0.0456 -0.0231
  645ERGO    C2 8866   9.009  12.331   8.543 -0.2737 -0.0525 -0.0352
  646ERGO   ROH 8867  13.522  11.521   8.886 -0.1334 -0.1385 -0.1851
  646ERGO    R1 8868  13.355  11.723   8.778 -0.0944 -0.0293 -0.0433
  646ERGO    R2 8869  13.422  11.991   8.784  0.0756 -0.0732 -0.0807
  646ERGO    R3 8870  13.379  11.974   8.516 -0.1465 -0.0293 -0.0497
  646ERGO    R4 8871  13.323  12.254   8.583  0.2919  0.0626 -0.0128
  646ERGO    R5 8872  13.191  12.117   8.477  0.0173  0.2359  0.0883
  646ERGO    C1 8873  13.225  12.392   8.215  0.2094  0.1828  0.0559
  646ERGO    C2 8874  13.199  12.509   7.959  0.4911 -0.1786  0.0801
  647ERGO   ROH 8875   6.124  16.668   9.583 -0.0703  0.0200 -0.0932
  647ERGO    R1 8876   6.089  16.507   9.353 -0.1772  0.0359 -0.0890
  647ERGO    R2 8877   5.844  16.401   9.282 -0.2212  0.0753 -0.0083
  647ERGO    R3 8878   5.894  16.525   9.046 -0.2848  0.0812 -0.0178
  647ERGO    R4 8879   5.643  16.378   9.002 -0.1687 -0.1115 -0.0311
  647ERGO    R5 8880   5.824  16.367   8.880 -0.1455  0.0077 -0.0057
  647ERGO    C1 8881   5.573  16.482   8.616 -0.1979 -0.2148 -0.0534
  647ERGO    C2 8882   5.376  16.597   8.441 -0.2607 -0.0807 -0.0813
  648ERGO   ROH 8883  10.610  17.557  10.011 -0.0905 -0.1081 -0.0144
  648ERGO    R1 8884  10.529  17.406   9.785 -0.0877 -0.1845  0.0351
  648ERGO    R2 8885  10.268  17.323   9.748 -0.1015 -0.1443  0.0289
  648ERGO    R3 8886  10.297  17.449   9.509 -0.0356 -0.2481 -0.0181
  648ERGO    R4 8887  10.135  17.211   9.449 -0.1618 -0.1816  0.0696
  648ERGO    R5 8888  10.320  17.270   9.350 -0.1317 -0.3173  0.0468
  648ERGO    C1 8889  10.085  17.264   9.051 -0.1352 -0.3004  0.0492
  648ERGO    C2 8890  10.016  17.308   8.839 -0.0752  0.0442 -0.0886
  649ERGO   ROH 8891  11.976  12.087  10.219  0.0718 -0.1713 -0.1038
  649ERGO    R1 8892  12.070  11.942   9.995  0.2282  0.0218 -0.1618
  649ERGO    R2 8893  11.910  11.886   9.776  0.2296 -0.2329 -0.0785
  649ERGO    R3 8894  12.113  12.004   9.639 -0.0401  0.1347 -0.1822
  649ERGO    R4 8895  11.973  11.842   9.439  0.3989 -0.5550 -0.0116
  649ERGO    R5 8896  12.186  11.837   9.484  0.4389  0.0767  0.0640
  649ERGO    C1 8897  12.199  11.927   9.114  0.2442 -0.3977 -0.0699
  649ERGO    C2 8898  12.201  11.984   8.725 -0.2297 -0.0591 -0.1946
  650ERGO   ROH 8899   7.084  13.808   9.882 -0.2016  0.0716 -0.1316
  650ERGO    R1 8900   7.173  13.800   9.614 -0.1263  0.0835 -0.1074
  650ERGO    R2 8901   7.398  13.658   9.536 -0.1222  0.0585 -0.0574
  650ERGO    R3 8902   7.225  13.544   9.360 -0.0899  0.0988 -0.1149
  650ERGO    R4 8903   7.473  13.577   9.208 -0.0191 -0.0058 -0.0178
  650ERGO    R5 8904   7.276  13.648   9.150  0.0304  0.0557 -0.1061
  650ERGO    C1 8905   7.354  13.422   8.853  0.0712 -0.0052 -0.0487
  650ERGO    C2 8906   7.244  13.422   8.589  0.4270  0.0493  0.0243
  651ERGO   ROH 8907   8.001  14.427  10.208 -0.1066  0.1352  0.0196
  651ERGO    R1 8908   7.880  14.433   9.952  0.0179  0.1837 -0.0398
  651ERGO    R2 8909   7.928  14.634   9.770  0.1605  0.1841 -0.0065
  651ERGO    R3 8910   7.993  14.427   9.606  0.1854  0.1757  0.0146
  651ERGO    R4 8911   7.992  14.662   9.431 -0.1981  0.1025 -0.0850
  651ERGO    R5 8912   7.881  14.477   9.400 -0.0635 -0.0094  0.1011
  651ERGO    C1 8913   8.090  14.484   9.081 -0.3835  0.0473 -0.1108
  651ERGO    C2 8914   8.110  14.655   8.746 -0.0232 -0.1414 -0.1958
  652ERGO   ROH 8915   6.506   2.030  10.305 -0.0565 -0.0198  0.0701
  652ERGO    R1 8916   6.575   2.041  10.031 -0.0774 -0.2454  0.0538
  652ERGO    R2 8917   6.740   2.237   9.926 -0.3490 -0.1280 -0.1778
  652ERGO    R3 8918   6.880   2.023   9.834 -0.0506 -0.0488  0.0777
  652ERGO    R4 8919   6.935   2.234   9.640 -0.2132 -0.1665 -0.0855
  652ERGO    R5 8920   6.861   2.035   9.597  0.0449 -0.2936  0.0586
  652ERGO    C1 8921   7.180   2.031   9.388  0.1460 -0.1146  0.2079
  652ERGO    C2 8922   7.388   2.212   9.118  0.0674  0.1290  0.0139
  653ERGO   ROH 8923   7.507   4.897  10.407  0.1680 -0.0986 -0.1942
  653ERGO    R1 8924   7.492   4.832  10.131  0.0181 -0.0662 -0.1957
  653ERGO    R2 8925   7.253   4.791  10.000 -0.0579 -0.0237 -0.0793
  653ERGO    R3 8926   7.349   4.982   9.832 -0.1204 -0.0145 -0.1033
  653ERGO    R4 8927   7.217   4.787   9.656 -0.0462 -0.0798 -0.0794
  653ERGO    R5 8928   7.422   4.859   9.639 -0.0739 -0.0121 -0.0843
  653ERGO    C1 8929   7.286   4.964   9.299 -0.0982 -0.1037 -0.1018
  653ERGO    C2 8930   7.330   5.121   9.015 -0.2125 -0.1208 -0.0090
  654ERGO   ROH 8931   0.288   8.163  10.203  0.0989 -0.0180 -0.0392
  654ERGO    R1 8932   0.271   8.269   9.941 -0.1507 -0.0754 -0.0496
  654ERGO    R2 8933   0.494   8.307   9.781 -0.2384  0.3498 -0.0885
  654ERGO    R3 8934   0.352   8.156   9.605  0.0269  0.0423 -0.0470
  654ERGO    R4 8935   0.527   8.322   9.437 -0.3371  0.3853 -0.0961
  654ERGO    R5 8936   0.311   8.303   9.420 -0.3098 -0.0554 -0.0528
  654ERGO    C1 8937   0.414   8.189   9.072 -0.1455  0.1173 -0.0616
  654ERGO    C2 8938   0.384   8.367   8.724 -0.3957 -0.0459  0.1912
  655ERGO   ROH 8939   9.780   2.263   9.909  0.1209  0.0284 -0.0083
  655ERGO    R1 8940   9.813   2.317   9.634  0.0797  0.0609 -0.0074
  655ERGO    R2 8941   9.702   2.159   9.436  0.1713 -0.0016 -0.0125
  655ERGO    R3 8942   9.597   2.395   9.351  0.0219 -0.0617  0.0033
  655ERGO    R4 8943   9.716   2.275   9.111  0.3009  0.1377  0.0419
  655ERGO    R5 8944   9.755   2.475   9.189  0.0666  0.1426  0.1469
  655ERGO    C1 8945   9.625   2.565   8.842  0.2362  0.1625  0.0885
  655ERGO    C2 8946   9.477   2.830   8.626  0.1721 -0.3831 -0.0510
  656ERGO   ROH 8947   6.367   9.793  10.043 -0.0817  0.2463 -0.0619
  656ERGO    R1 8948   6.476   9.647   9.826 -0.1763  0.1519 -0.0475
  656ERGO    R2 8949   6.418   9.706   9.563 -0.0096  0.2690 -0.0616
  656ERGO    R3 8950   6.689   9.717   9.540  0.0163 -0.0503  0.0429
  656ERGO    R4 8951   6.592   9.672   9.266  0.0513  0.2176 -0.0191
  656ERGO    R5 8952   6.741   9.554   9.373 -0.1288 -0.0262 -0.0285
  656ERGO    C1 8953   6.948   9.664   9.072  0.1110 -0.1121  0.1039
  656ERGO    C2 8954   7.087   9.605   8.805 -0.0533  0.1745  0.0745
  657ERGO   ROH 8955   3.024  10.301   9.486 -0.0508 -0.0491 -0.3248
  657ERGO    R1 8956   2.843  10.471   9.349 -0.1343  0.0040 -0.1534
  657ERGO    R2 8957   2.774  10.721   9.443 -0.0398 -0.0067 -0.0416
  657ERGO    R3 8958   2.855  10.801   9.196 -0.2082  0.0383 -0.0829
  657ERGO    R4 8959   2.586  10.914   9.225 -0.2291 -0.0671  0.0665
  657ERGO    R5 8960   2.657  10.789   9.061 -0.2735 -0.0278  0.0237
  657ERGO    C1 8961   2.553  11.100   8.867 -0.4974 -0.0598  0.0906
  657ERGO    C2 8962   2.496  11.113   8.584  0.1889 -0.3220 -0.4369
  658ERGO   ROH 8963  13.056  12.971  10.193 -0.2564  0.0834 -0.0985
  658ERGO    R1 8964  13.204  13.115   9.999 -0.1557  0.0905 -0.0161
  658ERGO    R2 8965  13.456  13.037   9.916 -0.1745  0.0148  0.0125
  658ERGO    R3 8966  13.343  13.047   9.670 -0.1136  0.1516 -0.0124
  658ERGO    R4 8967  13.631  13.029   9.618 -0.1165 -0.2500  0.0500
  658ERGO    R5 8968  13.494  13.179   9.540  0.1019 -0.0624  0.0080
  658ERGO    C1 8969  13.626  13.033   9.213 -0.0256 -0.2758  0.0484
  658ERGO    C2 8970  13.663  12.838   8.983 -0.2204  0.2814 -0.1279
  659ERGO   ROH 8971  14.978   4.560   9.821 -0.0164  0.1492  0.0449
  659ERGO    R1 8972  14.872   4.596   9.561 -0.0551  0.1114  0.0556
  659ERGO    R2 8973  15.029   4.656   9.343 -0.1030  0.2145  0.0485
  659ERGO    R3 8974  14.909   4.437   9.236  0.0079  0.1562  0.0411
  659ERGO    R4 8975  14.979   4.604   9.005 -0.3093  0.3223  0.0607
  659ERGO    R5 8976  14.782   4.524   9.052 -0.2060  0.1292  0.1729
  659ERGO    C1 8977  14.837   4.368   8.707 -0.3255  0.3304  0.0608
  659ERGO    C2 8978  14.996   4.488   8.326  0.1209  0.0227 -0.1330
  660ERGO   ROH 8979   3.170  14.547   9.718 -0.0113 -0.0207 -0.2222
  660ERGO    R1 8980   3.106  14.793   9.594  0.0627  0.0672 -0.0900
  660ERGO    R2 8981   3.291  14.996   9.563  0.1711 -0.0320 -0.1261
  660ERGO    R3 8982   3.218  14.978   9.301 -0.0017  0.1071 -0.0889
  660ERGO    R4 8983   3.362  15.233   9.321  0.2527 -0.0343 -0.1036
  660ERGO    R5 8984   3.162  15.202   9.239  0.1747  0.1778  0.0056
  660ERGO    C1 8985   3.336  15.353   8.935  0.1381  0.0949 -0.0555
  660ERGO    C2 8986   3.489  15.565   8.647 -0.2370 -0.0313 -0.0217
  661ERGO   ROH 8987  12.430   1.570   9.783  0.1758 -0.2379  0.1643
  661ERGO    R1 8988  12.320   1.605   9.525  0.1623  0.1323  0.2148
  661ERGO    R2 8989  12.435   1.772   9.336  0.4526  0.0092  0.2707
  661ERGO    R3 8990  12.428   1.548   9.182 -0.0572  0.0950  0.1521
  661ERGO    R4 8991  12.513   1.761   9.000  0.3798  0.0056  0.2541
  661ERGO    R5 8992  12.346   1.624   8.970  0.0741  0.3805  0.2037
  661ERGO    C1 8993  12.553   1.545   8.659 -0.1413  0.0841  0.1330
  661ERGO    C2 8994  12.810   1.446   8.463 -0.0068 -0.2281  0.0419
  662ERGO   ROH 8995   4.908  10.765   9.891 -0.0801 -0.1749 -0.0134
  662ERGO    R1 8996   4.774  10.820   9.647 -0.0131 -0.0340 -0.0188
  662ERGO    R2 8997   4.880  10.987   9.454  0.0973 -0.0221  0.0547
  662ERGO    R3 8998   4.840  10.772   9.293  0.0230  0.0497 -0.0247
  662ERGO    R4 8999   4.924  10.985   9.111 -0.1690  0.1704  0.0158
  662ERGO    R5 9000   4.745  10.863   9.093 -0.1576  0.1347  0.0945
  662ERGO    C1 9001   4.913  10.782   8.760 -0.3939  0.3497 -0.0814
  662ERGO    C2 9002   5.001  10.795   8.461 -0.1425  0.1460  0.1280
  663ERGO   ROH 9003  15.752  15.528   9.893 -0.0397  0.0258  0.0484
  663ERGO    R1 9004  15.688  15.678   9.662  0.0157  0.0763  0.0668
  663ERGO    R2 9005  15.881  15.767   9.485  0.0417 -0.0253  0.0488
  663ERGO    R3 9006  15.726  15.638   9.302 -0.0574  0.0773  0.0580
  663ERGO    R4 9007  15.880  15.833   9.146  0.3555 -0.2793 -0.0071
  663ERGO    R5 9008  15.663  15.809   9.147  0.3078  0.0677 -0.1149
  663ERGO    C1 9009  15.734  15.750   8.777  0.4451 -0.3310 -0.0311
  663ERGO    C2 9010  15.810  15.798   8.391 -0.4951  0.0524 -0.0644
  664ERGO   ROH 9011   2.249  13.525   9.601  0.0737 -0.0592 -0.0292
  664ERGO    R1 9012   2.230  13.488   9.321  0.0965 -0.0909 -0.0270
  664ERGO    R2 9013   2.102  13.668   9.155  0.0621 -0.1353 -0.0529
  664ERGO    R3 9014   2.339  13.666   9.023  0.0706 -0.0933 -0.0371
  664ERGO    R4 9015   2.146  13.765   8.826  0.0971  0.0117 -0.0055
  664ERGO    R5 9016   2.284  13.598   8.801  0.0840  0.0142 -0.0722
  664ERGO    C1 9017   2.395  13.819   8.511  0.1255  0.1365  0.0370
  664ERGO    C2 9018   2.581  14.071   8.366  0.0214 -0.1921  0.1973
  665ERGO   ROH 9019   1.612   5.705  10.016  0.2268 -0.2690  0.1193
  665ERGO    R1 9020   1.464   5.651   9.781  0.1344  0.1807  0.0662
  665ERGO    R2 9021   1.519   5.772   9.540  0.5725  0.0506  0.0998
  665ERGO    R3 9022   1.533   5.516   9.450 -0.1486 -0.0018  0.0758
  665ERGO    R4 9023   1.561   5.681   9.209  0.8125  0.0050  0.1397
  665ERGO    R5 9024   1.417   5.520   9.241  0.1889  0.4600 -0.1254
  665ERGO    C1 9025   1.598   5.387   8.932  0.2753 -0.0706  0.1403
  665ERGO    C2 9026   1.677   5.127   8.774 -0.0159 -0.2315 -0.4993
  666ERGO   ROH 9027   1.887  11.121   9.617 -0.0806 -0.2978  0.0968
  666ERGO    R1 9028   1.919  11.070   9.340  0.0015 -0.1530  0.0787
  666ERGO    R2 9029   2.159  10.985   9.232  0.0112 -0.1729  0.1185
  666ERGO    R3 9030   2.006  10.784   9.133 -0.0217 -0.0664 -0.0527
  666ERGO    R4 9031   2.232  10.804   8.947  0.2072 -0.2186  0.1963
  666ERGO    R5 9032   2.020  10.810   8.895  0.2632 -0.0706 -0.0408
  666ERGO    C1 9033   2.131  10.509   8.688  0.2905 -0.1452  0.0810
  666ERGO    C2 9034   1.993  10.359   8.453  0.2878  0.0513  0.3223
  667ERGO   ROH 9035   9.791   8.168  10.140  0.0834 -0.0286  0.0429
  667ERGO    R1 9036  10.010   8.127   9.966  0.0544 -0.2424  0.0514
  667ERGO    R2 9037   9.990   7.977   9.734 -0.1333 -0.0766 -0.0527
  667ERGO    R3 9038  10.089   8.202   9.618  0.2099 -0.1377  0.1108
  667ERGO    R4 9039  10.112   7.995   9.412 -0.2503  0.0196 -0.0913
  667ERGO    R5 9040  10.272   8.125   9.484  0.0110 -0.3302 -0.0453
  667ERGO    C1 9041  10.276   8.217   9.114  0.0037  0.0182  0.0397
  667ERGO    C2 9042  10.292   8.237   8.838 -0.1209  0.2724 -0.0963
  668ERGO   ROH 9043  18.008   0.684   9.731  0.3734 -0.0306  0.0391
  668ERGO    R1 9044  17.844   0.633   9.506  0.2474 -0.1126  0.1480
  668ERGO    R2 9045  17.735   0.835   9.352  0.1220 -0.1682  0.1631
  668ERGO    R3 9046  17.857   0.701   9.149  0.0235 -0.1967  0.1218
  668ERGO    R4 9047  17.637   0.846   9.020  0.0406 -0.1099  0.1885
  668ERGO    R5 9048  17.678   0.633   9.006 -0.0379 -0.1236  0.1625
  668ERGO    C1 9049  17.695   0.727   8.637 -0.0993 -0.1027  0.1647
  668ERGO    C2 9050  17.752   0.871   8.252  0.3322  0.0991 -0.4539
  669ERGO   ROH 9051   7.165  10.279  10.107  0.2118  0.0143  0.0328
  669ERGO    R1 9052   7.406  10.299   9.960  0.2174 -0.1880  0.0112
  669ERGO    R2 9053   7.464  10.134   9.746 -0.0261 -0.1143 -0.1168
  669ERGO    R3 9054   7.501  10.370   9.616  0.2517 -0.0631  0.0460
  669ERGO    R4 9055   7.540  10.164   9.410 -0.1280  0.0301 -0.1277
  669ERGO    R5 9056   7.678  10.325   9.461  0.1245 -0.2005 -0.0622
  669ERGO    C1 9057   7.618  10.402   9.092  0.0736  0.1621  0.0188
  669ERGO    C2 9058   7.559  10.622   8.881  0.1618  0.1188  0.0303
  670ERGO   ROH 9059   7.292  16.380   9.854 -0.1200  0.1218  0.0736
  670ERGO    R1 9060   7.240  16.423   9.579 -0.1569  0.3842  0.1191
  670ERGO    R2 9061   7.278  16.668   9.457  0.3176  0.3812  0.2372
  670ERGO    R3 9062   7.432  16.522   9.286 -0.0669  0.1318  0.0904
  670ERGO    R4 9063   7.362  16.765   9.136  0.2920  0.3098  0.2086
  670ERGO    R5 9064   7.332  16.559   9.071 -0.1435  0.3801  0.1668
  670ERGO    C1 9065   7.555  16.685   8.789 -0.0840  0.0339  0.0541
  670ERGO    C2 9066   7.770  16.711   8.495 -0.1519 -0.1237  0.2699
  671ERGO   ROH 9067   4.955  13.810   9.833  0.2444 -0.1666 -0.1016
  671ERGO    R1 9068   4.951  13.750   9.557  0.2932 -0.1000 -0.1165
  671ERGO    R2 9069   4.735  13.808   9.395  0.2575 -0.2097 -0.1054
  671ERGO    R3 9070   4.922  13.937   9.246  0.1711 -0.0423 -0.0719
  671ERGO    R4 9071   4.762  13.789   9.050  0.3504 -0.2126 -0.0985
  671ERGO    R5 9072   4.979  13.781   9.073  0.3567 -0.0064 -0.0485
  671ERGO    C1 9073   4.953  13.899   8.711  0.3235 -0.0569 -0.0631
  671ERGO    C2 9074   4.887  13.864   8.282  0.2765 -0.1348 -0.2644
  672ERGO   ROH 9075   8.065   7.873  10.312  0.0442  0.1758  0.1539
  672ERGO    R1 9076   7.914   7.818  10.079  0.0603 -0.0631  0.1961
  672ERGO    R2 9077   7.919   7.982   9.857 -0.2971 -0.0238  0.2065
  672ERGO    R3 9078   7.985   7.752   9.728  0.0681  0.0974  0.1685
  672ERGO    R4 9079   7.956   7.951   9.515 -0.3103  0.0684  0.1969
  672ERGO    R5 9080   7.856   7.758   9.527  0.0192 -0.1028  0.1973
  672ERGO    C1 9081   8.041   7.716   9.195  0.0249  0.2358  0.1558
  672ERGO    C2 9082   8.090   7.539   8.955  0.1949 -0.0774 -0.0147
  673ERGO   ROH 9083   3.501  10.555   7.521 -0.0879  0.0533 -0.0429
  673ERGO    R1 9084   3.308  10.540   7.727 -0.0818 -0.0471 -0.0442
  673ERGO    R2 9085   3.299  10.721   7.936 -0.1059 -0.1200  0.0170
  673ERGO    R3 9086   3.041  10.752   7.856 -0.1128 -0.1322  0.0338
  673ERGO    R4 9087   3.058  10.898   8.109 -0.1160 -0.1777  0.0627
  673ERGO    R5 9088   2.914  10.743   8.058 -0.1024 -0.1844  0.0391
  673ERGO    C1 9089   2.676  11.030   8.134 -0.1282 -0.2228  0.1049
  673ERGO    C2 9090   2.408  11.164   8.083 -0.2173  0.2613  0.0431
  674ERGO   ROH 9091   1.087  15.537   9.634 -0.0299  0.2925 -0.0502
  674ERGO    R1 9092   0.950  15.416   9.418  0.0158  0.0258  0.0660
  674ERGO    R2 9093   0.913  15.544   9.175 -0.3141 -0.0980  0.0478
  674ERGO    R3 9094   1.029  15.319   9.076 -0.0424  0.0385  0.0487
  674ERGO    R4 9095   0.888  15.436   8.848 -0.2190 -0.1506  0.0574
  674ERGO    R5 9096   0.869  15.232   8.921  0.0454 -0.1734  0.0733
  674ERGO    C1 9097   0.984  15.163   8.564  0.0915 -0.0531  0.0640
  674ERGO    C2 9098   1.078  15.053   8.295 -0.0451 -0.0500 -0.3669
  675loPI    C1 9099  13.261  14.628   5.488 -0.0308 -0.1309 -0.0836
  675loPI    C2 9100  13.581  14.849   5.392  0.1262 -0.2676  0.1160
  675loPI    C3 9101  13.348  14.698   5.104  0.1296 -0.0070 -0.0264
  675loPI   PO4 9102  13.196  14.654   5.755 -0.0466 -0.0817 -0.0233
  675loPI   GL1 9103  13.122  14.440   6.097 -0.1473  0.1180 -0.2146
  675loPI   GL2 9104  13.017  14.673   6.290  0.2860 -0.0098 -0.2159
  675loPI   C1A 9105  13.472  14.571   6.413  0.2737 -0.3937 -0.2500
  675loPI   C2A 9106  13.565  14.542   6.845  0.1404  0.2222  0.1786
  675loPI   C3A 9107  13.579  14.599   7.270  0.2502  0.2164  0.0366
  675loPI   C4A 9108  13.479  14.476   7.649  0.0348 -0.0677 -0.0809
  675loPI   C5A 9109  13.415  14.384   8.085  0.1578 -0.2580 -0.3243
  675loPI   C6A 9110  13.421  14.298   8.512  0.0920 -0.1036  0.1244
  675loPI   C1B 9111  12.998  14.670   6.719 -0.0968  0.1633 -0.0571
  675loPI   C2B 9112  13.057  14.587   7.141  0.1784 -0.1109  0.2896
  675loPI   C3B 9113  12.985  14.704   7.499 -0.2796  0.1313 -0.1488
  675loPI   C4B 9114  12.641  14.875   7.751  0.2009  0.3719 -0.0021
  676loPI    C1 9115   4.227   4.903   5.561  0.2239 -0.1759  0.0874
  676loPI    C2 9116   4.203   4.736   5.199 -0.1634  0.0503  0.0029
  676loPI    C3 9117   4.235   5.133   5.233  0.3108  0.0006  0.2115
  676loPI   PO4 9118   3.965   4.819   5.687 -0.3910  0.2018  0.1701
  676loPI   GL1 9119   3.688   4.789   6.047 -0.0670  0.0418 -0.0465
  676loPI   GL2 9120   3.468   4.657   6.181 -0.1676 -0.4001  0.1609
  676loPI   C1A 9121   3.812   5.059   6.401 -0.1658 -0.1272  0.1623
  676loPI   C2A 9122   4.019   4.954   6.756 -0.0681 -0.2346 -0.2925
  676loPI   C3A 9123   4.106   4.974   7.086 -0.0807 -0.0405 -0.1677
  676loPI   C4A 9124   4.261   4.851   7.465  0.0352 -0.0141  0.0017
  676loPI   C5A 9125   4.629   4.728   7.761  0.0748 -0.0164 -0.0766
  676loPI   C6A 9126   5.100   4.678   7.988 -0.0090 -0.0774 -0.2785
  676loPI   C1B 9127   3.662   4.580   6.566  0.1774 -0.3621  0.0682
  676loPI   C2B 9128   3.810   4.515   6.923  0.2156 -0.0572 -0.1050
  676loPI   C3B 9129   3.929   4.487   7.341 -0.0713 -0.3383 -0.0295
  676loPI   C4B 9130   4.310   4.377   7.593 -0.1771 -0.0824  0.0043
  677loPI    C1 9131   5.116  15.366   5.526 -0.0643  0.2214 -0.0123
  677loPI    C2 9132   5.145  15.689   5.292 -0.3384  0.2977  0.0549
  677loPI    C3 9133   5.343  15.355   5.197 -0.1596  0.4417 -0.0875
  677loPI   PO4 9134   4.743  15.419   5.572  0.0642  0.0851  0.1179
  677loPI   GL1 9135   4.649  15.713   5.953 -0.0434 -0.1393  0.1579
  677loPI   GL2 9136   4.541  16.065   6.011  0.3332 -0.0108 -0.2293
  677loPI   C1A 9137   4.524  15.753   6.382 -0.2952  0.1885 -0.1498
  677loPI   C2A 9138   4.475  15.873   6.789  0.0199 -0.0779 -0.2407
  677loPI   C3A 9139   4.538  15.758   7.172 -0.0643  0.0941  0.1478
  677loPI   C4A 9140   4.474  15.415   7.516 -0.0911  0.0278  0.1858
  677loPI   C5A 9141   4.427  15.037   7.621 -0.0433 -0.1724 -0.0716
  677loPI   C6A 9142   4.103  14.723   7.858 -0.0294  0.0651 -0.0965
  677loPI   C1B 9143   4.674  16.262   6.418 -0.2056  0.0271 -0.0972
  677loPI   C2B 9144   4.693  16.297   6.860  0.0042 -0.2395  0.2826
  677loPI   C3B 9145   4.549  16.276   7.273  0.0011  0.1394  0.2758
  677loPI   C4B 9146   4.605  16.001   7.616  0.1342  0.1446  0.0223
  678loPI    C1 9147  12.773   3.803   5.110 -0.0594 -0.0760  0.1183
  678loPI    C2 9148  12.655   3.422   5.089  0.1398 -0.1264 -0.1338
  678loPI    C3 9149  12.656   3.649   4.760 -0.1950  0.1613  0.0573
  678loPI   PO4 9150  12.708   3.916   5.304  0.0431  0.0770 -0.0519
  678loPI   GL1 9151  12.629   3.718   5.770  0.0399  0.0781 -0.1042
  678loPI   GL2 9152  12.771   3.486   5.591 -0.1556  0.5062  0.4099
  678loPI   C1A 9153  12.605   3.844   6.240  0.1711 -0.0430  0.1000
  678loPI   C2A 9154  12.464   3.738   6.593 -0.3446 -0.0791  0.0288
  678loPI   C3A 9155  12.535   3.502   6.960  0.2386 -0.1982 -0.1796
  678loPI   C4A 9156  12.409   3.477   7.304  0.0485 -0.2424  0.0086
  678loPI   C5A 9157  12.315   3.106   7.583  0.3224 -0.1868 -0.0380
  678loPI   C6A 9158  12.494   2.778   7.875  0.4072  0.1325 -0.1296
  678loPI   C1B 9159  13.002   3.497   6.021 -0.0491 -0.0378  0.0920
  678loPI   C2B 9160  12.812   3.344   6.463 -0.0426 -0.0032 -0.0638
  678loPI   C3B 9161  12.892   3.177   6.926 -0.3272  0.0400  0.1008
  678loPI   C4B 9162  12.716   3.104   7.383  0.1245 -0.1859 -0.2331
  679loPI    C1 9163   3.611  12.850   5.162 -0.1327  0.0766 -0.0357
  679loPI    C2 9164   3.989  12.938   5.067 -0.0911  0.0303  0.0851
  679loPI    C3 9165   3.691  13.056   4.828 -0.0034  0.0986  0.0082
  679loPI   PO4 9166   3.638  12.840   5.418  0.2695 -0.1755 -0.4689
  679loPI   GL1 9167   3.564  12.567   5.681  0.0859  0.0926  0.4681
  679loPI   GL2 9168   3.326  12.749   5.801  0.2418  0.0228 -0.3652
  679loPI   C1A 9169   3.719  12.734   6.109 -0.0224 -0.1535 -0.2221
  679loPI   C2A 9170   4.079  12.784   6.500  0.2945  0.3052 -0.1960
  679loPI   C3A 9171   4.197  12.794   6.953 -0.0584  0.0445  0.0471
  679loPI   C4A 9172   4.025  12.739   7.287  0.1043  0.1959 -0.0540
  679loPI   C5A 9173   3.839  13.057   7.685 -0.1362 -0.1216 -0.4154
  679loPI   C6A 9174   3.640  13.069   8.113 -0.0084  0.1504  0.1751
  679loPI   C1B 9175   3.145  12.836   6.170 -0.2638  0.0035  0.0013
  679loPI   C2B 9176   2.770  12.985   6.404  0.0903  0.2705  0.2348
  679loPI   C3B 9177   2.298  12.988   6.400  0.4499 -0.0613 -0.1381
  679loPI   C4B 9178   2.128  12.914   6.714  0.1691  0.1651 -0.1309
  680loPI    C1 9179   1.972   2.853   5.935  0.0884  0.1644 -0.0926
  680loPI    C2 9180   1.914   2.803   5.542  0.2248  0.0310 -0.0967
  680loPI    C3 9181   2.285   2.805   5.691  0.1582 -0.3488  0.0861
  680loPI   PO4 9182   1.748   3.093   5.974 -0.0614  0.1618 -0.0376
  680loPI   GL1 9183   1.225   2.979   6.193 -0.1908 -0.2414  0.2313
  680loPI   GL2 9184   1.436   2.860   6.261 -0.0533  0.1209 -0.0992
  680loPI   C1A 9185   1.059   3.020   6.692  0.1719 -0.0175 -0.0688
  680loPI   C2A 9186   0.997   2.954   7.089 -0.3289 -0.1340  0.1881
  680loPI   C3A 9187   0.713   2.886   7.362  0.2223 -0.1068 -0.0637
  680loPI   C4A 9188   0.666   3.162   7.667  0.2129 -0.2080  0.0298
  680loPI   C5A 9189   0.663   3.239   8.078  0.1888  0.1453  0.0434
  680loPI   C6A 9190   0.270   3.410   8.312 -0.1184 -0.0608 -0.2790
  680loPI   C1B 9191   1.485   2.774   6.745 -0.0236  0.1506 -0.4232
  680loPI   C2B 9192   1.514   2.734   7.213  0.1146 -0.0003 -0.3225
  680loPI   C3B 9193   1.736   2.421   7.499 -0.0358 -0.0934  0.0230
  680loPI   C4B 9194   1.583   2.191   7.909  0.2514  0.1683 -0.1361
  681loPI    C1 9195  13.178  16.460   5.359  0.1164  0.0145 -0.1608
  681loPI    C2 9196  12.993  16.620   5.043  0.0863  0.0394 -0.1306
  681loPI    C3 9197  13.335  16.419   4.994  0.0109 -0.0737 -0.1966
  681loPI   PO4 9198  13.181  16.697   5.514 -0.0192  0.3487 -0.0386
  681loPI   GL1 9199  13.253  16.823   5.929  0.0134 -0.0093 -0.1453
  681loPI   GL2 9200  12.881  16.867   6.115  0.0112  0.2150  0.1467
  681loPI   C1A 9201  13.413  16.626   6.289  0.2108  0.0343 -0.1490
  681loPI   C2A 9202  13.651  16.317   6.602  0.2814  0.0344 -0.1195
  681loPI   C3A 9203  13.931  16.162   7.112 -0.1103 -0.1333 -0.1269
  681loPI   C4A 9204  14.143  15.906   7.282 -0.2320 -0.0144  0.4039
  681loPI   C5A 9205  14.250  15.700   7.614  0.3135  0.0260 -0.1577
  681loPI   C6A 9206  14.038  15.772   8.042  0.1359  0.2065 -0.1408
  681loPI   C1B 9207  13.003  16.882   6.551  0.3988  0.0311  0.0400
  681loPI   C2B 9208  13.054  16.950   6.951 -0.0400 -0.2733 -0.0443
  681loPI   C3B 9209  13.068  16.957   7.313  0.1725 -0.0402  0.2012
  681loPI   C4B 9210  13.072  16.766   7.682 -0.1111  0.1440  0.0737
  682loPI    C1 9211  16.621  11.784   5.650  0.0418 -0.1802 -0.0468
  682loPI    C2 9212  16.309  11.917   5.438  0.2655  0.0039 -0.2669
  682loPI    C3 9213  16.410  11.530   5.425  0.1548 -0.0231 -0.3357
  682loPI   PO4 9214  16.601  12.037   5.859  0.2912  0.0994  0.0971
  682loPI   GL1 9215  16.599  12.332   6.217 -0.1456  0.1013 -0.0104
  682loPI   GL2 9216  16.616  12.173   6.554 -0.1605  0.0644  0.0320
  682loPI   C1A 9217  16.493  12.593   6.727  0.1759  0.0193  0.1257
  682loPI   C2A 9218  16.392  12.892   6.970  0.0391  0.0100  0.2641
  682loPI   C3A 9219  16.409  12.932   7.356  0.1809 -0.0882  0.2851
  682loPI   C4A 9220  16.511  12.848   7.820 -0.4694 -0.0031  0.2278
  682loPI   C5A 9221  16.688  12.595   8.058 -0.0915  0.1858 -0.1470
  682loPI   C6A 9222  16.486  12.276   8.182  0.0012 -0.2256 -0.3518
  682loPI   C1B 9223  16.761  11.935   6.938 -0.0858  0.0815 -0.0766
  682loPI   C2B 9224  16.768  11.868   7.361  0.1823 -0.1424  0.3135
  682loPI   C3B 9225  17.023  11.697   7.545  0.1867 -0.1394  0.1894
  682loPI   C4B 9226  17.255  11.756   7.894 -0.1356  0.4635 -0.2176
  683loPI    C1 9227   4.315   6.994   5.819 -0.0903  0.1139 -0.0622
  683loPI    C2 9228   4.336   7.047   5.423  0.1973  0.0105 -0.0632
  683loPI    C3 9229   4.071   7.256   5.639 -0.0835 -0.0605 -0.3309
  683loPI   PO4 9230   4.571   7.020   5.902 -0.1229 -0.1132  0.0490
  683loPI   GL1 9231   4.705   7.028   6.270  0.1853 -0.1259 -0.2100
  683loPI   GL2 9232   4.916   6.816   6.213  0.2364  0.1830  0.1498
  683loPI   C1A 9233   4.742   7.011   6.678  0.0598  0.1180  0.5975
  683loPI   C2A 9234   4.938   7.035   7.073  0.0100  0.0168  0.1172
  683loPI   C3A 9235   5.012   6.992   7.526 -0.0238  0.0934 -0.2159
  683loPI   C4A 9236   4.872   6.813   7.896 -0.0302  0.1328  0.0364
  683loPI   C5A 9237   5.197   6.700   8.185  0.3911  0.1143 -0.0074
  683loPI   C6A 9238   5.306   6.870   8.619 -0.3370 -0.1677  0.2462
  683loPI   C1B 9239   5.120   6.775   6.454  0.3518 -0.3554  0.0270
  683loPI   C2B 9240   5.145   6.545   6.775  0.2106  0.2099  0.0468
  683loPI   C3B 9241   5.164   6.500   7.222  0.0282 -0.0620  0.1057
  683loPI   C4B 9242   5.186   6.468   7.719  0.0469  0.1121  0.1197
  684loPI    C1 9243  16.415   4.601   5.381 -0.0483 -0.1783  0.0718
  684loPI    C2 9244  16.814   4.590   5.365 -0.0487 -0.1861  0.0619
  684loPI    C3 9245  16.599   4.466   5.052 -0.0576 -0.0338  0.0066
  684loPI   PO4 9246  16.368   4.446   5.582  0.1871 -0.5832  0.1625
  684loPI   GL1 9247  16.135   4.110   5.813  0.1989 -0.2736 -0.0585
  684loPI   GL2 9248  16.446   3.983   5.861 -0.0244  0.2182 -0.0417
  684loPI   C1A 9249  15.922   4.092   6.225  0.0970  0.0852 -0.0908
  684loPI   C2A 9250  16.021   4.349   6.644  0.0494 -0.0331 -0.3423
  684loPI   C3A 9251  16.025   4.292   7.174  0.0987  0.1980 -0.0416
  684loPI   C4A 9252  16.290   4.312   7.433 -0.3073 -0.0047 -0.3300
  684loPI   C5A 9253  16.333   4.466   7.776  0.0833 -0.1856  0.4128
  684loPI   C6A 9254  16.254   4.578   8.227  0.0620  0.0267 -0.1769
  684loPI   C1B 9255  16.379   3.875   6.246 -0.1211  0.0723 -0.0488
  684loPI   C2B 9256  16.326   3.952   6.615  0.0434  0.1645  0.0167
  684loPI   C3B 9257  16.529   4.166   6.949 -0.0666 -0.0800  0.2381
  684loPI   C4B 9258  16.462   4.549   6.973 -0.0784 -0.1327 -0.2225
  685loPI    C1 9259   1.892   5.820   6.122 -0.3298  0.1155 -0.2403
  685loPI    C2 9260   1.993   5.856   5.736 -0.0967  0.3016 -0.1647
  685loPI    C3 9261   2.270   5.756   6.007 -0.3098 -0.0704 -0.0766
  685loPI   PO4 9262   1.679   5.985   6.111  0.1968 -0.0759 -0.0522
  685loPI   GL1 9263   1.617   6.100   6.529  0.0969 -0.2846 -0.0859
  685loPI   GL2 9264   1.565   5.749   6.562  0.1958  0.3324  0.0219
  685loPI   C1A 9265   1.675   6.274   6.966 -0.0107 -0.1094 -0.0727
  685loPI   C2A 9266   1.759   6.476   7.325  0.1633 -0.2568 -0.1845
  685loPI   C3A 9267   1.993   6.476   7.635 -0.2153 -0.1481  0.0756
  685loPI   C4A 9268   2.334   6.237   7.738 -0.0154 -0.3439  0.4461
  685loPI   C5A 9269   2.430   6.023   8.065 -0.1024 -0.1983  0.2915
  685loPI   C6A 9270   2.624   6.076   8.471 -0.1651  0.0987 -0.1282
  685loPI   C1B 9271   1.485   5.758   6.996 -0.0767 -0.1591  0.0340
  685loPI   C2B 9272   1.515   5.981   7.360 -0.1409 -0.1331 -0.0350
  685loPI   C3B 9273   1.607   6.185   7.711 -0.1679 -0.1192 -0.2805
  685loPI   C4B 9274   1.453   6.117   8.221  0.0136  0.0717  0.2584
  686loPI    C1 9275  15.592  14.425   5.728 -0.1729  0.3420  0.2413
  686loPI    C2 9276  15.350  14.127   5.840  0.0194  0.0895  0.0005
  686loPI    C3 9277  15.233  14.383   5.557 -0.0597  0.1130  0.0538
  686loPI   PO4 9278  15.836  14.320   5.879 -0.2664 -0.2413 -0.0555
  686loPI   GL1 9279  15.775  14.208   6.347  0.4929  0.0869 -0.1560
  686loPI   GL2 9280  15.533  14.173   6.593 -0.1218  0.1838 -0.1225
  686loPI   C1A 9281  16.042  14.293   6.594  0.0224 -0.2359 -0.1243
  686loPI   C2A 9282  16.117  14.326   7.051 -0.1738 -0.0773  0.0264
  686loPI   C3A 9283  16.242  14.280   7.501  0.0472  0.1828  0.2042
  686loPI   C4A 9284  16.563  13.995   7.766  0.0716  0.2325 -0.2326
  686loPI   C5A 9285  16.877  13.616   7.878  0.2302 -0.1689 -0.0684
  686loPI   C6A 9286  17.058  13.469   8.218  0.1597  0.1339  0.0163
  686loPI   C1B 9287  15.312  14.207   7.060  0.0046 -0.0626  0.0791
  686loPI   C2B 9288  15.240  14.276   7.463 -0.0344  0.1681  0.1410
  686loPI   C3B 9289  15.124  14.526   7.816  0.4602  0.1843 -0.1377
  686loPI   C4B 9290  14.742  14.687   7.482  0.0000  0.0229  0.2287
  687loPI    C1 9291  13.664   3.851   5.269  0.0820 -0.2575  0.0499
  687loPI    C2 9292  13.994   3.628   5.237  0.1929 -0.0527 -0.2897
  687loPI    C3 9293  13.909   3.900   4.957 -0.1589  0.0409 -0.0980
  687loPI   PO4 9294  13.708   3.855   5.559  0.0445  0.0855 -0.0287
  687loPI   GL1 9295  13.919   3.873   5.942  0.2417 -0.1628 -0.2677
  687loPI   GL2 9296  14.101   3.652   5.728 -0.1777 -0.0628 -0.0332
  687loPI   C1A 9297  13.786   3.839   6.325  0.2174 -0.0597  0.0057
  687loPI   C2A 9298  13.609   3.991   6.696 -0.0158  0.0744 -0.0060
  687loPI   C3A 9299  13.596   3.779   7.119  0.2328 -0.1250  0.0278
  687loPI   C4A 9300  13.665   3.715   7.490 -0.1568 -0.0437  0.0188
  687loPI   C5A 9301  13.751   3.880   7.847  0.0284 -0.2277 -0.0911
  687loPI   C6A 9302  13.666   4.076   8.347  0.1550 -0.0882  0.1144
  687loPI   C1B 9303  13.990   3.341   6.043 -0.1296 -0.1420 -0.0341
  687loPI   C2B 9304  14.058   3.435   6.447 -0.0212 -0.0171 -0.3764
  687loPI   C3B 9305  13.922   3.478   6.871  0.0537  0.1908 -0.1729
  687loPI   C4B 9306  13.993   3.359   7.257  0.0647  0.0669 -0.3132
  688loPI    C1 9307  10.759   7.624   5.988  0.3022 -0.0363 -0.2228
  688loPI    C2 9308  10.919   7.965   6.122  0.1420  0.0413 -0.2265
  688loPI    C3 9309  10.739   7.956   5.765 -0.3621  0.1013  0.0164
  688loPI   PO4 9310  10.921   7.433   6.030  0.1362 -0.3765  0.0867
  688loPI   GL1 9311  11.162   7.477   6.271 -0.0260 -0.2000  0.1520
  688loPI   GL2 9312  11.225   7.207   6.465  0.1770  0.1494  0.0863
  688loPI   C1A 9313  11.237   7.543   6.757 -0.2257  0.2130 -0.0199
  688loPI   C2A 9314  11.188   7.288   7.186  0.1358  0.0689 -0.0031
  688loPI   C3A 9315  11.115   7.069   7.561 -0.0818 -0.0065 -0.0744
  688loPI   C4A 9316  10.982   7.111   7.973 -0.0382 -0.0640  0.2005
  688loPI   C5A 9317  11.079   7.207   8.275  0.1597  0.2840  0.0032
  688loPI   C6A 9318  11.132   7.184   8.702 -0.4671 -0.2382  0.2343
  688loPI   C1B 9319  11.028   6.987   6.789 -0.1228 -0.1075 -0.1290
  688loPI   C2B 9320  11.152   6.714   7.170 -0.3905  0.1150  0.4184
  688loPI   C3B 9321  10.998   6.473   7.408 -0.2934 -0.1460  0.0777
  688loPI   C4B 9322  10.818   6.604   7.764  0.0307  0.1993  0.0225
  689loPI    C1 9323  12.283   3.553   5.421 -0.4889 -0.0005  0.0589
  689loPI    C2 9324  12.084   3.394   5.113  0.0078  0.0188 -0.2828
  689loPI    C3 9325  12.214   3.771   5.093  0.0365  0.0231 -0.0435
  689loPI   PO4 9326  12.209   3.432   5.600 -0.3401  0.4715 -0.2518
  689loPI   GL1 9327  12.400   3.258   5.949  0.0399 -0.2181  0.1908
  689loPI   GL2 9328  12.315   3.025   5.917  0.1087 -0.0485 -0.0106
  689loPI   C1A 9329  12.376   3.096   6.402 -0.0752  0.2107 -0.1247
  689loPI   C2A 9330  12.601   2.825   6.660 -0.2705 -0.0342  0.1064
  689loPI   C3A 9331  12.825   2.646   7.066 -0.0959  0.1510  0.1526
  689loPI   C4A 9332  12.871   2.480   7.476  0.3092  0.1912  0.2995
  689loPI   C5A 9333  13.040   2.846   7.713 -0.0990 -0.1031 -0.1011
  689loPI   C6A 9334  12.841   3.223   7.899  0.1501 -0.1309 -0.0952
  689loPI   C1B 9335  11.996   2.779   6.074  0.0069  0.1664 -0.2746
  689loPI   C2B 9336  11.910   2.691   6.520 -0.2152  0.2198  0.2123
  689loPI   C3B 9337  12.146   2.638   6.901 -0.1019  0.1708  0.2977
  689loPI   C4B 9338  12.339   3.041   7.076  0.0285  0.0668  0.1287
  690loPI    C1 9339   4.868   4.381   5.628  0.0100  0.1869  0.0153
  690loPI    C2 9340   5.045   4.100   5.405 -0.0098  0.1893 -0.0034
  690loPI    C3 9341   4.703   4.017   5.595  0.1032  0.1291  0.1761
  690loPI   PO4 9342   5.115   4.411   5.908  0.0526  0.0887 -0.0329
  690loPI   GL1 9343   5.346   4.407   6.217  0.1395 -0.0884 -0.0931
  690loPI   GL2 9344   5.388   4.056   6.249 -0.0162 -0.3454 -0.3401
  690loPI   C1A 9345   5.088   4.259   6.615 -0.2319 -0.0203  0.0058
  690loPI   C2A 9346   4.831   4.203   6.928  0.1689 -0.2368 -0.1473
  690loPI   C3A 9347   4.614   4.107   7.308 -0.1250 -0.0876 -0.0505
  690loPI   C4A 9348   4.610   4.023   7.761  0.1535  0.1146 -0.0498
  690loPI   C5A 9349   4.497   3.674   7.925 -0.0877  0.2402  0.0324
  690loPI   C6A 9350   4.498   3.365   8.294  0.1562 -0.2597  0.2041
  690loPI   C1B 9351   5.514   3.955   6.768  0.2703  0.0953 -0.2265
  690loPI   C2B 9352   5.587   4.110   7.278 -0.1970 -0.1111 -0.0095
  690loPI   C3B 9353   5.933   4.256   7.490 -0.0750 -0.0405 -0.2337
  690loPI   C4B 9354   6.015   4.371   7.931 -0.1874  0.4063  0.0478
  691loPI    C1 9355   4.831   3.418   5.766 -0.2658 -0.1180 -0.2289
  691loPI    C2 9356   4.977   3.585   5.433 -0.0200 -0.0286 -0.0790
  691loPI    C3 9357   4.753   3.254   5.409 -0.2748  0.1581 -0.3564
  691loPI   PO4 9358   4.712   3.581   5.940 -0.3954  0.0850  0.1761
  691loPI   GL1 9359   4.843   4.051   6.108  0.0922 -0.2691 -0.3183
  691loPI   GL2 9360   4.644   4.321   6.157 -0.0053 -0.3865  0.2073
  691loPI   C1A 9361   4.652   3.941   6.472 -0.0604 -0.1980  0.1953
  691loPI   C2A 9362   4.511   3.800   6.853  0.0660 -0.4235  0.2229
  691loPI   C3A 9363   4.630   3.573   7.185  0.0941 -0.0829 -0.1837
  691loPI   C4A 9364   4.968   3.568   7.613 -0.0772  0.2600  0.3601
  691loPI   C5A 9365   5.022   3.770   7.911 -0.2051 -0.2750  0.3683
  691loPI   C6A 9366   4.845   4.245   8.132 -0.1762  0.0174  0.0433
  691loPI   C1B 9367   4.746   4.571   6.451 -0.2560 -0.0898  0.0761
  691loPI   C2B 9368   4.900   4.760   6.805 -0.0760  0.0712 -0.1258
  691loPI   C3B 9369   5.086   4.919   7.177  0.1074  0.4036 -0.1832
  691loPI   C4B 9370   5.108   4.791   7.528  0.0635  0.1923  0.1559
  692loPI    C1 9371  13.741  15.992   5.246 -0.1092 -0.0584  0.1304
  692loPI    C2 9372  13.376  15.846   5.169 -0.1630  0.0501  0.1772
  692loPI    C3 9373  13.626  15.927   4.868  0.0243 -0.5271  0.1633
  692loPI   PO4 9374  13.710  16.189   5.332  0.0170 -0.0706 -0.2125
  692loPI   GL1 9375  13.503  16.377   5.758  0.0611 -0.2338  0.2196
  692loPI   GL2 9376  13.891  16.501   5.669 -0.0968  0.0399 -0.1844
  692loPI   C1A 9377  13.551  16.177   6.118  0.0423 -0.0267  0.0036
  692loPI   C2A 9378  13.422  15.905   6.497  0.1145 -0.1033  0.1026
  692loPI   C3A 9379  13.441  16.018   6.914  0.0850  0.0488  0.1209
  692loPI   C4A 9380  13.379  16.032   7.344 -0.2822 -0.3001 -0.2226
  692loPI   C5A 9381  13.074  16.214   7.715 -0.0647 -0.2454 -0.2599
  692loPI   C6A 9382  12.872  16.253   8.118 -0.0361  0.0562 -0.0693
  692loPI   C1B 9383  13.892  16.652   6.057 -0.2980 -0.0776  0.1176
  692loPI   C2B 9384  13.881  16.729   6.505  0.2268 -0.0435  0.5268
  692loPI   C3B 9385  13.946  16.802   6.903  0.3668 -0.0805  0.2395
  692loPI   C4B 9386  14.016  16.708   7.282  0.0750 -0.2251 -0.1524
  693loPI    C1 9387  16.491   2.416   5.421  0.0884  0.1731  0.0655
  693loPI    C2 9388  16.399   2.699   5.154 -0.0483  0.0118 -0.0614
  693loPI    C3 9389  16.781   2.593   5.210  0.0258  0.3642  0.1375
  693loPI   PO4 9390  16.256   2.363   5.505  0.1715 -0.1266 -0.0458
  693loPI   GL1 9391  15.773   2.143   5.612 -0.0781 -0.2787  0.3928
  693loPI   GL2 9392  15.732   2.497   5.689  0.0930 -0.0784  0.0878
  693loPI   C1A 9393  15.980   2.137   6.046 -0.1826  0.0980  0.2657
  693loPI   C2A 9394  16.036   2.161   6.510 -0.0203  0.2111  0.2004
  693loPI   C3A 9395  16.065   2.274   6.989 -0.0917  0.0686 -0.6201
  693loPI   C4A 9396  16.072   2.328   7.409  0.3006 -0.2253  0.2083
  693loPI   C5A 9397  16.037   2.719   7.762  0.0516  0.1647  0.0528
  693loPI   C6A 9398  16.045   3.099   8.002  0.0581  0.3598 -0.0226
  693loPI   C1B 9399  15.579   2.669   6.060  0.0634  0.0227 -0.1833
  693loPI   C2B 9400  15.601   2.799   6.484  0.2657  0.0460  0.1875
  693loPI   C3B 9401  15.734   3.119   6.645 -0.0194 -0.0589 -0.2200
  693loPI   C4B 9402  15.853   3.224   7.038  0.0379 -0.0813 -0.0391
  694loPI    C1 9403   8.637   7.114   5.545  0.0535 -0.1203  0.1514
  694loPI    C2 9404   8.417   6.781   5.516 -0.1869  0.0412  0.0897
  694loPI    C3 9405   8.500   6.994   5.188 -0.0657  0.0636  0.1343
  694loPI   PO4 9406   8.546   7.217   5.694  0.3178  0.0407 -0.1080
  694loPI   GL1 9407   8.476   7.054   6.098  0.3780 -0.1210  0.2695
  694loPI   GL2 9408   8.566   7.374   6.165  0.1503 -0.0831 -0.1043
  694loPI   C1A 9409   8.379   7.060   6.495 -0.0040 -0.1485 -0.3194
  694loPI   C2A 9410   8.352   7.154   6.880 -0.0314  0.0504  0.0482
  694loPI   C3A 9411   8.511   7.251   7.239 -0.0207 -0.1072  0.1130
  694loPI   C4A 9412   8.537   7.337   7.746 -0.2511 -0.1833 -0.2175
  694loPI   C5A 9413   8.737   7.511   8.089 -0.0719 -0.0771 -0.1429
  694loPI   C6A 9414   8.711   7.867   8.306 -0.1367 -0.2679 -0.5345
  694loPI   C1B 9415   8.642   7.574   6.540  0.1517 -0.1666 -0.2227
  694loPI   C2B 9416   8.356   7.668   6.862 -0.0218  0.1973 -0.1362
  694loPI   C3B 9417   8.303   7.716   7.257  0.0990 -0.1961 -0.3436
  694loPI   C4B 9418   8.179   8.076   7.498 -0.0472  0.0130  0.1335
  695loPI    C1 9419  11.270  16.400   5.795 -0.2670  0.0948 -0.1330
  695loPI    C2 9420  11.163  16.243   5.443  0.0304 -0.2641 -0.0688
  695loPI    C3 9421  11.457  16.515   5.461 -0.1498 -0.0632 -0.1225
  695loPI   PO4 9422  11.071  16.394   5.929 -0.2887  0.0766 -0.1344
  695loPI   GL1 9423  10.848  16.332   6.326  0.0130  0.2157 -0.1082
  695loPI   GL2 9424  11.130  16.338   6.499 -0.1381 -0.1879  0.2312
  695loPI   C1A 9425  11.088  16.799   6.558 -0.0235 -0.0315 -0.1613
  695loPI   C2A 9426  11.136  16.856   6.948 -0.0045 -0.2325  0.5023
  695loPI   C3A 9427  11.053  16.955   7.424 -0.0442 -0.1451  0.2392
  695loPI   C4A 9428  10.854  17.012   7.746  0.2626  0.1123 -0.1506
  695loPI   C5A 9429  10.678  17.117   8.090  0.0610  0.2240  0.2097
  695loPI   C6A 9430  10.802  17.403   8.288 -0.3402 -0.2378 -0.0445
  695loPI   C1B 9431  11.212  16.409   6.919 -0.0010  0.0253  0.1709
  695loPI   C2B 9432  11.293  16.428   7.376  0.2148  0.1325 -0.1194
  695loPI   C3B 9433  11.457  16.347   7.861 -0.3527 -0.4317  0.3629
  695loPI   C4B 9434  11.448  16.037   8.145  0.0444 -0.0699 -0.0536
  696loPI    C1 9435  12.274   6.194   5.657 -0.0115 -0.1669 -0.2000
  696loPI    C2 9436  12.047   6.523   5.635 -0.0894 -0.1942  0.1400
  696loPI    C3 9437  11.922   6.182   5.467 -0.2116 -0.1607  0.1621
  696loPI   PO4 9438  12.344   6.143   5.915  0.0685  0.0852  0.3409
  696loPI   GL1 9439  12.345   6.152   6.313  0.3561  0.0659 -0.2460
  696loPI   GL2 9440  12.458   6.281   6.520 -0.3806  0.1635  0.0280
  696loPI   C1A 9441  12.147   5.774   6.533  0.0208 -0.0870 -0.0258
  696loPI   C2A 9442  12.078   5.748   6.920 -0.0352  0.1082  0.2777
  696loPI   C3A 9443  12.147   5.563   7.243  0.0567 -0.0237  0.0485
  696loPI   C4A 9444  12.284   5.123   7.275  0.1846  0.2612 -0.2280
  696loPI   C5A 9445  12.331   4.779   6.952 -0.1747 -0.1803  0.0808
  696loPI   C6A 9446  12.410   4.386   6.842 -0.0168  0.2099 -0.1150
  696loPI   C1B 9447  12.417   6.360   6.975 -0.1372 -0.1057 -0.1267
  696loPI   C2B 9448  12.692   6.470   7.256  0.3862 -0.1831 -0.0560
  696loPI   C3B 9449  12.760   6.056   7.563 -0.0859 -0.1376 -0.1301
  696loPI   C4B 9450  12.660   5.748   7.886  0.2058  0.3767  0.1491
  697loPI    C1 9451  16.596   1.575   5.318 -0.0032 -0.0760 -0.0576
  697loPI    C2 9452  16.380   1.313   5.531  0.2846 -0.2970 -0.0322
  697loPI    C3 9453  16.569   1.195   5.199  0.1052 -0.0292 -0.2342
  697loPI   PO4 9454  16.595   1.807   5.563 -0.1450 -0.1528 -0.1236
  697loPI   GL1 9455  16.494   1.816   5.968 -0.3614 -0.0138  0.0562
  697loPI   GL2 9456  16.550   1.437   5.974 -0.0135 -0.0238 -0.1939
  697loPI   C1A 9457  16.185   1.743   6.214 -0.0579  0.2570 -0.3652
  697loPI   C2A 9458  16.124   1.710   6.652  0.2310  0.1128  0.1940
  697loPI   C3A 9459  15.977   1.767   7.013  0.1269 -0.1363 -0.3127
  697loPI   C4A 9460  16.091   1.729   7.411  0.2322  0.5023  0.0901
  697loPI   C5A 9461  16.314   1.517   7.664 -0.2782  0.0139  0.1406
  697loPI   C6A 9462  16.683   1.411   7.913 -0.3075  0.2633  0.2441
  697loPI   C1B 9463  16.467   1.404   6.401  0.4010 -0.1235  0.2172
  697loPI   C2B 9464  16.343   1.310   6.841  0.2544 -0.2335  0.0461
  697loPI   C3B 9465  16.493   1.562   7.162 -0.3811  0.4055  0.1793
  697loPI   C4B 9466  16.530   1.977   7.398  0.2346  0.2928  0.1016
  698loPI    C1 9467   7.916   6.575   5.406 -0.1361 -0.0040 -0.0281
  698loPI    C2 9468   7.828   6.915   5.215  0.1818  0.1649  0.1189
  698loPI    C3 9469   8.127   6.684   5.084 -0.0436 -0.0701  0.0099
  698loPI   PO4 9470   7.936   6.673   5.601  0.0911 -0.2311 -0.1223
  698loPI   GL1 9471   7.917   6.664   6.151  0.1076 -0.1804 -0.0579
  698loPI   GL2 9472   8.229   6.631   5.975  0.0342 -0.1285  0.0002
  698loPI   C1A 9473   7.950   6.833   6.595  0.0889 -0.0502  0.0022
  698loPI   C2A 9474   8.104   6.722   6.936  0.1230 -0.1083 -0.0252
  698loPI   C3A 9475   7.942   6.636   7.229  0.1076  0.0875 -0.2490
  698loPI   C4A 9476   7.726   6.647   7.636  0.2008 -0.0072 -0.0539
  698loPI   C5A 9477   7.717   6.466   8.062 -0.1267 -0.2187 -0.5252
  698loPI   C6A 9478   7.892   6.011   8.166 -0.2151 -0.0951 -0.2026
  698loPI   C1B 9479   8.281   6.468   6.449  0.1167  0.0486 -0.2693
  698loPI   C2B 9480   8.058   6.301   6.666 -0.1234  0.0323 -0.0570
  698loPI   C3B 9481   7.926   6.123   7.102 -0.1629 -0.1666  0.4301
  698loPI   C4B 9482   7.902   6.128   7.570  0.1001  0.1712 -0.2516
  699loPI    C1 9483  12.189   5.725   5.568  0.0482  0.1329 -0.1061
  699loPI    C2 9484  12.438   5.432   5.458 -0.1706 -0.0822 -0.0371
  699loPI    C3 9485  12.467   5.793   5.288 -0.0605 -0.2138 -0.3040
  699loPI   PO4 9486  11.904   5.589   5.631  0.1314  0.0756  0.1085
  699loPI   GL1 9487  11.807   5.271   6.004  0.0362  0.1433  0.1720
  699loPI   GL2 9488  11.966   4.916   6.037  0.5616 -0.1799  0.3878
  699loPI   C1A 9489  12.127   5.222   6.399 -0.1307  0.0674  0.2401
  699loPI   C2A 9490  12.566   4.938   6.515  0.2933  0.1070 -0.0141
  699loPI   C3A 9491  12.840   4.631   6.676 -0.1756  0.0776  0.0228
  699loPI   C4A 9492  12.841   4.455   7.090 -0.2654 -0.1027 -0.1166
  699loPI   C5A 9493  12.789   4.316   7.429 -0.1669  0.3169 -0.1395
  699loPI   C6A 9494  12.649   4.202   7.876 -0.0709 -0.2855 -0.2850
  699loPI   C1B 9495  11.901   4.813   6.550  0.0981 -0.1389 -0.1563
  699loPI   C2B 9496  11.845   4.564   6.907  0.2232  0.0461  0.1388
  699loPI   C3B 9497  12.066   4.335   7.209  0.2362 -0.2784 -0.2346
  699loPI   C4B 9498  12.343   4.045   7.490  0.0922 -0.2770 -0.1709
  700loPI    C1 9499   6.013  17.567   5.839  0.1493 -0.0748  0.1984
  700loPI    C2 9500   6.043  17.680   5.456  0.0472  0.1609  0.2585
  700loPI    C3 9501   5.837  17.351   5.552 -0.1606  0.2532  0.1351
  700loPI   PO4 9502   6.280  17.645   5.961  0.1325  0.1851  0.1549
  700loPI   GL1 9503   6.374  17.629   6.414  0.1729 -0.1007 -0.2613
  700loPI   GL2 9504   6.679  17.496   6.299  0.0410  0.3179  0.2724
  700loPI   C1A 9505   6.514  17.814   6.756 -0.0873  0.1666  0.0056
  700loPI   C2A 9506   6.484  17.855   7.130  0.0324  0.0660  0.0269
  700loPI   C3A 9507   6.459  18.385   7.335  0.1102  0.0358  0.1011
  700loPI   C4A 9508   6.632  18.471   7.703 -0.0963 -0.1809  0.4438
  700loPI   C5A 9509   6.542  18.308   8.151 -0.0029  0.2588 -0.0097
  700loPI   C6A 9510   6.711  18.232   8.642  0.2867 -0.0310 -0.0673
  700loPI   C1B 9511   6.817  17.338   6.553 -0.3247  0.0356 -0.1421
  700loPI   C2B 9512   6.797  17.404   6.924  0.1641 -0.2324 -0.1719
  700loPI   C3B 9513   6.706  17.494   7.358  0.1310 -0.1452 -0.1672
  700loPI   C4B 9514   6.478  17.531   7.682  0.0082  0.0772 -0.0991
  701loPI    C1 9515  12.075  12.106   5.691 -0.0760  0.1034 -0.0073
  701loPI    C2 9516  12.332  11.875   5.489 -0.0707  0.1667 -0.0736
  701loPI    C3 9517  11.945  11.777   5.504 -0.0437  0.0727  0.0242
  701loPI   PO4 9518  12.219  12.235   5.907  0.1951  0.2732  0.0835
  701loPI   GL1 9519  12.474  12.626   6.193  0.0521 -0.2451  0.1476
  701loPI   GL2 9520  12.133  12.442   6.368  0.5328  0.0849 -0.0214
  701loPI   C1A 9521  12.467  12.549   6.746  0.3789 -0.1736 -0.2256
  701loPI   C2A 9522  12.534  12.765   7.175  0.0997 -0.1363  0.0079
  701loPI   C3A 9523  12.416  12.823   7.623  0.1683  0.0587  0.5823
  701loPI   C4A 9524  12.313  12.704   8.089  0.0319 -0.0903  0.0194
  701loPI   C5A 9525  12.483  12.266   8.286 -0.0814  0.2245 -0.0468
  701loPI   C6A 9526  12.669  11.870   8.448 -0.1517  0.0630 -0.1977
  701loPI   C1B 9527  11.867  12.830   6.569 -0.1863  0.1309 -0.1262
  701loPI   C2B 9528  11.709  12.988   6.855  0.0416 -0.1631  0.2669
  701loPI   C3B 9529  11.489  12.793   7.313  0.1120  0.0651  0.1437
  701loPI   C4B 9530  11.392  12.670   7.756  0.3774  0.2043  0.0625
  702loPI    C1 9531  16.905   6.372   5.825 -0.1170 -0.0337 -0.1059
  702loPI    C2 9532  16.766   6.067   5.608  0.3065 -0.2163 -0.1299
  702loPI    C3 9533  17.102   6.253   5.499  0.1790  0.1082  0.0172
  702loPI   PO4 9534  16.909   6.260   6.032  0.0728 -0.2982  0.0513
  702loPI   GL1 9535  16.764   5.894   6.213  0.1914 -0.1047  0.2124
  702loPI   GL2 9536  16.517   5.932   6.054 -0.0563  0.0515 -0.3710
  702loPI   C1A 9537  16.778   5.934   6.682 -0.1023  0.0447  0.1120
  702loPI   C2A 9538  16.798   5.913   7.173 -0.0382  0.2992  0.1208
  702loPI   C3A 9539  16.794   5.713   7.541  0.0809 -0.0993 -0.0139
  702loPI   C4A 9540  17.090   5.518   7.844  0.2167  0.0669 -0.5392
  702loPI   C5A 9541  17.437   5.350   8.029  0.0338  0.0521  0.1829
  702loPI   C6A 9542  17.669   5.237   8.400 -0.0103 -0.2300  0.1817
  702loPI   C1B 9543  16.241   5.932   6.430  0.1348  0.2338 -0.0866
  702loPI   C2B 9544  16.266   5.833   6.820  0.1327 -0.0466  0.0219
  702loPI   C3B 9545  16.297   5.857   7.311  0.3648 -0.1942  0.2894
  702loPI   C4B 9546  16.045   5.593   7.613  0.1585 -0.1828 -0.4036
  703loPI    C1 9547  10.491   7.335   5.577 -0.0389 -0.0512  0.0539
  703loPI    C2 9548  10.528   6.977   5.403  0.0215 -0.0318  0.0266
  703loPI    C3 9549  10.567   7.310   5.185 -0.1085 -0.0089  0.0375
  703loPI   PO4 9550  10.420   7.258   5.787 -0.0967  0.1426 -0.0515
  703loPI   GL1 9551  10.356   7.270   6.268  0.1523  0.1497 -0.0562
  703loPI   GL2 9552  10.654   7.353   6.463 -0.1113  0.1371 -0.0326
  703loPI   C1A 9553  10.256   7.510   6.619  0.0258 -0.0140 -0.1961
  703loPI   C2A 9554  10.196   7.715   7.029  0.1353  0.2280 -0.0030
  703loPI   C3A 9555  10.215   7.930   7.501 -0.0262 -0.1511 -0.0684
  703loPI   C4A 9556  10.254   7.931   7.928  0.0950  0.1929 -0.1927
  703loPI   C5A 9557  10.314   7.894   8.384 -0.2323  0.1647  0.2420
  703loPI   C6A 9558  10.317   7.671   8.745 -0.1351  0.0948 -0.2617
  703loPI   C1B 9559  10.761   7.402   6.937  0.0525  0.1006 -0.0766
  703loPI   C2B 9560  10.608   7.552   7.330  0.0648  0.2022 -0.1166
  703loPI   C3B 9561  10.684   7.425   7.739 -0.2288  0.3617  0.1139
  703loPI   C4B 9562  10.718   7.695   7.997 -0.0988 -0.2367 -0.0484
  704loPI    C1 9563   0.349  14.841   5.184  0.0165 -0.0126  0.0184
  704loPI    C2 9564   0.299  14.793   4.790 -0.1665 -0.0377  0.0441
  704loPI    C3 9565   0.168  14.513   5.044  0.4070 -0.2695  0.0990
  704loPI   PO4 9566   0.300  15.028   5.250 -0.0612 -0.0163 -0.2705
  704loPI   GL1 9567   0.214  15.090   5.619 -0.2476 -0.0346  0.2495
  704loPI   GL2 9568   0.164  15.432   5.798  0.0177 -0.3889 -0.3231
  704loPI   C1A 9569   0.492  14.940   5.944 -0.0715  0.2906  0.0029
  704loPI   C2A 9570   0.424  14.890   6.401  0.2268  0.0570 -0.1865
  704loPI   C3A 9571   0.349  14.803   6.859 -0.1821  0.0903 -0.1223
  704loPI   C4A 9572   0.297  14.868   7.252  0.1419 -0.0930  0.1759
  704loPI   C5A 9573   0.355  15.010   7.598  0.0118 -0.3710 -0.4659
  704loPI   C6A 9574   0.357  15.424   7.864 -0.2047  0.0095 -0.1855
  704loPI   C1B 9575   0.135  15.201   6.130 -0.0342  0.1845 -0.0986
  704loPI   C2B 9576   0.086  15.238   6.587 -0.1176  0.0330  0.2107
  704loPI   C3B 9577   0.146  15.323   6.994  0.0223  0.0073  0.1082
  704loPI   C4B 9578   0.343  15.510   7.305  0.2463  0.0769  0.2331
  705loPI    C1 9579   0.875  12.622   5.455 -0.0806  0.0013  0.3363
  705loPI    C2 9580   0.603  12.536   5.736 -0.1608 -0.1137  0.2244
  705loPI    C3 9581   0.559  12.394   5.365 -0.1534  0.1898  0.1044
  705loPI   PO4 9582   1.074  12.650   5.686  0.1041  0.0737  0.0439
  705loPI   GL1 9583   1.185  12.599   6.051 -0.2370 -0.0539 -0.0828
  705loPI   GL2 9584   1.480  12.453   5.989  0.0918  0.0111  0.2372
  705loPI   C1A 9585   1.223  12.378   6.452 -0.0090  0.2272  0.1532
  705loPI   C2A 9586   1.088  12.348   6.917 -0.0058 -0.0551  0.0641
  705loPI   C3A 9587   1.231  12.147   7.389 -0.1860 -0.1023  0.1075
  705loPI   C4A 9588   1.473  11.826   7.543  0.1386 -0.0464 -0.0133
  705loPI   C5A 9589   1.308  11.376   7.619 -0.0750 -0.0551 -0.1120
  705loPI   C6A 9590   1.315  11.022   7.336  0.1623 -0.1584  0.1407
  705loPI   C1B 9591   1.588  12.667   6.471 -0.0627  0.0366  0.0843
  705loPI   C2B 9592   1.605  12.605   6.826 -0.3588  0.2752 -0.1283
  705loPI   C3B 9593   1.905  12.706   7.133 -0.1127 -0.1066 -0.2249
  705loPI   C4B 9594   2.264  12.992   7.295 -0.0448 -0.2057 -0.1419
  706loPI    C1 9595   3.140   9.921   5.662  0.1281 -0.0533  0.0608
  706loPI    C2 9596   3.389   9.942   5.350  0.3299  0.1617  0.2320
  706loPI    C3 9597   3.013  10.075   5.315  0.2244 -0.1893 -0.0358
  706loPI   PO4 9598   3.215   9.597   5.798  0.3062 -0.0436  0.1489
  706loPI   GL1 9599   3.189   9.201   6.100  0.0435  0.0135  0.0028
  706loPI   GL2 9600   2.889   9.323   6.195 -0.3284 -0.2547 -0.0554
  706loPI   C1A 9601   3.116   8.949   6.471  0.0629  0.0968  0.1056
  706loPI   C2A 9602   3.111   9.018   6.862  0.4995 -0.1075 -0.1053
  706loPI   C3A 9603   3.119   9.284   7.223  0.0141 -0.0143 -0.1397
  706loPI   C4A 9604   3.149   9.472   7.697  0.1738  0.0147  0.0871
  706loPI   C5A 9605   2.924   9.606   8.032 -0.1377 -0.0497 -0.0281
  706loPI   C6A 9606   2.616   9.754   7.960  0.0824 -0.2577 -0.1278
  706loPI   C1B 9607   2.769   9.297   6.619 -0.0398 -0.0618 -0.2822
  706loPI   C2B 9608   2.668   9.362   7.019 -0.1723  0.3079  0.1701
  706loPI   C3B 9609   2.665   9.269   7.355  0.1087 -0.2311  0.1306
  706loPI   C4B 9610   2.573   9.300   7.762  0.0050  0.1696  0.1413
  707loPI    C1 9611   7.104  14.427   5.443 -0.1721 -0.3374  0.0519
  707loPI    C2 9612   7.321  14.737   5.572  0.0358 -0.2963 -0.3778
  707loPI    C3 9613   7.018  14.599   5.794  0.3809 -0.2373  0.1483
  707loPI   PO4 9614   7.358  14.253   5.440  0.0070 -0.2756 -0.0894
  707loPI   GL1 9615   7.547  14.155   5.813  0.3291  0.2658  0.4766
  707loPI   GL2 9616   7.371  14.302   5.959  0.3545 -0.3616  0.0091
  707loPI   C1A 9617   7.856  14.235   6.028  0.0884  0.1653 -0.2126
  707loPI   C2A 9618   8.181  14.283   6.257  0.0476  0.1878  0.5333
  707loPI   C3A 9619   8.249  14.238   6.650 -0.2784 -0.3364  0.1746
  707loPI   C4A 9620   8.316  14.247   7.069  0.1463  0.1350  0.0926
  707loPI   C5A 9621   8.570  14.406   7.536 -0.1636 -0.0855  0.1589
  707loPI   C6A 9622   8.918  14.475   7.893  0.1607  0.1312 -0.4399
  707loPI   C1B 9623   7.345  14.291   6.312  0.1284 -0.3162  0.1582
  707loPI   C2B 9624   7.755  14.289   6.529 -0.0129  0.0423  0.0320
  707loPI   C3B 9625   7.843  14.311   6.920  0.0542  0.3797 -0.1030
  707loPI   C4B 9626   7.934  14.568   7.315  0.0080  0.1504 -0.1879
  708loPI    C1 9627  18.044  16.169   5.315 -0.1504  0.2626  0.1805
  708loPI    C2 9628  17.796  16.127   5.004  0.0135  0.0926  0.0705
  708loPI    C3 9629  17.649  16.193   5.369 -0.1872  0.1284 -0.0156
  708loPI   PO4 9630  18.287  16.036   5.289 -0.0892 -0.1197 -0.3595
  708loPI   GL1 9631  18.544  15.843   5.589  0.2991  0.0719  0.2161
  708loPI   GL2 9632  18.773  16.054   5.494 -0.2538  0.0484 -0.0321
  708loPI   C1A 9633  18.649  15.950   6.003  0.1573 -0.2484  0.0475
  708loPI   C2A 9634  18.702  15.951   6.384 -0.3033  0.1685  0.1023
  708loPI   C3A 9635  18.653  16.245   6.714  0.1374  0.1788  0.1036
  708loPI   C4A 9636  18.621  16.074   7.104  0.3820 -0.1075  0.0152
  708loPI   C5A 9637  18.780  15.952   7.514 -0.4577 -0.4342 -0.2534
  708loPI   C6A 9638  18.996  15.829   7.913 -0.2166  0.5241 -0.0442
  708loPI   C1B 9639  19.040  15.825   5.751  0.2788 -0.0558 -0.1245
  708loPI   C2B 9640  19.205  15.899   6.106  0.0499  0.3223  0.1448
  708loPI   C3B 9641  19.366  15.658   6.468  0.2014  0.4581  0.1768
  708loPI   C4B 9642  19.476  15.311   6.319  0.0656  0.0326 -0.1859
  709loPI    C1 9643  17.731  16.755   5.004  0.1830 -0.0030  0.0403
  709loPI    C2 9644  18.050  16.784   4.765  0.0424 -0.0269 -0.1523
  709loPI    C3 9645  17.756  16.528   4.675 -0.1222  0.1365 -0.0821
  709loPI   PO4 9646  17.796  16.696   5.247  0.2236  0.0402 -0.2272
  709loPI   GL1 9647  17.623  16.839   5.674  0.0170  0.3488  0.1489
  709loPI   GL2 9648  17.912  16.605   5.676  0.0388 -0.0731  0.2746
  709loPI   C1A 9649  17.575  17.062   6.084  0.0360  0.2010  0.1597
  709loPI   C2A 9650  17.587  17.263   6.508  0.2887 -0.0273 -0.1667
  709loPI   C3A 9651  17.540  17.416   7.004  0.4064  0.0208 -0.1298
  709loPI   C4A 9652  17.305  17.584   7.372  0.2012 -0.0327  0.0933
  709loPI   C5A 9653  17.362  17.746   7.690 -0.0163  0.2595  0.1625
  709loPI   C6A 9654  17.559  18.147   7.787  0.2293  0.0691 -0.0064
  709loPI   C1B 9655  17.789  16.581   6.084 -0.0101  0.1357 -0.1594
  709loPI   C2B 9656  17.677  16.434   6.585  0.0120  0.2051  0.2937
  709loPI   C3B 9657  17.383  16.567   6.933  0.1109 -0.3260 -0.0383
  709loPI   C4B 9658  17.442  16.688   7.386  0.1105  0.0565  0.2322
  710loPI    C1 9659   0.531   1.830   5.578 -0.3923 -0.0435  0.0480
  710loPI    C2 9660   0.737   1.992   5.276  0.0371 -0.4337  0.1214
  710loPI    C3 9661   0.544   2.228   5.535  0.3487 -0.0577  0.0205
  710loPI   PO4 9662   0.698   1.749   5.772  0.0078 -0.1048  0.1727
  710loPI   GL1 9663   0.955   1.654   6.132 -0.0342  0.1643  0.0254
  710loPI   GL2 9664   0.615   1.702   6.283  0.0624 -0.2970 -0.2259
  710loPI   C1A 9665   0.987   1.409   6.523 -0.0002  0.1299  0.0244
  710loPI   C2A 9666   1.051   1.215   6.911 -0.1574 -0.0349 -0.1600
  710loPI   C3A 9667   1.146   1.246   7.298 -0.3121 -0.0254 -0.4201
  710loPI   C4A 9668   1.210   1.147   7.780 -0.2917  0.1561 -0.0239
  710loPI   C5A 9669   1.253   1.339   8.140  0.1562 -0.1430  0.0535
  710loPI   C6A 9670   1.490   1.277   8.450 -0.0631 -0.0639  0.0515
  710loPI   C1B 9671   0.530   1.639   6.661 -0.1429 -0.2469 -0.0523
  710loPI   C2B 9672   0.779   1.615   7.034  0.1456  0.3120  0.1144
  710loPI   C3B 9673   0.948   1.796   7.368 -0.0574  0.1347  0.3835
  710loPI   C4B 9674   1.039   1.623   7.688  0.3960 -0.1108  0.0483
  711loPI    C1 9675   4.817  17.155   5.811  0.0772 -0.0971  0.0072
  711loPI    C2 9676   4.860  17.155   5.413  0.2406  0.0630  0.0235
  711loPI    C3 9677   4.565  16.944   5.583  0.2812 -0.1536 -0.1696
  711loPI   PO4 9678   5.065  17.048   5.887 -0.4447 -0.1555 -0.1864
  711loPI   GL1 9679   5.200  17.131   6.221 -0.1421 -0.0282 -0.1020
  711loPI   GL2 9680   5.020  17.491   6.211  0.4149  0.0327  0.0123
  711loPI   C1A 9681   5.372  17.264   6.588 -0.2572  0.1682 -0.1909
  711loPI   C2A 9682   5.508  17.305   6.944 -0.0653 -0.0645 -0.2386
  711loPI   C3A 9683   5.561  17.383   7.340  0.1187 -0.0292  0.1033
  711loPI   C4A 9684   5.483  17.271   7.719 -0.0426  0.3069 -0.1471
  711loPI   C5A 9685   5.695  17.421   8.011  0.2470  0.1834 -0.0098
  711loPI   C6A 9686   5.893  17.416   8.484  0.3457 -0.0068 -0.0703
  711loPI   C1B 9687   5.029  17.712   6.611 -0.0761 -0.0944 -0.2019
  711loPI   C2B 9688   5.112  17.633   7.060 -0.2288  0.1975 -0.2508
  711loPI   C3B 9689   5.167  17.592   7.510  0.1003  0.1242 -0.2897
  711loPI   C4B 9690   5.249  17.730   7.903  0.1911 -0.0161 -0.0169
  712loPI    C1 9691   7.710  12.440   5.867  0.0032  0.0196 -0.0136
  712loPI    C2 9692   7.934  12.547   5.554  0.1352  0.1674  0.1289
  712loPI    C3 9693   7.916  12.163   5.666 -0.2672  0.0425 -0.3301
  712loPI   PO4 9694   7.845  12.642   6.091 -0.1844  0.2848 -0.2373
  712loPI   GL1 9695   8.262  12.662   6.234  0.0859 -0.1508  0.1623
  712loPI   GL2 9696   8.036  12.579   6.554  0.0218 -0.4131  0.1814
  712loPI   C1A 9697   8.493  12.849   6.562  0.1570 -0.3684  0.1902
  712loPI   C2A 9698   8.779  12.936   7.032  0.1708 -0.0120 -0.0875
  712loPI   C3A 9699   8.768  12.988   7.420 -0.2169  0.2494  0.1426
  712loPI   C4A 9700   8.800  12.908   7.945 -0.2571  0.1309  0.0686
  712loPI   C5A 9701   8.724  13.122   8.335  0.0949 -0.0354  0.1420
  712loPI   C6A 9702   8.781  13.585   8.447 -0.0489 -0.4110  0.1229
  712loPI   C1B 9703   7.863  12.342   6.886 -0.0235 -0.0260 -0.2989
  712loPI   C2B 9704   7.772  12.322   7.399 -0.1090 -0.0313 -0.0840
  712loPI   C3B 9705   7.927  12.204   7.745 -0.0433 -0.0179  0.2322
  712loPI   C4B 9706   8.151  12.045   8.076  0.0260  0.1570 -0.1711
  713loPI    C1 9707  12.278   1.339   4.885  0.3043  0.1058 -0.0676
  713loPI    C2 9708  12.041   1.525   4.622  0.1648  0.2617  0.1643
  713loPI    C3 9709  12.131   1.138   4.572 -0.0780  0.2204  0.0341
  713loPI   PO4 9710  12.168   1.446   5.148  0.0774  0.0237 -0.1120
  713loPI   GL1 9711  12.146   1.414   5.579 -0.2119 -0.2181  0.0318
  713loPI   GL2 9712  12.209   1.146   5.709  0.2044 -0.3317  0.2032
  713loPI   C1A 9713  12.374   1.643   5.858  0.0078 -0.0246 -0.2446
  713loPI   C2A 9714  12.698   1.519   6.123  0.0716  0.1261 -0.1401
  713loPI   C3A 9715  12.726   1.545   6.460 -0.1126 -0.0334  0.2691
  713loPI   C4A 9716  12.966   1.758   6.777 -0.1591  0.0645  0.1152
  713loPI   C5A 9717  12.919   1.696   7.272 -0.0944 -0.0515  0.1711
  713loPI   C6A 9718  12.967   1.615   7.648  0.0697  0.0231 -0.1121
  713loPI   C1B 9719  12.255   1.281   6.168 -0.2894  0.2872 -0.0365
  713loPI   C2B 9720  12.354   1.284   6.605  0.2064  0.2242 -0.2170
  713loPI   C3B 9721  12.658   1.360   6.965  0.0205 -0.1673  0.1446
  713loPI   C4B 9722  12.623   1.328   7.362 -0.3455  0.1697  0.0163
  714loPI    C1 9723  16.368  16.162   5.175 -0.0116 -0.1510 -0.1300
  714loPI    C2 9724  16.075  16.431   5.129  0.1908  0.1392  0.2250
  714loPI    C3 9725  16.442  16.507   4.988  0.1101 -0.2131 -0.1980
  714loPI   PO4 9726  16.303  16.002   5.402 -0.3333  0.0288 -0.0869
  714loPI   GL1 9727  16.347  16.142   5.845 -0.3752  0.1373 -0.0430
  714loPI   GL2 9728  16.385  15.784   5.866 -0.1491 -0.0092  0.1107
  714loPI   C1A 9729  16.377  16.369   6.066  0.0023 -0.1421 -0.1581
  714loPI   C2A 9730  16.274  16.593   6.353 -0.1250  0.0598 -0.1695
  714loPI   C3A 9731  16.248  16.856   6.759 -0.4179 -0.0053  0.3689
  714loPI   C4A 9732  16.329  16.760   7.241  0.0007 -0.0834  0.0534
  714loPI   C5A 9733  16.277  16.899   7.625  0.0374  0.0366 -0.0910
  714loPI   C6A 9734  16.008  16.951   7.873 -0.2893 -0.0298 -0.0197
  714loPI   C1B 9735  16.184  15.625   6.206  0.2837 -0.0366 -0.1448
  714loPI   C2B 9736  16.205  15.665   6.609 -0.2120  0.1457  0.1894
  714loPI   C3B 9737  16.196  15.777   6.995 -0.0336 -0.1901  0.3571
  714loPI   C4B 9738  16.175  15.829   7.399  0.1847 -0.0956  0.0187
  715loPI    C1 9739   8.021  17.257   5.555 -0.0783  0.1609 -0.1322
  715loPI    C2 9740   7.936  16.866   5.546 -0.2352  0.1948 -0.1504
  715loPI    C3 9741   8.174  17.025   5.268  0.2464  0.0186  0.1489
  715loPI   PO4 9742   8.129  17.323   5.810  0.0219 -0.1018  0.0444
  715loPI   GL1 9743   8.206  17.582   6.151 -0.2192  0.0124  0.0040
  715loPI   GL2 9744   7.749  17.426   6.124  0.1164 -0.2492  0.0971
  715loPI   C1A 9745   8.466  17.555   6.471  0.0706 -0.1415  0.1736
  715loPI   C2A 9746   8.524  17.656   6.801  0.0899 -0.0297  0.0270
  715loPI   C3A 9747   8.383  17.838   7.188  0.5517  0.2526 -0.0665
  715loPI   C4A 9748   8.489  18.074   7.487 -0.0273  0.1453  0.0924
  715loPI   C5A 9749   8.887  17.876   7.683  0.1556 -0.0101 -0.2911
  715loPI   C6A 9750   9.168  18.126   7.994  0.1834  0.0663 -0.1005
  715loPI   C1B 9751   7.918  17.345   6.567 -0.2419  0.0087 -0.1113
  715loPI   C2B 9752   8.219  17.174   6.754 -0.2381  0.1550  0.0313
  715loPI   C3B 9753   8.289  17.360   7.241 -0.0691 -0.3165  0.0344
  715loPI   C4B 9754   8.260  17.654   7.604  0.2384  0.1010 -0.1676
  716loPI    C1 9755   5.314   6.865   5.728 -0.0250 -0.1060  0.0750
  716loPI    C2 9756   5.507   6.921   5.383  0.0578  0.0418  0.1447
  716loPI    C3 9757   5.358   6.561   5.472 -0.0967  0.0399 -0.1125
  716loPI   PO4 9758   5.484   7.005   5.948 -0.2587  0.2192  0.1747
  716loPI   GL1 9759   5.415   7.113   6.275 -0.1005  0.2839  0.1109
  716loPI   GL2 9760   5.648   7.400   6.443  0.1769 -0.1958  0.2164
  716loPI   C1A 9761   5.243   7.191   6.695  0.0623  0.2253 -0.0150
  716loPI   C2A 9762   5.307   7.305   7.145  0.1035 -0.1398 -0.0032
  716loPI   C3A 9763   5.474   7.418   7.529  0.2024  0.3477 -0.2125
  716loPI   C4A 9764   5.793   7.370   7.892 -0.1298  0.0252  0.3272
  716loPI   C5A 9765   6.004   7.345   8.302  0.2561 -0.0657  0.3399
  716loPI   C6A 9766   6.019   7.158   8.636  0.0825 -0.2418  0.1195
  716loPI   C1B 9767   5.784   7.277   6.932 -0.4612  0.0429  0.0870
  716loPI   C2B 9768   5.923   7.438   7.275  0.3640 -0.1816  0.3425
  716loPI   C3B 9769   5.965   7.157   7.494  0.2633  0.0997 -0.3410
  716loPI   C4B 9770   6.064   6.917   7.903 -0.2377 -0.2852 -0.0543
  717loPI    C1 9771   4.265  15.424   5.573 -0.0468  0.2398  0.0909
  717loPI    C2 9772   4.209  15.300   5.197  0.1275 -0.1039  0.1745
  717loPI    C3 9773   4.393  15.648   5.268 -0.0042  0.0154 -0.0584
  717loPI   PO4 9774   3.927  15.459   5.741  0.2259 -0.0482  0.0128
  717loPI   GL1 9775   3.844  15.682   6.067  0.1359 -0.0583 -0.4713
  717loPI   GL2 9776   4.048  15.753   6.222 -0.2118 -0.0341  0.0608
  717loPI   C1A 9777   3.556  15.607   6.444 -0.2378 -0.0880 -0.2670
  717loPI   C2A 9778   3.476  15.687   6.930 -0.1561  0.0149 -0.2264
  717loPI   C3A 9779   3.657  15.611   7.381  0.1667  0.0868  0.0039
  717loPI   C4A 9780   3.557  15.519   7.749  0.1356 -0.1711 -0.4729
  717loPI   C5A 9781   3.278  15.057   7.863 -0.0164 -0.0898 -0.2047
  717loPI   C6A 9782   3.067  14.867   8.309  0.0455  0.1784  0.1259
  717loPI   C1B 9783   4.027  15.776   6.590  0.1986 -0.0703  0.1706
  717loPI   C2B 9784   4.047  15.818   7.021 -0.1648  0.0913  0.2483
  717loPI   C3B 9785   4.138  15.815   7.531 -0.1962 -0.1655 -0.0501
  717loPI   C4B 9786   4.167  16.058   7.896 -0.1206 -0.1209  0.3666
  718loPI    C1 9787  13.768   0.790   5.214  0.0704  0.1447  0.1075
  718loPI    C2 9788  14.046   0.579   5.018 -0.1190 -0.0641  0.0600
  718loPI    C3 9789  13.885   0.904   4.849 -0.1861 -0.1677 -0.0775
  718loPI   PO4 9790  13.844   0.664   5.462  0.1878 -0.1490  0.0319
  718loPI   GL1 9791  13.850   0.695   5.846  0.0858  0.0176  0.1077
  718loPI   GL2 9792  13.812   1.045   5.887  0.1484  0.0960 -0.1564
  718loPI   C1A 9793  13.655   0.521   6.240 -0.1288  0.2360 -0.0994
  718loPI   C2A 9794  13.705   0.576   6.696 -0.1030 -0.3771 -0.3290
  718loPI   C3A 9795  13.890   0.652   7.152  0.1152  0.1340 -0.1401
  718loPI   C4A 9796  13.933   0.600   7.625  0.0974 -0.1330 -0.1959
  718loPI   C5A 9797  14.348   0.680   7.939  0.2202  0.2000 -0.2133
  718loPI   C6A 9798  14.697   0.655   7.825 -0.2427 -0.1030  0.1199
  718loPI   C1B 9799  13.649   1.045   6.287 -0.2561 -0.2730  0.0906
  718loPI   C2B 9800  13.678   1.099   6.725  0.2449  0.0272 -0.1732
  718loPI   C3B 9801  13.811   1.307   7.092  0.0825  0.0180 -0.1396
  718loPI   C4B 9802  13.846   1.631   7.416  0.0034 -0.3161 -0.0323
  719loPI    C1 9803  16.436   5.552   5.761  0.0476  0.0796  0.0706
  719loPI    C2 9804  16.833   5.570   5.716  0.0155  0.1378 -0.2070
  719loPI    C3 9805  16.594   5.621   5.400 -0.2122  0.0352 -0.0536
  719loPI   PO4 9806  16.409   5.379   5.828 -0.0491  0.3670  0.0085
  719loPI   GL1 9807  16.790   5.246   6.069 -0.2057 -0.0023 -0.0551
  719loPI   GL2 9808  16.807   4.947   6.227 -0.1039  0.1579  0.2104
  719loPI   C1A 9809  16.717   5.483   6.449  0.1030  0.0889  0.2801
  719loPI   C2A 9810  16.758   5.482   6.858  0.3187  0.0041  0.2702
  719loPI   C3A 9811  16.966   5.394   7.252 -0.0186 -0.1170 -0.1846
  719loPI   C4A 9812  16.839   5.122   7.616 -0.2264 -0.0440  0.2933
  719loPI   C5A 9813  16.626   4.957   7.866 -0.0419 -0.1570  0.0414
  719loPI   C6A 9814  16.530   5.028   8.258 -0.2411  0.2528 -0.2027
  719loPI   C1B 9815  16.655   5.042   6.612 -0.1593  0.0421  0.0958
  719loPI   C2B 9816  16.591   5.028   7.066  0.0054  0.2647 -0.4889
  719loPI   C3B 9817  16.451   4.867   7.417  0.1428 -0.0579 -0.1789
  719loPI   C4B 9818  16.161   5.106   7.796  0.0535 -0.0281  0.0576
  720loPI    C1 9819  15.531   5.419   6.001  0.2051  0.1534  0.0152
  720loPI    C2 9820  15.379   5.353   5.637  0.0563  0.0454  0.0959
  720loPI    C3 9821  15.298   5.695   5.829  0.1081  0.0884  0.0414
  720loPI   PO4 9822  15.723   5.186   5.949  0.3971  0.4520 -0.2213
  720loPI   GL1 9823  16.024   5.117   6.231  0.1115  0.2006 -0.3165
  720loPI   GL2 9824  16.350   5.106   6.247  0.2387  0.1602 -0.1342
  720loPI   C1A 9825  15.757   5.297   6.558 -0.3433  0.0927  0.2770
  720loPI   C2A 9826  15.697   5.238   6.959 -0.1256  0.0410 -0.1054
  720loPI   C3A 9827  15.895   5.214   7.365  0.3257  0.2082 -0.1529
  720loPI   C4A 9828  15.704   5.252   7.788 -0.0931  0.0148  0.0444
  720loPI   C5A 9829  15.599   5.410   8.187  0.0063 -0.2611 -0.2093
  720loPI   C6A 9830  15.851   5.524   8.637 -0.0610  0.0362 -0.1939
  720loPI   C1B 9831  16.134   4.868   6.630  0.0863  0.0047 -0.1703
  720loPI   C2B 9832  16.102   4.864   7.023  0.0450 -0.1961  0.1854
  720loPI   C3B 9833  15.925   4.707   7.416 -0.2231  0.0262  0.1566
  720loPI   C4B 9834  15.845   4.742   7.772 -0.0977 -0.1729  0.0112
  721loPI    C1 9835  12.379  10.104   5.711 -0.1022  0.0306 -0.2112
  721loPI    C2 9836  12.762  10.212   5.669 -0.0586 -0.0474 -0.0249
  721loPI    C3 9837  12.554  10.083   5.352  0.0914 -0.0770 -0.1120
  721loPI   PO4 9838  12.428  10.072   6.010  0.0103 -0.1133  0.0651
  721loPI   GL1 9839  12.239  10.017   6.424  0.1822 -0.3217 -0.2980
  721loPI   GL2 9840  12.147   9.868   6.645 -0.1897 -0.1318  0.3860
  721loPI   C1A 9841  12.527  10.249   6.616 -0.0988  0.0191 -0.1052
  721loPI   C2A 9842  12.449  10.439   6.972  0.1789  0.0855 -0.0020
  721loPI   C3A 9843  12.258  10.787   7.304 -0.4184  0.2645 -0.3382
  721loPI   C4A 9844  12.070  10.991   7.667  0.1534 -0.0770  0.2876
  721loPI   C5A 9845  12.063  11.032   8.104 -0.2055 -0.1486  0.2879
  721loPI   C6A 9846  12.252  11.089   8.443 -0.2019  0.0054 -0.0473
  721loPI   C1B 9847  12.329   9.852   6.968 -0.0817 -0.3024  0.3171
  721loPI   C2B 9848  12.415   9.991   7.367  0.3388  0.0022 -0.1793
  721loPI   C3B 9849  12.305  10.423   7.815 -0.0934 -0.1556  0.2044
  721loPI   C4B 9850  12.415  10.526   8.217 -0.2615  0.0380  0.1303
  722loPI    C1 9851  15.402  10.026   6.002 -0.1385  0.0209 -0.1433
  722loPI    C2 9852  15.646  10.244   5.771  0.1575 -0.0691  0.0791
  722loPI    C3 9853  15.436   9.943   5.612  0.1367  0.0528 -0.1280
  722loPI   PO4 9854  15.364  10.263   6.176  0.3325 -0.1781 -0.3963
  722loPI   GL1 9855  15.174  10.416   6.676 -0.1542  0.1260 -0.1871
  722loPI   GL2 9856  15.254  10.680   6.518 -0.1247  0.2361  0.2395
  722loPI   C1A 9857  14.763  10.383   6.849 -0.1295 -0.0199 -0.0381
  722loPI   C2A 9858  14.523  10.446   7.175  0.0484 -0.2707  0.0936
  722loPI   C3A 9859  14.068  10.402   7.168 -0.2024  0.0967  0.2976
  722loPI   C4A 9860  13.727  10.173   7.352  0.1338  0.1084 -0.1550
  722loPI   C5A 9861  13.687   9.895   7.633 -0.2621  0.1640 -0.2929
  722loPI   C6A 9862  13.908   9.879   8.063  0.1455 -0.0329 -0.2486
  722loPI   C1B 9863  15.108  10.798   6.884 -0.3368 -0.1637 -0.0855
  722loPI   C2B 9864  14.942  10.735   7.284 -0.0965 -0.1201  0.3239
  722loPI   C3B 9865  14.806  10.714   7.732  0.0637  0.1155 -0.1923
  722loPI   C4B 9866  14.818  10.794   8.243  0.1115  0.0407 -0.3485
  723loPI    C1 9867   8.017   5.306   5.676 -0.0803 -0.1790  0.1386
  723loPI    C2 9868   8.135   5.306   5.294 -0.2297 -0.1003  0.0918
  723loPI    C3 9869   7.890   5.593   5.428 -0.1493 -0.1073  0.2558
  723loPI   PO4 9870   7.964   5.172   5.780  0.2466  0.2214 -0.0323
  723loPI   GL1 9871   7.925   5.052   6.194  0.2665  0.0106  0.0349
  723loPI   GL2 9872   7.597   4.878   6.174  0.1098 -0.1489  0.1471
  723loPI   C1A 9873   7.999   5.292   6.584 -0.3368  0.0818  0.0702
  723loPI   C2A 9874   7.940   5.507   6.961 -0.1086  0.0079  0.0060
  723loPI   C3A 9875   8.104   5.658   7.447  0.1970 -0.1239  0.0818
  723loPI   C4A 9876   8.099   5.679   7.871  0.0997 -0.0607  0.1124
  723loPI   C5A 9877   7.859   5.484   8.189 -0.1295 -0.0892 -0.0170
  723loPI   C6A 9878   7.681   4.942   8.108 -0.3075 -0.3423 -0.0142
  723loPI   C1B 9879   7.510   5.137   6.463 -0.0170 -0.0011 -0.0792
  723loPI   C2B 9880   7.487   5.414   6.806  0.4238  0.2503  0.0790
  723loPI   C3B 9881   7.404   5.504   7.186  0.1470 -0.1534 -0.0771
  723loPI   C4B 9882   7.644   5.704   7.322 -0.0683  0.0702  0.3155
  724loPI    C1 9883  10.910  10.669   5.670  0.1105 -0.0236  0.1382
  724loPI    C2 9884  10.907  10.940   5.965 -0.0384  0.1887 -0.0556
  724loPI    C3 9885  10.813  11.049   5.591  0.2015 -0.0662 -0.1936
  724loPI   PO4 9886  11.121  10.469   5.824  0.0591  0.2507 -0.2619
  724loPI   GL1 9887  11.117  10.438   6.341  0.2319 -0.2024 -0.0846
  724loPI   GL2 9888  11.303  10.646   6.266 -0.1376  0.0316  0.2153
  724loPI   C1A 9889  11.138  10.369   6.787  0.2664  0.2701 -0.0645
  724loPI   C2A 9890  11.188  10.106   7.081 -0.2542  0.2033  0.2450
  724loPI   C3A 9891  10.970   9.867   7.349 -0.0917 -0.0494  0.1064
  724loPI   C4A 9892  10.819   9.721   7.714 -0.0932  0.3072  0.1864
  724loPI   C5A 9893  10.494   9.669   7.980 -0.0671  0.2328  0.0217
  724loPI   C6A 9894  10.103   9.700   8.078  0.1472  0.0721  0.1228
  724loPI   C1B 9895  11.294  11.021   6.431 -0.2598  0.0697 -0.2926
  724loPI   C2B 9896  11.111  11.137   6.772  0.3130  0.1370 -0.1765
  724loPI   C3B 9897  10.778  10.992   7.112 -0.2363 -0.1439  0.0151
  724loPI   C4B 9898  10.872  10.706   7.468 -0.1752 -0.2928 -0.2522
  725loPI    C1 9899  13.171   7.568   5.981 -0.1244 -0.0945 -0.1314
  725loPI    C2 9900  13.005   7.465   5.632 -0.1036  0.0327 -0.1794
  725loPI    C3 9901  13.290   7.746   5.643 -0.1435  0.0687 -0.0532
  725loPI   PO4 9902  13.290   7.416   6.136  0.1871 -0.3449 -0.1713
  725loPI   GL1 9903  13.187   7.125   6.403 -0.2578 -0.3128 -0.2076
  725loPI   GL2 9904  12.925   7.244   6.444  0.3570  0.3260  0.0057
  725loPI   C1A 9905  13.274   7.281   6.795 -0.2067  0.0089  0.1401
  725loPI   C2A 9906  13.509   7.147   7.152  0.2095 -0.0019  0.1558
  725loPI   C3A 9907  13.425   6.695   7.449 -0.1923  0.0466  0.3227
  725loPI   C4A 9908  13.086   6.493   7.624  0.0487 -0.0122 -0.3461
  725loPI   C5A 9909  12.746   6.439   7.892  0.1340 -0.1872 -0.4186
  725loPI   C6A 9910  12.515   6.724   8.258 -0.0367 -0.0082  0.0383
  725loPI   C1B 9911  12.774   7.186   6.796 -0.0448 -0.4780  0.1892
  725loPI   C2B 9912  12.990   7.146   7.159 -0.0910 -0.2594  0.2611
  725loPI   C3B 9913  13.118   7.088   7.563 -0.0362 -0.0518 -0.2350
  725loPI   C4B 9914  13.344   6.886   7.900  0.0607  0.1111  0.0608
  726loPI    C1 9915  12.267  13.867   5.709  0.1001  0.4544  0.1756
  726loPI    C2 9916  12.591  13.861   5.473  0.0397  0.1852  0.0969
  726loPI    C3 9917  12.335  14.168   5.453  0.0685  0.1952 -0.1441
  726loPI   PO4 9918  12.371  13.740   5.973 -0.3489 -0.0245  0.0713
  726loPI   GL1 9919  12.272  13.295   6.141 -0.2756 -0.0381 -0.1234
  726loPI   GL2 9920  12.508  13.521   6.404 -0.2699  0.0175 -0.4076
  726loPI   C1A 9921  12.391  12.992   6.508 -0.2665  0.1279 -0.0507
  726loPI   C2A 9922  12.230  12.981   6.926  0.0752  0.2401  0.3348
  726loPI   C3A 9923  12.018  12.791   7.258  0.2669  0.0807 -0.0187
  726loPI   C4A 9924  11.888  12.767   7.663 -0.1787 -0.1620  0.0934
  726loPI   C5A 9925  11.806  12.604   8.012  0.3005 -0.3829 -0.1979
  726loPI   C6A 9926  11.514  12.364   8.328  0.0176 -0.4374  0.0071
  726loPI   C1B 9927  12.622  13.459   6.869 -0.2249 -0.4511  0.0684
  726loPI   C2B 9928  12.740  13.364   7.239  0.2549 -0.0157  0.1778
  726loPI   C3B 9929  12.658  13.238   7.718  0.1521 -0.0088 -0.2617
  726loPI   C4B 9930  12.653  13.281   8.173 -0.0415 -0.2841  0.2441
  727loPI    C1 9931   2.632   7.943   5.537  0.0717  0.0925 -0.1427
  727loPI    C2 9932   2.394   8.263   5.508 -0.3888 -0.2201  0.0541
  727loPI    C3 9933   2.366   7.968   5.239  0.0076 -0.1193 -0.1054
  727loPI   PO4 9934   2.572   7.939   5.845 -0.1876  0.2226  0.0549
  727loPI   GL1 9935   2.390   7.827   6.155  0.0338  0.0760 -0.1233
  727loPI   GL2 9936   2.617   7.593   6.252  0.2685  0.3106  0.1689
  727loPI   C1A 9937   2.435   7.948   6.546  0.0200 -0.0086  0.0009
  727loPI   C2A 9938   2.223   7.922   6.971  0.0714 -0.1472  0.1844
  727loPI   C3A 9939   2.219   8.250   7.331 -0.0748 -0.3307  0.0566
  727loPI   C4A 9940   1.999   8.372   7.661 -0.0548 -0.3931 -0.2286
  727loPI   C5A 9941   2.146   8.659   7.984  0.2420 -0.2949  0.0406
  727loPI   C6A 9942   2.377   8.940   8.120  0.1493  0.2530  0.0616
  727loPI   C1B 9943   2.821   7.564   6.637  0.1590 -0.2628  0.0084
  727loPI   C2B 9944   2.696   7.736   7.064  0.1032  0.1181 -0.2445
  727loPI   C3B 9945   2.359   7.731   7.427  0.0728  0.2662 -0.3488
  727loPI   C4B 9946   2.342   7.714   7.958 -0.1224 -0.1503 -0.0135
  728loPI    C1 9947   1.169  17.692   4.979 -0.2564 -0.0367  0.0552
  728loPI    C2 9948   1.221  17.312   4.863 -0.3653  0.0129 -0.1633
  728loPI    C3 9949   1.448  17.602   4.706 -0.1372  0.0149  0.1591
  728loPI   PO4 9950   1.024  17.692   5.206 -0.3462 -0.0600  0.0476
  728loPI   GL1 9951   0.913  17.287   5.476 -0.1065  0.0795  0.2666
  728loPI   GL2 9952   1.201  17.345   5.550 -0.1591  0.1664 -0.0604
  728loPI   C1A 9953   0.809  17.263   5.887 -0.3090 -0.1412  0.0170
  728loPI   C2A 9954   0.833  17.191   6.334 -0.1311  0.2561 -0.2798
  728loPI   C3A 9955   0.766  17.128   6.835  0.1158  0.0343  0.1518
  728loPI   C4A 9956   0.763  17.123   7.286 -0.0332 -0.3950  0.1228
  728loPI   C5A 9957   0.846  17.205   7.692  0.1239  0.1648 -0.2018
  728loPI   C6A 9958   1.208  17.532   7.787 -0.1063  0.3745  0.0501
  728loPI   C1B 9959   1.362  17.472   5.983  0.4758  0.0400  0.2839
  728loPI   C2B 9960   1.463  17.712   6.380 -0.1052 -0.1666 -0.2803
  728loPI   C3B 9961   1.602  17.626   6.883  0.3669  0.3284 -0.0768
  728loPI   C4B 9962   1.561  17.792   7.357  0.2895 -0.0086  0.0976
  729loPI    C1 9963  15.765   4.413   5.186  0.0640 -0.2387 -0.2581
  729loPI    C2 9964  16.016   4.724   5.169 -0.3122  0.0931  0.0382
  729loPI    C3 9965  16.099   4.389   4.967  0.2279  0.2888 -0.0833
  729loPI   PO4 9966  15.860   4.275   5.431  0.0037  0.2892 -0.1111
  729loPI   GL1 9967  15.628   4.083   5.715  0.2724 -0.0275 -0.0793
  729loPI   GL2 9968  15.652   4.384   5.879  0.0145  0.3209  0.0505
  729loPI   C1A 9969  15.539   3.794   6.090 -0.0534 -0.0962 -0.2961
  729loPI   C2A 9970  15.404   3.561   6.396  0.0970  0.2546 -0.1631
  729loPI   C3A 9971  15.063   3.569   6.673  0.0328 -0.1964 -0.0363
  729loPI   C4A 9972  14.837   3.676   6.950  0.1645  0.0501  0.2067
  729loPI   C5A 9973  14.637   3.955   7.125 -0.1538  0.3978 -0.0234
  729loPI   C6A 9974  14.598   4.287   7.434 -0.1044 -0.0815 -0.2292
  729loPI   C1B 9975  15.666   4.610   6.311 -0.2348 -0.0136  0.0649
  729loPI   C2B 9976  15.626   4.697   6.700 -0.1921  0.1425 -0.4879
  729loPI   C3B 9977  15.550   4.773   7.109  0.0822  0.1502  0.0448
  729loPI   C4B 9978  15.431   4.896   7.452  0.2279 -0.1545 -0.0536
  730loPI    C1 9979   2.673   2.090   5.409  0.1129 -0.2942  0.1622
  730loPI    C2 9980   2.418   1.842   5.227 -0.1179 -0.0360  0.1259
  730loPI    C3 9981   2.772   1.922   5.060 -0.0088 -0.3952  0.1756
  730loPI   PO4 9982   2.479   2.258   5.608 -0.0675 -0.2403 -0.2180
  730loPI   GL1 9983   2.333   2.465   6.055  0.1622  0.1442  0.0958
  730loPI   GL2 9984   2.640   2.189   6.144 -0.1704 -0.1588 -0.1563
  730loPI   C1A 9985   2.302   2.725   6.289 -0.2906  0.0214 -0.0358
  730loPI   C2A 9986   1.976   2.765   6.650 -0.1374 -0.1817 -0.0236
  730loPI   C3A 9987   2.051   2.655   7.084  0.0082 -0.0454 -0.0651
  730loPI   C4A 9988   2.180   2.819   7.475 -0.1187 -0.3916  0.3236
  730loPI   C5A 9989   2.148   3.048   7.801 -0.2136  0.2865  0.0437
  730loPI   C6A 9990   2.011   3.208   8.172 -0.0989  0.0654 -0.0340
  730loPI   C1B 9991   2.890   2.400   6.468  0.0291  0.0634  0.0568
  730loPI   C2B 9992   2.910   2.331   6.892 -0.0546 -0.2208 -0.2496
  730loPI   C3B 9993   2.953   2.043   7.263  0.1364 -0.2139  0.0998
  730loPI   C4B 9994   3.165   1.805   7.500  0.0083  0.1488  0.0014
  731loPI    C1 9995   5.812   4.735   5.560 -0.1163  0.1415  0.0293
  731loPI    C2 9996   6.148   4.565   5.424 -0.2187  0.0566 -0.1205
  731loPI    C3 9997   6.104   4.962   5.407 -0.0608  0.0826  0.0473
  731loPI   PO4 9998   5.718   4.565   5.810  0.0342 -0.0379  0.0639
  731loPI   GL1 9999   5.720   4.778   6.194  0.1435 -0.1540  0.1308
  731loPI   GL210000   5.285   4.855   6.311  0.1540 -0.0938  0.2252
  731loPI   C1A10001   6.103   4.657   6.376  0.0924 -0.1634  0.1538
  731loPI   C2A10002   6.335   4.595   6.715  0.3739 -0.0906  0.0125
  731loPI   C3A10003   6.438   4.522   7.086  0.2127 -0.2424  0.0244
  731loPI   C4A10004   6.455   4.468   7.459  0.4168 -0.3136 -0.1504
  731loPI   C5A10005   6.505   4.626   7.871  0.0928 -0.0241  0.2267
  731loPI   C6A10006   6.386   4.415   8.278  0.1507  0.0011  0.0731
  731loPI   C1B10007   5.377   4.684   6.708 -0.0708  0.0251  0.0294
  731loPI   C2B10008   5.315   4.454   7.108  0.0015  0.0949 -0.0991
  731loPI   C3B10009   5.576   4.569   7.498  0.1566 -0.0140  0.1684
  731loPI   C4B10010   5.564   4.544   7.947  0.1485  0.3028 -0.0102
  732loPI    C110011   5.944   6.224   5.908 -0.0786  0.3134  0.0674
  732loPI    C210012   6.151   5.980   5.668 -0.2346  0.0708  0.1758
  732loPI    C310013   6.288   6.064   6.035 -0.0745  0.3179  0.0622
  732loPI   PO410014   5.634   6.249   5.853  0.0753 -0.2266 -0.0406
  732loPI   GL110015   5.439   6.504   6.153  0.1168  0.2919 -0.0630
  732loPI   GL210016   5.728   6.595   6.259 -0.1110 -0.0916  0.1823
  732loPI   C1A10017   5.324   6.155   6.518 -0.3895  0.4007  0.1173
  732loPI   C2A10018   5.242   6.057   6.838 -0.4386 -0.0793 -0.0431
  732loPI   C3A10019   5.228   5.899   7.400  0.0088  0.1254 -0.1725
  732loPI   C4A10020   5.333   5.950   7.874  0.1322  0.0391  0.0200
  732loPI   C5A10021   5.327   6.143   8.214 -0.0819 -0.1479 -0.1529
  732loPI   C6A10022   5.764   6.299   8.372  0.1396  0.0610  0.0727
  732loPI   C1B10023   5.590   6.767   6.678  0.1445  0.0727  0.3482
  732loPI   C2B10024   5.506   6.859   6.951  0.0556 -0.0779 -0.3458
  732loPI   C3B10025   5.550   6.782   7.356  0.0864  0.0547 -0.3894
  732loPI   C4B10026   5.464   6.879   7.764 -0.2243  0.0549  0.1905
  733loPI    C110027   5.708   2.502   5.928  0.0317 -0.0287 -0.0202
  733loPI    C210028   5.971   2.349   5.667 -0.1503  0.1521 -0.3158
  733loPI    C310029   5.913   2.745   5.684 -0.1489  0.1418 -0.0044
  733loPI   PO410030   5.739   2.447   6.181 -0.0982 -0.0131  0.0766
  733loPI   GL110031   5.727   2.696   6.527 -0.2314 -0.0836  0.2289
  733loPI   GL210032   6.019   2.944   6.559  0.2399  0.0549  0.4015
  733loPI   C1A10033   5.702   2.836   7.069  0.1857  0.0597  0.0735
  733loPI   C2A10034   5.603   2.828   7.454 -0.1562  0.0521  0.3115
  733loPI   C3A10035   5.922   2.868   7.770  0.0139 -0.3045 -0.1454
  733loPI   C4A10036   5.993   3.037   8.153  0.1561 -0.1890 -0.0914
  733loPI   C5A10037   5.653   3.100   8.465  0.1424 -0.0229 -0.0314
  733loPI   C6A10038   5.152   2.945   8.478 -0.0112 -0.4507 -0.3727
  733loPI   C1B10039   6.029   3.143   6.930 -0.3263 -0.2652  0.1415
  733loPI   C2B10040   6.004   3.162   7.310  0.0567  0.0238 -0.1373
  733loPI   C3B10041   5.858   3.345   7.729 -0.0538 -0.0093 -0.1167
  733loPI   C4B10042   5.815   3.538   8.166 -0.2263 -0.1105  0.1951
  734loPI    C110043  10.584   8.334   6.228  0.2250  0.0037 -0.0630
  734loPI    C210044  10.723   8.602   5.966  0.0836  0.0623 -0.0792
  734loPI    C310045  10.939   8.508   6.289  0.2193  0.0542 -0.1712
  734loPI   PO410046  10.424   8.153   6.084 -0.2102 -0.0220 -0.2125
  734loPI   GL110047  10.352   7.823   6.297  0.1232  0.1144  0.0880
  734loPI   GL210048  10.052   7.966   6.372  0.0419 -0.4906  0.0592
  734loPI   C1A10049  10.685   7.835   6.556 -0.0512 -0.0714 -0.0738
  734loPI   C2A10050  10.703   7.891   6.940  0.0316 -0.0898  0.0294
  734loPI   C3A10051  11.016   7.804   7.157 -0.0199 -0.0987 -0.3264
  734loPI   C4A10052  11.062   7.667   7.560 -0.0204  0.1784  0.0896
  734loPI   C5A10053  11.264   7.733   7.895 -0.2841 -0.0962  0.0138
  734loPI   C6A10054  11.366   7.585   8.341 -0.0639  0.2812  0.2115
  734loPI   C1B10055   9.932   7.964   6.763 -0.0257 -0.1343  0.0440
  734loPI   C2B10056   9.919   8.181   7.159  0.1138  0.0104 -0.2312
  734loPI   C3B10057   9.797   8.165   7.746  0.0027 -0.4746  0.0918
  734loPI   C4B10058   9.774   7.888   8.059 -0.0533 -0.0797 -0.1016
  735loPI    C110059  10.126  14.972   5.498  0.2675  0.0678  0.0091
  735loPI    C210060  10.511  14.880   5.553  0.3050 -0.0075 -0.3555
  735loPI    C310061  10.263  14.612   5.390  0.0990  0.0445 -0.1321
  735loPI   PO410062  10.106  14.982   5.855  0.0026  0.2262 -0.0410
  735loPI   GL110063   9.853  14.766   6.134  0.0987 -0.1656  0.2225
  735loPI   GL210064   9.507  14.654   6.017  0.0668 -0.0357  0.3149
  735loPI   C1A10065   9.736  14.493   6.488  0.0705 -0.2217  0.0458
  735loPI   C2A10066   9.641  14.540   7.002  0.3177  0.1839 -0.1406
  735loPI   C3A10067   9.571  14.679   7.391  0.1586 -0.0600 -0.0631
  735loPI   C4A10068   9.464  14.649   7.820  0.0464  0.0714  0.0983
  735loPI   C5A10069   9.451  14.173   8.053  0.2912  0.0887  0.2590
  735loPI   C6A10070   9.100  13.790   7.994 -0.3074  0.0899  0.1497
  735loPI   C1B10071   9.287  14.904   6.203  0.1678  0.0303 -0.0389
  735loPI   C2B10072   9.454  14.950   6.591 -0.0148 -0.0507 -0.0619
  735loPI   C3B10073   9.358  14.943   7.003  0.0712  0.1867  0.0167
  735loPI   C4B10074   9.578  15.187   7.245 -0.0019  0.0751 -0.0739
  736loPI    C110075   1.771  11.096   5.381 -0.1473 -0.0896 -0.1279
  736loPI    C210076   1.762  10.891   5.037  0.1221 -0.1193 -0.1191
  736loPI    C310077   1.896  11.268   5.043  0.0292 -0.0868 -0.0624
  736loPI   PO410078   1.574  11.031   5.493 -0.0066  0.0137 -0.1594
  736loPI   GL110079   1.591  11.004   5.861 -0.1819  0.0843 -0.0183
  736loPI   GL210080   1.871  11.264   5.885 -0.2352 -0.0623  0.0505
  736loPI   C1A10081   1.442  11.116   6.316  0.2455 -0.1172 -0.1356
  736loPI   C2A10082   1.254  11.043   6.785  0.3123  0.0170  0.2434
  736loPI   C3A10083   0.869  11.185   7.065  0.2798 -0.2026  0.0898
  736loPI   C4A10084   0.688  11.521   7.400  0.1291  0.0836  0.1118
  736loPI   C5A10085   0.367  11.808   7.620 -0.2782 -0.0891 -0.0617
  736loPI   C6A10086   0.039  12.143   7.818 -0.3652  0.3127 -0.1197
  736loPI   C1B10087   1.941  11.025   6.251 -0.1324 -0.0931 -0.0394
  736loPI   C2B10088   1.724  10.923   6.626 -0.0849 -0.4115  0.2307
  736loPI   C3B10089   1.834  11.115   7.093 -0.0652  0.2878 -0.1612
  736loPI   C4B10090   1.696  11.410   7.305 -0.0592  0.0470 -0.2232
  737loPI    C110091  11.987  17.284   5.688 -0.0251  0.1133 -0.1768
  737loPI    C210092  12.007  17.217   5.294 -0.0302 -0.0312 -0.1529
  737loPI    C310093  11.699  17.074   5.506 -0.0560  0.0932 -0.1054
  737loPI   PO410094  12.081  17.512   5.772 -0.0187  0.0267  0.0572
  737loPI   GL110095  11.920  17.702   6.115  0.0179  0.0915  0.2331
  737loPI   GL210096  12.059  17.319   6.258  0.2129  0.1183 -0.0598
  737loPI   C1A10097  12.112  17.710   6.591 -0.0585 -0.2156  0.2276
  737loPI   C2A10098  12.147  17.742   6.994  0.3974 -0.1678 -0.1050
  737loPI   C3A10099  12.131  17.889   7.475 -0.0667 -0.2637 -0.3949
  737loPI   C4A10100  12.070  18.036   7.914 -0.0102 -0.0780 -0.0749
  737loPI   C5A10101  11.585  18.166   8.138 -0.0434 -0.4375 -0.2398
  737loPI   C6A10102  11.273  18.014   8.459  0.2156  0.2126  0.5676
  737loPI   C1B10103  11.880  17.256   6.644 -0.2971  0.0508  0.1527
  737loPI   C2B10104  11.919  17.329   6.993  0.1058 -0.1563 -0.0108
  737loPI   C3B10105  11.876  17.194   7.453 -0.0231  0.0062 -0.2646
  737loPI   C4B10106  11.992  17.254   7.839 -0.2489 -0.0229 -0.1162
  738loPI    C110107  10.881  17.085   5.785 -0.1260 -0.2587 -0.0764
  738loPI    C210108  10.957  16.836   6.089  0.2989 -0.0569 -0.0099
  738loPI    C310109  11.232  16.894   5.803  0.1364  0.2034 -0.1173
  738loPI   PO410110  10.743  17.358   5.840  0.1201 -0.1971 -0.0210
  738loPI   GL110111  10.434  17.431   6.178 -0.1668  0.0540  0.3931
  738loPI   GL210112  10.390  17.709   6.358 -0.0111  0.0919  0.0665
  738loPI   C1A10113  10.255  17.242   6.516  0.1877 -0.0881  0.1945
  738loPI   C2A10114  10.256  17.297   6.896  0.0292 -0.1771 -0.0566
  738loPI   C3A10115  10.228  17.156   7.253  0.0686  0.0382  0.4070
  738loPI   C4A10116  10.408  17.376   7.577  0.2369  0.2875  0.1933
  738loPI   C5A10117  10.390  17.588   8.007 -0.1651 -0.1932 -0.1484
  738loPI   C6A10118  10.311  18.024   8.107 -0.1741  0.1605  0.1156
  738loPI   C1B10119  10.486  17.705   6.745 -0.2405 -0.0220 -0.0283
  738loPI   C2B10120  10.306  17.764   7.075  0.1704  0.0287 -0.1160
  738loPI   C3B10121   9.987  17.608   7.349  0.2693  0.1016 -0.1334
  738loPI   C4B10122   9.759  17.463   6.994  0.3282 -0.1373 -0.1388
  739loPI    C110123   5.076  13.416   5.680  0.0934 -0.0517 -0.1387
  739loPI    C210124   5.109  13.129   5.404 -0.0442 -0.0561 -0.1513
  739loPI    C310125   4.964  13.487   5.303  0.2636  0.0670 -0.1680
  739loPI   PO410126   5.127  13.259   5.976 -0.1627  0.1501 -0.3171
  739loPI   GL110127   5.148  12.945   6.242 -0.0837 -0.0019  0.2179
  739loPI   GL210128   4.981  12.608   6.220  0.0997 -0.2540  0.3146
  739loPI   C1A10129   5.107  13.244   6.607  0.4016  0.2304 -0.0459
  739loPI   C2A10130   5.120  13.266   6.975  0.1194  0.3502  0.4075
  739loPI   C3A10131   5.189  13.142   7.340 -0.0553  0.0626 -0.0945
  739loPI   C4A10132   5.306  13.425   7.638  0.1601  0.0647 -0.1297
  739loPI   C5A10133   5.585  13.183   7.876  0.3544  0.0204  0.1769
  739loPI   C6A10134   5.944  13.359   8.075 -0.0988 -0.0264 -0.0948
  739loPI   C1B10135   5.027  12.595   6.678 -0.0635 -0.1313  0.3316
  739loPI   C2B10136   4.953  12.675   7.076 -0.1200 -0.0820  0.0083
  739loPI   C3B10137   4.884  12.772   7.566  0.0221 -0.2557  0.0850
  739loPI   C4B10138   5.091  13.004   7.862  0.2551 -0.3110  0.0547
  740loPI    C110139   3.181   8.262   5.600 -0.1663  0.1027  0.1063
  740loPI    C210140   3.143   8.655   5.536  0.0230  0.1365  0.1967
  740loPI    C310141   3.495   8.475   5.473 -0.1036 -0.0483  0.0051
  740loPI   PO410142   3.174   8.213   5.840 -0.0870  0.2924 -0.0308
  740loPI   GL110143   3.108   8.284   6.197  0.2288  0.1138 -0.1289
  740loPI   GL210144   2.775   8.184   6.319 -0.3237 -0.1535  0.1798
  740loPI   C1A10145   3.301   8.032   6.547 -0.1165 -0.1850 -0.2487
  740loPI   C2A10146   3.267   7.672   6.860  0.2815  0.1943 -0.2316
  740loPI   C3A10147   3.233   7.466   7.230 -0.1319 -0.1011 -0.3189
  740loPI   C4A10148   3.280   7.465   7.660  0.1934 -0.1409 -0.0946
  740loPI   C5A10149   3.652   7.588   7.923 -0.2240 -0.1834  0.0433
  740loPI   C6A10150   3.864   7.653   8.407  0.1458 -0.2003  0.0134
  740loPI   C1B10151   2.998   8.454   6.691 -0.0886 -0.0734 -0.0046
  740loPI   C2B10152   3.069   8.161   6.999  0.2822  0.2369 -0.2252
  740loPI   C3B10153   3.185   7.949   7.375  0.1995 -0.1915 -0.1409
  740loPI   C4B10154   3.132   7.940   7.795  0.0302 -0.0622  0.1758
  741loPI    C110155   3.030  17.996   5.759 -0.0345 -0.0890  0.1024
  741loPI    C210156   3.376  18.055   5.566 -0.1568 -0.0610 -0.1117
  741loPI    C310157   3.195  17.699   5.549 -0.2320 -0.0212 -0.1535
  741loPI   PO410158   3.020  18.068   5.994  0.0200 -0.2082  0.0131
  741loPI   GL110159   2.761  18.073   6.371 -0.1727 -0.2511 -0.1317
  741loPI   GL210160   2.378  17.907   6.294  0.4560  0.2492  0.0887
  741loPI   C1A10161   2.878  17.993   6.741  0.1755 -0.1577 -0.0795
  741loPI   C2A10162   2.899  17.974   7.119 -0.1407  0.2080  0.0200
  741loPI   C3A10163   2.931  17.717   7.540 -0.1585 -0.0959 -0.1754
  741loPI   C4A10164   3.151  17.745   7.959  0.0656  0.0292  0.0090
  741loPI   C5A10165   3.204  18.193   8.158 -0.1056  0.1682 -0.1525
  741loPI   C6A10166   3.348  18.331   8.501 -0.1570 -0.0409  0.0822
  741loPI   C1B10167   2.383  18.106   6.639  0.2026 -0.0702  0.1051
  741loPI   C2B10168   2.472  17.959   6.979 -0.1871 -0.0878  0.1848
  741loPI   C3B10169   2.415  17.958   7.312 -0.1604 -0.2011  0.1188
  741loPI   C4B10170   2.433  17.729   7.615 -0.0701  0.0765 -0.0349
  742loPI    C110171  14.595  15.339   5.457  0.0545 -0.0342 -0.1285
  742loPI    C210172  14.449  15.064   5.206  0.1100 -0.2005  0.0199
  742loPI    C310173  14.376  15.452   5.142 -0.0723 -0.2571 -0.1216
  742loPI   PO410174  14.838  15.195   5.599  0.0299  0.1371 -0.1785
  742loPI   GL110175  15.070  15.597   5.805 -0.4303  0.0238 -0.0555
  742loPI   GL210176  15.192  15.852   5.881  0.0717 -0.0446 -0.0329
  742loPI   C1A10177  15.278  15.445   6.253 -0.0406 -0.2062 -0.0325
  742loPI   C2A10178  15.206  15.617   6.655  0.2718  0.2449  0.0024
  742loPI   C3A10179  15.174  15.286   7.102 -0.1701 -0.4771  0.0959
  742loPI   C4A10180  15.410  15.366   7.428  0.0328  0.2031 -0.4495
  742loPI   C5A10181  15.346  15.403   7.796  0.3458  0.3211 -0.1624
  742loPI   C6A10182  15.404  15.483   8.216  0.1984  0.0096  0.2476
  742loPI   C1B10183  15.267  15.952   6.232  0.2400  0.2567  0.0628
  742loPI   C2B10184  15.407  16.196   6.583  0.1320 -0.2008  0.1376
  742loPI   C3B10185  15.535  16.134   6.969 -0.4171  0.0648 -0.0468
  742loPI   C4B10186  15.560  16.231   7.408 -0.2051 -0.0368  0.1334
  743loPI    C110187  18.221   7.233   5.807  0.2101  0.0504 -0.0741
  743loPI    C210188  18.197   6.890   5.603  0.0514  0.0365 -0.0331
  743loPI    C310189  18.148   7.238   5.414 -0.2993  0.0161  0.0137
  743loPI   PO410190  18.144   7.194   6.048  0.0643 -0.0104  0.0995
  743loPI   GL110191  18.313   7.257   6.421 -0.0172 -0.0178 -0.2495
  743loPI   GL210192  18.533   7.018   6.361  0.0249 -0.0634 -0.0070
  743loPI   C1A10193  18.532   7.505   6.685  0.1422 -0.1017  0.4498
  743loPI   C2A10194  18.700   7.567   7.082 -0.0636 -0.0459 -0.2341
  743loPI   C3A10195  18.645   7.513   7.392  0.1100 -0.3372  0.4187
  743loPI   C4A10196  18.579   7.667   7.764  0.1873 -0.1362 -0.1772
  743loPI   C5A10197  18.462   7.846   8.190 -0.3717 -0.1427  0.0546
  743loPI   C6A10198  18.841   7.869   8.521 -0.0290 -0.1457 -0.0210
  743loPI   C1B10199  18.449   6.893   6.753 -0.0937  0.0215  0.1578
  743loPI   C2B10200  18.394   7.157   7.017  0.0633 -0.0167 -0.0314
  743loPI   C3B10201  18.251   7.216   7.473 -0.1091 -0.0678 -0.2423
  743loPI   C4B10202  18.157   7.384   7.929  0.2306 -0.0665  0.0447
  744loPI    C110203   6.175   0.303   5.370 -0.0008 -0.1707  0.2417
  744loPI    C210204   6.064  -0.076   5.303  0.0379 -0.1539  0.0765
  744loPI    C310205   5.996   0.204   5.026  0.2174 -0.0844  0.1011
  744loPI   PO410206   6.002   0.388   5.699 -0.2049 -0.3078  0.1200
  744loPI   GL110207   6.158   0.349   6.073 -0.1954 -0.0698  0.1836
  744loPI   GL210208   5.919   0.269   6.183 -0.1206 -0.0796 -0.0052
  744loPI   C1A10209   6.302   0.595   6.426  0.1006 -0.0898  0.4503
  744loPI   C2A10210   6.366   0.871   6.703  0.1075 -0.0127 -0.0731
  744loPI   C3A10211   6.426   0.965   7.119 -0.2355 -0.2417 -0.1304
  744loPI   C4A10212   6.362   0.732   7.545 -0.2083  0.0341  0.1722
  744loPI   C5A10213   6.666   0.757   7.885 -0.1473 -0.1848  0.1287
  744loPI   C6A10214   6.964   1.047   8.046  0.1301  0.1502 -0.1506
  744loPI   C1B10215   5.752   0.119   6.575 -0.0514  0.1394 -0.3344
  744loPI   C2B10216   5.621   0.155   7.038 -0.0934  0.6180 -0.0188
  744loPI   C3B10217   5.548   0.246   7.457 -0.0944  0.0396 -0.0807
  744loPI   C4B10218   5.608   0.525   7.879  0.1049  0.0997  0.0992
  745loPI    C110219  17.556   7.865   5.948  0.0549  0.0192  0.0661
  745loPI    C210220  17.272   7.614   5.819  0.1291 -0.0888  0.1114
  745loPI    C310221  17.292   7.986   5.673  0.0488 -0.1247  0.0076
  745loPI   PO410222  17.557   7.856   6.191  0.2378  0.1599  0.1830
  745loPI   GL110223  17.449   7.900   6.573  0.0628  0.0006  0.0693
  745loPI   GL210224  17.226   8.049   6.607 -0.0920 -0.1905 -0.0195
  745loPI   C1A10225  17.692   7.920   6.804  0.3814  0.2862 -0.1232
  745loPI   C2A10226  17.865   8.028   7.103  0.0776 -0.1178  0.0977
  745loPI   C3A10227  17.971   8.205   7.488 -0.0245  0.1948  0.0198
  745loPI   C4A10228  17.921   8.662   7.587 -0.0686  0.0394 -0.2846
  745loPI   C5A10229  18.039   9.144   7.658 -0.0712 -0.2001  0.1769
  745loPI   C6A10230  18.029   9.602   7.917  0.2395  0.0530 -0.0364
  745loPI   C1B10231  17.215   8.127   7.020 -0.0822  0.1990  0.0790
  745loPI   C2B10232  17.078   8.142   7.487 -0.0295  0.0560  0.0353
  745loPI   C3B10233  17.178   8.318   7.897 -0.1699 -0.1544  0.2202
  745loPI   C4B10234  17.097   8.719   8.117 -0.1166 -0.1194  0.0732
  746loPI    C110235   6.863   6.896   5.489  0.2513 -0.0491  0.0746
  746loPI    C210236   7.195   6.728   5.636  0.2141 -0.3222 -0.1457
  746loPI    C310237   6.957   6.520   5.390  0.0341 -0.0284 -0.2253
  746loPI   PO410238   6.749   6.942   5.781  0.2486  0.2372 -0.0722
  746loPI   GL110239   6.690   6.913   6.231  0.0807 -0.1180 -0.1639
  746loPI   GL210240   6.473   7.083   6.251  0.2661 -0.0592  0.0773
  746loPI   C1A10241   6.684   6.889   6.763 -0.0149 -0.2617 -0.0011
  746loPI   C2A10242   6.742   6.842   7.136  0.2825 -0.1718 -0.1758
  746loPI   C3A10243   6.524   6.463   7.306  0.2258  0.2442  0.2397
  746loPI   C4A10244   6.461   6.349   7.661 -0.0362  0.0804 -0.1562
  746loPI   C5A10245   6.436   6.525   8.032  0.1593  0.0123  0.0342
  746loPI   C6A10246   6.320   6.778   8.381  0.1454  0.1693  0.0386
  746loPI   C1B10247   6.346   7.280   6.711 -0.1657 -0.1566  0.1206
  746loPI   C2B10248   6.257   7.154   7.096 -0.3282  0.1311 -0.2199
  746loPI   C3B10249   6.436   7.137   7.485  0.1143 -0.0380 -0.0228
  746loPI   C4B10250   6.539   7.196   7.938  0.0741 -0.1168  0.0829
  747loPI    C110251   6.108  10.494   5.841 -0.2818 -0.1294  0.0298
  747loPI    C210252   6.040  10.657   5.481  0.0331 -0.0653 -0.0040
  747loPI    C310253   5.928  10.280   5.555 -0.3263  0.0265 -0.0605
  747loPI   PO410254   6.175  10.790   6.000  0.2144 -0.1134  0.0693
  747loPI   GL110255   6.157  10.840   6.406 -0.3408  0.2085  0.0663
  747loPI   GL210256   6.480  10.737   6.503 -0.0385  0.3287 -0.0244
  747loPI   C1A10257   6.051  10.692   6.827  0.1100  0.2899 -0.0764
  747loPI   C2A10258   6.128  10.498   7.200  0.2688  0.0225 -0.2958
  747loPI   C3A10259   6.133  10.562   7.645  0.0467  0.1335 -0.2267
  747loPI   C4A10260   6.131  10.306   7.884  0.0933  0.2428 -0.0400
  747loPI   C5A10261   6.434  10.091   8.088  0.1961 -0.1788  0.2918
  747loPI   C6A10262   6.834  10.074   8.458 -0.0131 -0.2836 -0.0823
  747loPI   C1B10263   6.544  10.704   6.929  0.0904  0.1799  0.0123
  747loPI   C2B10264   6.572  10.676   7.283  0.3132  0.0459 -0.1544
  747loPI   C3B10265   6.614  10.493   7.721  0.0654  0.2563 -0.1202
  747loPI   C4B10266   6.735  10.473   8.099 -0.2143  0.0960  0.1690
  748loPI    C110267   8.906   7.662   5.617  0.0446  0.1868 -0.1126
  748loPI    C210268   8.648   7.851   5.856 -0.0457 -0.0953  0.0179
  748loPI    C310269   8.933   8.058   5.667 -0.1638  0.1734  0.1276
  748loPI   PO410270   8.970   7.509   5.736  0.2038  0.0366  0.0567
  748loPI   GL110271   8.991   7.615   6.202 -0.0830 -0.2718  0.1685
  748loPI   GL210272   9.005   7.942   6.366  0.0052  0.1073 -0.2788
  748loPI   C1A10273   9.188   7.575   6.657  0.1598  0.1957 -0.0583
  748loPI   C2A10274   9.299   7.525   7.033  0.0079  0.3708  0.2003
  748loPI   C3A10275   9.261   7.355   7.427 -0.2457  0.5708  0.3805
  748loPI   C4A10276   9.031   7.195   7.686  0.0236  0.1372 -0.0772
  748loPI   C5A10277   8.908   7.023   8.036 -0.0872  0.5023  0.4162
  748loPI   C6A10278   8.524   6.964   8.184  0.1968  0.1936  0.0546
  748loPI   C1B10279   8.837   7.926   6.818 -0.1768 -0.1924  0.0168
  748loPI   C2B10280   8.816   7.618   7.029  0.2231 -0.3635 -0.0789
  748loPI   C3B10281   8.811   7.592   7.375  0.3466  0.0730  0.2685
  748loPI   C4B10282   8.578   7.831   7.715 -0.1881 -0.0431  0.1980
  749loPI    C110283  10.189   0.753   5.138 -0.1435 -0.0440 -0.0223
  749loPI    C210284   9.904   0.474   5.107 -0.3097  0.1091  0.1084
  749loPI    C310285  10.012   0.686   4.786 -0.1761 -0.1092  0.0062
  749loPI   PO410286  10.133   0.843   5.394  0.4064  0.0326 -0.0276
  749loPI   GL110287  10.172   0.730   5.733  0.2368 -0.2166  0.0593
  749loPI   GL210288  10.260   0.487   5.889  0.3080 -0.1588 -0.0492
  749loPI   C1A10289   9.985   0.797   6.129  0.2477  0.0080  0.0428
  749loPI   C2A10290   9.642   1.076   6.321 -0.3237  0.1975  0.1685
  749loPI   C3A10291   9.515   1.271   6.671 -0.0641 -0.0913  0.2714
  749loPI   C4A10292   9.460   1.295   7.029 -0.1415 -0.3887 -0.2233
  749loPI   C5A10293   9.304   1.195   7.518  0.0116  0.0103 -0.1014
  749loPI   C6A10294   9.169   1.082   7.912 -0.3407  0.0336 -0.0234
  749loPI   C1B10295  10.235   0.448   6.308 -0.5710 -0.0265  0.0096
  749loPI   C2B10296  10.214   0.445   6.774 -0.0988 -0.1907 -0.1536
  749loPI   C3B10297  10.049   0.425   7.219  0.0704  0.2030  0.1313
  749loPI   C4B10298  10.202   0.574   7.620 -0.2586 -0.1424 -0.1381
  750loPI    C110299  13.931   1.188   5.361 -0.1683  0.0054 -0.3369
  750loPI    C210300  14.066   1.561   5.315 -0.2409  0.0300 -0.3522
  750loPI    C310301  13.721   1.496   5.506 -0.1055 -0.0477 -0.1298
  750loPI   PO410302  14.177   1.052   5.463  0.0865 -0.0746  0.2226
  750loPI   GL110303  14.314   0.908   5.931  0.2816 -0.0151  0.1429
  750loPI   GL210304  14.598   1.114   5.864  0.1517  0.0348 -0.0881
  750loPI   C1A10305  14.097   0.801   6.264  0.0868  0.0082 -0.1487
  750loPI   C2A10306  14.133   0.809   6.710 -0.2152  0.3328 -0.0868
  750loPI   C3A10307  14.212   1.052   7.173 -0.2887  0.2377  0.2689
  750loPI   C4A10308  14.414   1.069   7.503  0.0064  0.1967 -0.4607
  750loPI   C5A10309  14.871   1.136   7.621  0.1373 -0.3660 -0.0561
  750loPI   C6A10310  15.088   1.563   7.621  0.0786  0.0686 -0.1631
  750loPI   C1B10311  14.562   1.045   6.411 -0.1954 -0.2280 -0.0221
  750loPI   C2B10312  14.675   1.055   6.846 -0.0163 -0.2916 -0.0615
  750loPI   C3B10313  14.756   0.874   7.192  0.1716 -0.0600  0.3458
  750loPI   C4B10314  14.361   0.607   7.339  0.1875  0.0231  0.0805
  751loPI    C110315   9.804   6.752   5.848 -0.2206  0.2286 -0.0375
  751loPI    C210316   9.920   7.131   5.901  0.2361  0.1026 -0.0884
  751loPI    C310317  10.069   6.917   5.598  0.0252 -0.1369 -0.0267
  751loPI   PO410318   9.531   6.798   6.041 -0.0892 -0.2262  0.2183
  751loPI   GL110319   9.415   6.705   6.378 -0.1830  0.1495  0.0405
  751loPI   GL210320   9.136   6.505   6.209  0.1797 -0.0961  0.0482
  751loPI   C1A10321   9.135   6.506   6.694  0.1200  0.1396  0.1548
  751loPI   C2A10322   8.981   6.457   7.130 -0.2509  0.0742 -0.1574
  751loPI   C3A10323   8.914   6.279   7.498  0.1006  0.0273 -0.0141
  751loPI   C4A10324   8.778   6.384   7.868  0.2339  0.1486 -0.0744
  751loPI   C5A10325   8.799   6.455   8.334  0.1590 -0.0574  0.0778
  751loPI   C6A10326   8.881   6.675   8.692 -0.2844 -0.2605  0.0779
  751loPI   C1B10327   8.719   6.693   6.410  0.3641  0.1514 -0.4160
  751loPI   C2B10328   8.601   6.644   6.886  0.1544 -0.0325  0.4299
  751loPI   C3B10329   8.585   6.796   7.241 -0.2307 -0.2199 -0.1342
  751loPI   C4B10330   8.557   6.853   7.693  0.0537  0.0064  0.4521
  752loPI    C110331   6.720  11.050   5.883 -0.1075 -0.0483  0.2255
  752loPI    C210332   6.599  10.748   5.650  0.2620 -0.0403  0.0165
  752loPI    C310333   6.640  11.115   5.496 -0.0824  0.0985  0.2447
  752loPI   PO410334   6.621  11.029   6.060 -0.0288 -0.1898 -0.1726
  752loPI   GL110335   6.195  11.301   6.148 -0.0623  0.0314  0.3346
  752loPI   GL210336   5.815  11.167   6.202  0.2622 -0.1235  0.0494
  752loPI   C1A10337   6.043  11.493   6.501 -0.2416  0.2942  0.0265
  752loPI   C2A10338   5.900  11.481   6.857  0.1534 -0.0924  0.5466
  752loPI   C3A10339   5.702  11.550   7.270 -0.0891  0.0042 -0.2250
  752loPI   C4A10340   5.729  11.497   7.681 -0.2861 -0.1059  0.1836
  752loPI   C5A10341   5.548  11.236   7.921  0.1097  0.1614  0.3462
  752loPI   C6A10342   5.401  11.073   8.282 -0.2373 -0.1444  0.1523
  752loPI   C1B10343   5.792  11.027   6.562  0.1217 -0.1239 -0.0858
  752loPI   C2B10344   5.588  11.117   6.957 -0.0722 -0.5895  0.0247
  752loPI   C3B10345   5.419  11.169   7.345 -0.0038  0.0223 -0.0494
  752loPI   C4B10346   5.255  11.497   7.592  0.1095 -0.1531 -0.1393
  753loPI    C110347   8.674   4.587   5.675  0.0373 -0.1724 -0.0175
  753loPI    C210348   8.952   4.304   5.723  0.0760 -0.1323 -0.0031
  753loPI    C310349   8.983   4.565   5.422  0.2748  0.1271  0.2370
  753loPI   PO410350   8.488   4.432   5.808  0.1390 -0.2901  0.2330
  753loPI   GL110351   8.330   4.360   6.192 -0.0060  0.2480  0.1837
  753loPI   GL210352   8.464   4.614   6.265 -0.2911  0.1488 -0.2313
  753loPI   C1A10353   8.214   4.227   6.608 -0.1568 -0.3142  0.2629
  753loPI   C2A10354   8.186   4.385   7.036 -0.0714  0.0882  0.3661
  753loPI   C3A10355   8.140   4.385   7.449 -0.1418 -0.3014 -0.1216
  753loPI   C4A10356   8.109   4.152   7.836  0.3180 -0.1217 -0.3928
  753loPI   C5A10357   8.371   4.256   8.279  0.1951  0.0426  0.0808
  753loPI   C6A10358   8.772   4.440   8.385 -0.2287  0.1200  0.0170
  753loPI   C1B10359   8.192   4.814   6.602 -0.2475  0.1939 -0.0231
  753loPI   C2B10360   8.264   4.908   7.026  0.2277  0.2375  0.1354
  753loPI   C3B10361   8.082   4.896   7.427  0.0593  0.1624  0.2868
  753loPI   C4B10362   7.754   4.667   7.737  0.0614 -0.7003 -0.0056
  754loPI    C110363   0.195  12.674   5.083 -0.0295 -0.0964 -0.1359
  754loPI    C210364   0.577  12.713   4.973  0.0174  0.0121  0.0600
  754loPI    C310365   0.381  12.373   4.898  0.0828  0.0392 -0.2453
  754loPI   PO410366   0.145  12.808   5.354 -0.1934  0.0878  0.0333
  754loPI   GL110367   0.387  13.004   5.673  0.0890 -0.1887  0.0144
  754loPI   GL210368   0.119  13.035   5.814  0.1232  0.2118  0.2223
  754loPI   C1A10369   0.507  12.979   6.038 -0.0074  0.0659  0.0233
  754loPI   C2A10370   0.766  13.248   6.289  0.2799  0.1671 -0.0629
  754loPI   C3A10371   0.872  13.376   6.618  0.4846 -0.0952 -0.1480
  754loPI   C4A10372   0.850  13.618   7.045 -0.1242 -0.0850 -0.3393
  754loPI   C5A10373   1.070  13.712   7.378 -0.1358  0.1609  0.2107
  754loPI   C6A10374   1.487  13.662   7.295  0.3054 -0.1923  0.1639
  754loPI   C1B10375  -0.029  13.128   6.294 -0.3009 -0.0987  0.4538
  754loPI   C2B10376   0.010  13.127   6.735  0.0080  0.2259  0.0014
  754loPI   C3B10377   0.122  13.155   7.143 -0.1432 -0.1512 -0.2928
  754loPI   C4B10378   0.396  13.098   7.476 -0.0160  0.0841  0.2635
  755loPI    C110379  16.542  18.001   5.133 -0.0330  0.0018  0.0431
  755loPI    C210380  16.363  17.879   4.797 -0.0231 -0.2390  0.1229
  755loPI    C310381  16.661  17.663   4.954  0.4518  0.2348 -0.0926
  755loPI   PO410382  16.412  18.110   5.207 -0.0683  0.1092 -0.1101
  755loPI   GL110383  16.238  18.112   5.666 -0.0977  0.2061  0.1124
  755loPI   GL210384  16.538  18.176   5.702 -0.2269  0.1253 -0.2548
  755loPI   C1A10385  16.253  18.157   6.132  0.3117  0.0089 -0.1211
  755loPI   C2A10386  16.493  18.239   6.550 -0.2039 -0.1296  0.2110
  755loPI   C3A10387  16.915  18.394   6.454  0.1045 -0.1737  0.3372
  755loPI   C4A10388  17.355  18.295   6.639 -0.1723 -0.2132 -0.1513
  755loPI   C5A10389  17.496  18.365   7.058 -0.1330 -0.2800  0.0305
  755loPI   C6A10390  17.392  18.592   7.484  0.2684 -0.0857 -0.3839
  755loPI   C1B10391  16.688  18.441   6.044  0.1511 -0.3589  0.1342
  755loPI   C2B10392  16.619  18.771   6.373 -0.3502 -0.1806  0.2052
  755loPI   C3B10393  16.635  18.663   6.851  0.2225 -0.1602 -0.1579
  755loPI   C4B10394  16.548  18.775   7.298  0.0405 -0.2139  0.1541
  756loPI    C110395   6.506  10.062   5.798 -0.0488  0.1151  0.0822
  756loPI    C210396   6.296   9.965   5.473 -0.1874  0.0017  0.2044
  756loPI    C310397   6.514  10.300   5.477 -0.1286 -0.0320 -0.0296
  756loPI   PO410398   6.383  10.091   5.948 -0.3539 -0.1025 -0.0629
  756loPI   GL110399   6.524  10.183   6.421 -0.0940  0.2434  0.0720
  756loPI   GL210400   6.269  10.354   6.348 -0.1002 -0.0874 -0.1347
  756loPI   C1A10401   6.471   9.795   6.696 -0.0635 -0.1063  0.1353
  756loPI   C2A10402   6.562   9.647   7.105 -0.0067  0.1732 -0.2551
  756loPI   C3A10403   6.794   9.587   7.504 -0.1320  0.1475 -0.0230
  756loPI   C4A10404   6.804   9.372   7.886 -0.0681 -0.2981  0.0206
  756loPI   C5A10405   7.210   9.281   8.166  0.2109  0.0822  0.1051
  756loPI   C6A10406   7.480   9.352   8.494  0.1651 -0.1830 -0.1584
  756loPI   C1B10407   6.177  10.216   6.737 -0.0092 -0.1011  0.0262
  756loPI   C2B10408   6.085   9.962   7.070  0.0819  0.1046 -0.0519
  756loPI   C3B10409   5.915  10.109   7.431  0.1921  0.0816  0.2017
  756loPI   C4B10410   5.598  10.389   7.571  0.6571 -0.2885  0.0343
  757loPI    C110411   4.141  14.535   5.472 -0.0896 -0.0590  0.1346
  757loPI    C210412   4.060  14.824   5.207 -0.1435  0.0056  0.2209
  757loPI    C310413   4.238  14.486   5.087 -0.0765  0.0762  0.1203
  757loPI   PO410414   3.892  14.515   5.640 -0.0755  0.0799 -0.2088
  757loPI   GL110415   3.662  14.355   6.012  0.1985 -0.0070  0.1165
  757loPI   GL210416   3.808  14.636   6.129 -0.1651 -0.0333  0.1419
  757loPI   C1A10417   3.301  14.113   6.094  0.1189 -0.0492 -0.1454
  757loPI   C2A10418   2.977  13.871   6.406  0.0780 -0.2623 -0.0866
  757loPI   C3A10419   2.729  14.047   6.706  0.2497  0.3097 -0.2852
  757loPI   C4A10420   2.546  13.997   7.125  0.1782  0.2169  0.1721
  757loPI   C5A10421   2.239  13.882   7.418 -0.1271  0.0700  0.1699
  757loPI   C6A10422   1.981  13.654   7.472  0.0519  0.1626  0.1561
  757loPI   C1B10423   3.931  14.645   6.555 -0.2115 -0.0046  0.0362
  757loPI   C2B10424   4.031  14.662   7.007  0.2013  0.1480 -0.3072
  757loPI   C3B10425   4.083  14.818   7.373 -0.2488 -0.1871 -0.3031
  757loPI   C4B10426   3.775  15.114   7.592 -0.3471  0.4172  0.0969
  758loPI    C110427  14.511   5.578   5.637  0.2852 -0.3334 -0.1270
  758loPI    C210428  14.568   5.527   5.244 -0.0676  0.0459 -0.2341
  758loPI    C310429  14.588   5.893   5.403  0.1120 -0.1097  0.1125
  758loPI   PO410430  14.585   5.380   5.761  0.0523  0.3211  0.2553
  758loPI   GL110431  14.961   5.316   5.948 -0.2081 -0.1830  0.1682
  758loPI   GL210432  14.857   5.136   6.106  0.6438 -0.3682 -0.0733
  758loPI   C1A10433  15.124   5.497   6.334  0.0222 -0.1337 -0.2268
  758loPI   C2A10434  15.288   5.459   6.765  0.5413 -0.1707 -0.1659
  758loPI   C3A10435  15.257   5.426   7.128 -0.1352 -0.0548 -0.1032
  758loPI   C4A10436  14.975   5.163   7.420 -0.1559  0.0456  0.0077
  758loPI   C5A10437  14.610   5.021   7.637  0.0126  0.1888 -0.0126
  758loPI   C6A10438  14.258   5.148   7.895 -0.0185  0.0903 -0.1771
  758loPI   C1B10439  14.804   5.177   6.465  0.0490 -0.3579 -0.1116
  758loPI   C2B10440  14.781   5.248   6.951 -0.3003  0.2399  0.1952
  758loPI   C3B10441  14.599   5.388   7.200  0.1391 -0.0970 -0.1499
  758loPI   C4B10442  14.318   5.487   7.449 -0.0523 -0.3008 -0.2469
  759loPI    C110443  16.446   8.931   6.015  0.1218  0.0089 -0.0518
  759loPI    C210444  16.457   8.534   6.060 -0.2421  0.0300  0.2769
  759loPI    C310445  16.471   8.694   5.694 -0.1785 -0.2878  0.1371
  759loPI   PO410446  16.306   9.001   6.268  0.0619  0.1503  0.0408
  759loPI   GL110447  16.294   8.966   6.605  0.3164 -0.0259 -0.0324
  759loPI   GL210448  16.225   9.258   6.730  0.1301 -0.1483 -0.2396
  759loPI   C1A10449  16.677   8.984   6.836 -0.0401 -0.0246 -0.1028
  759loPI   C2A10450  16.786   9.119   7.406 -0.1394 -0.0908 -0.1868
  759loPI   C3A10451  16.760   8.977   7.820 -0.0428 -0.1205  0.0366
  759loPI   C4A10452  16.751   9.216   8.194  0.0681  0.0374  0.0511
  759loPI   C5A10453  16.838   9.090   8.570 -0.0912 -0.0945 -0.0014
  759loPI   C6A10454  16.777   8.871   8.855 -0.2185  0.2119  0.0706
  759loPI   C1B10455  16.404   9.518   7.013 -0.1892 -0.3752  0.0700
  759loPI   C2B10456  16.567   9.631   7.417  0.0376  0.0873 -0.0855
  759loPI   C3B10457  16.452   9.790   7.804  0.2650  0.1525 -0.3561
  759loPI   C4B10458  16.088  10.094   7.806 -0.1116  0.0629  0.0683
  760loPI    C110459  11.749   0.392   5.629 -0.0618  0.1496 -0.0030
  760loPI    C210460  11.494   0.152   5.435 -0.0577 -0.0605  0.2466
  760loPI    C310461  11.865   0.205   5.296 -0.0769 -0.1544  0.1587
  760loPI   PO410462  11.797   0.218   5.906  0.2584 -0.0625  0.0267
  760loPI   GL110463  12.072   0.264   6.266 -0.1757 -0.0936  0.0190
  760loPI   GL210464  11.844  -0.037   6.352  0.0650 -0.2913 -0.0692
  760loPI   C1A10465  11.806   0.514   6.607 -0.2747  0.0969 -0.3195
  760loPI   C2A10466  11.599   0.639   6.937  0.0880 -0.0532  0.0609
  760loPI   C3A10467  11.474   0.364   7.337 -0.0653 -0.1009 -0.3549
  760loPI   C4A10468  11.148   0.352   7.710  0.2058 -0.2112  0.2940
  760loPI   C5A10469  10.861   0.538   7.970 -0.1756  0.2037 -0.0188
  760loPI   C6A10470  10.460   0.405   8.026  0.0113  0.0044  0.0191
  760loPI   C1B10471  12.033  -0.009   6.747  0.1736  0.0776 -0.0594
  760loPI   C2B10472  11.920   0.066   7.217 -0.0967 -0.1025 -0.3056
  760loPI   C3B10473  12.125   0.250   7.593  0.2788  0.0491 -0.0177
  760loPI   C4B10474  12.627   0.423   7.538 -0.2550  0.0666  0.2698
  761loPI    C110475  12.181   4.619   5.422  0.0816  0.1439 -0.2554
  761loPI    C210476  12.252   4.255   5.272 -0.0214 -0.0953  0.2544
  761loPI    C310477  12.554   4.513   5.324  0.0025  0.0382 -0.4466
  761loPI   PO410478  11.987   4.557   5.614 -0.0807  0.0630 -0.3179
  761loPI   GL110479  11.921   4.337   5.947 -0.3365 -0.0619 -0.1172
  761loPI   GL210480  11.572   4.447   5.919 -0.3115  0.0475 -0.1256
  761loPI   C1A10481  11.755   4.386   6.363 -0.1874 -0.0298 -0.1446
  761loPI   C2A10482  11.573   4.237   6.705 -0.0084  0.0648  0.0214
  761loPI   C3A10483  11.606   4.080   7.180  0.0665  0.0263  0.0161
  761loPI   C4A10484  11.790   3.960   7.528 -0.0009  0.2370  0.2609
  761loPI   C5A10485  11.948   3.734   7.931  0.0501 -0.1081  0.0794
  761loPI   C6A10486  11.761   3.271   8.035  0.0124 -0.0844  0.3324
  761loPI   C1B10487  11.274   4.369   6.307  0.0970 -0.2515  0.1081
  761loPI   C2B10488  11.104   4.166   6.679 -0.1151 -0.0532  0.1948
  761loPI   C3B10489  11.191   3.910   7.038  0.1147 -0.1822 -0.0979
  761loPI   C4B10490  11.181   3.929   7.460  0.0478 -0.0994  0.0155
  762loPI    C110491  16.334  14.705   5.538 -0.2819  0.2864  0.1996
  762loPI    C210492  16.145  14.354   5.509  0.1372  0.0713 -0.0276
  762loPI    C310493  16.282  14.535   5.179  0.3802  0.1900  0.1360
  762loPI   PO410494  16.505  14.625   5.748 -0.1588  0.1049  0.2160
  762loPI   GL110495  16.295  14.396   6.091  0.0327 -0.0308  0.2063
  762loPI   GL210496  16.087  14.677   6.136  0.2871  0.1325  0.2476
  762loPI   C1A10497  16.508  14.359   6.567 -0.4749 -0.0448  0.0417
  762loPI   C2A10498  16.677  14.312   7.096 -0.0583 -0.2370 -0.1155
  762loPI   C3A10499  16.827  14.277   7.440  0.0321 -0.1425  0.0274
  762loPI   C4A10500  16.642  14.491   7.714  0.0214  0.2189  0.1859
  762loPI   C5A10501  16.504  14.571   8.142 -0.3784 -0.0563 -0.1000
  762loPI   C6A10502  16.593  14.350   8.460  0.1000 -0.0282 -0.0545
  762loPI   C1B10503  16.202  14.796   6.556 -0.1794  0.2427 -0.1211
  762loPI   C2B10504  16.120  14.914   7.054 -0.1166 -0.1698  0.1842
  762loPI   C3B10505  15.963  14.796   7.470 -0.0564 -0.0337  0.1419
  762loPI   C4B10506  16.113  14.659   7.837 -0.0567 -0.2275  0.0512
  763loPI    C110507  14.922  16.429   5.078 -0.0193  0.0304 -0.0990
  763loPI    C210508  15.131  16.100   5.167  0.1020  0.1251 -0.0311
  763loPI    C310509  14.958  16.136   4.808 -0.0317 -0.0740  0.0121
  763loPI   PO410510  14.740  16.429   5.328 -0.1316  0.0045  0.1053
  763loPI   GL110511  14.814  16.652   5.681 -0.0981 -0.1702  0.0379
  763loPI   GL210512  14.771  16.366   5.911  0.1665  0.0907 -0.0704
  763loPI   C1A10513  14.870  16.831   6.101  0.0809  0.1157  0.1229
  763loPI   C2A10514  14.893  16.827   6.523 -0.1008  0.1150 -0.1316
  763loPI   C3A10515  14.827  16.670   7.002  0.1609 -0.1863 -0.0577
  763loPI   C4A10516  14.689  16.641   7.525  0.1355 -0.3762  0.0055
  763loPI   C5A10517  14.431  16.815   7.786  0.3739  0.0075 -0.2855
  763loPI   C6A10518  14.152  17.076   8.141  0.3297  0.4814  0.0584
  763loPI   C1B10519  15.075  16.393   6.259  0.0223  0.0670 -0.1642
  763loPI   C2B10520  14.982  16.361   6.662  0.1715 -0.2937 -0.1200
  763loPI   C3B10521  14.834  16.153   6.963 -0.0543  0.0677  0.2991
  763loPI   C4B10522  15.020  16.267   7.304  0.0492  0.2969  0.0155
  764loPI    C110523  16.350   0.506   5.297  0.0309 -0.3150 -0.0934
  764loPI    C210524  15.971   0.566   5.408  0.1103 -0.0224  0.0288
  764loPI    C310525  16.052   0.350   5.082 -0.1772  0.2242 -0.2122
  764loPI   PO410526  16.481   0.784   5.445  0.0616  0.1524  0.1667
  764loPI   GL110527  16.460   0.930   5.852  0.1694  0.0941  0.0730
  764loPI   GL210528  16.801   0.971   5.914 -0.3071  0.0194 -0.0467
  764loPI   C1A10529  16.351   0.951   6.289 -0.1088 -0.2549  0.0852
  764loPI   C2A10530  16.204   0.791   6.676 -0.0398 -0.0099 -0.1660
  764loPI   C3A10531  16.239   0.893   7.124  0.0218 -0.0175  0.0504
  764loPI   C4A10532  16.449   1.115   7.366 -0.0044 -0.5215  0.0072
  764loPI   C5A10533  16.773   1.020   7.631  0.1064 -0.1223 -0.1352
  764loPI   C6A10534  16.958   0.598   7.683  0.4119 -0.1741 -0.0200
  764loPI   C1B10535  16.894   1.134   6.382  0.1144 -0.0504  0.3044
  764loPI   C2B10536  16.683   0.971   6.713 -0.2541  0.1456 -0.2117
  764loPI   C3B10537  16.797   0.847   7.002  0.0201 -0.2892 -0.0987
  764loPI   C4B10538  17.115   0.867   7.269 -0.2276  0.0851  0.1061
  765loPI    C110539   9.555   2.448   5.435 -0.0636 -0.0341 -0.0202
  765loPI    C210540   9.481   2.830   5.343 -0.1806 -0.1241 -0.3114
  765loPI    C310541   9.186   2.561   5.331 -0.1551 -0.1800  0.1415
  765loPI   PO410542   9.658   2.530   5.740 -0.0533  0.0943  0.2294
  765loPI   GL110543   9.497   2.453   6.093  0.2305 -0.0541 -0.2738
  765loPI   GL210544   9.186   2.261   6.312 -0.2485  0.0731  0.0452
  765loPI   C1A10545   9.729   2.313   6.452 -0.2925 -0.3673  0.1382
  765loPI   C2A10546   9.768   2.219   6.861 -0.1955  0.2045  0.0200
  765loPI   C3A10547   9.718   2.220   7.364 -0.4972  0.0570  0.0803
  765loPI   C4A10548   9.739   2.105   7.794  0.0015 -0.2800  0.3049
  765loPI   C5A10549   9.589   1.907   8.174  0.2692 -0.0380 -0.0943
  765loPI   C6A10550   9.538   1.615   8.391  0.0906  0.0312  0.2444
  765loPI   C1B10551   9.303   2.220   6.671 -0.2374  0.0627  0.2162
  765loPI   C2B10552   9.201   2.198   7.150 -0.0446 -0.2537  0.1031
  765loPI   C3B10553   9.266   2.145   7.563  0.5791 -0.0916  0.0001
  765loPI   C4B10554   9.304   2.277   7.972  0.2358 -0.0115 -0.4183
  766loPI    C110555   4.358  17.531   5.687 -0.0804  0.1354 -0.2234
  766loPI    C210556   4.657  17.679   5.909 -0.1164 -0.0473 -0.0501
  766loPI    C310557   4.707  17.626   5.516  0.0089  0.1123 -0.0566
  766loPI   PO410558   4.287  17.363   5.894  0.1548  0.0124  0.4101
  766loPI   GL110559   4.372  17.172   6.176 -0.0700  0.3730  0.0892
  766loPI   GL210560   4.680  17.132   6.346  0.1394  0.1832 -0.3189
  766loPI   C1A10561   4.172  17.196   6.564 -0.3357  0.1648  0.0433
  766loPI   C2A10562   4.024  16.978   6.895 -0.1415 -0.1281  0.0256
  766loPI   C3A10563   4.147  16.811   7.282  0.0769  0.2694  0.1925
  766loPI   C4A10564   4.583  16.820   7.577 -0.0082 -0.1960  0.1202
  766loPI   C5A10565   4.616  16.861   8.056 -0.1582  0.0671  0.0536
  766loPI   C6A10566   4.233  16.701   8.232  0.0677  0.1048  0.1394
  766loPI   C1B10567   4.869  17.064   6.727  0.1759 -0.2490 -0.1484
  766loPI   C2B10568   5.023  17.147   7.146 -0.0031  0.1307 -0.1269
  766loPI   C3B10569   5.054  17.068   7.601  0.3771 -0.2079  0.1998
  766loPI   C4B10570   5.185  16.839   7.930 -0.2721  0.0922  0.1411
  767loPI    C110571   4.761   5.897   5.599 -0.0635  0.3130 -0.1419
  767loPI    C210572   4.866   5.930   5.215  0.0329  0.3035 -0.1167
  767loPI    C310573   5.126   6.030   5.502 -0.0524  0.3474 -0.0544
  767loPI   PO410574   4.628   6.099   5.711 -0.0086  0.1926 -0.3021
  767loPI   GL110575   4.625   6.145   6.128 -0.1092 -0.0564 -0.2681
  767loPI   GL210576   4.855   6.344   6.314  0.2662  0.0201 -0.2454
  767loPI   C1A10577   4.385   5.863   6.425  0.3749 -0.0151 -0.0702
  767loPI   C2A10578   4.306   5.897   6.801 -0.0139 -0.2117 -0.0058
  767loPI   C3A10579   4.318   5.888   7.208 -0.1596 -0.1042 -0.3509
  767loPI   C4A10580   4.151   5.935   7.532 -0.1514  0.0487  0.0605
  767loPI   C5A10581   4.094   6.042   7.961 -0.1182 -0.1157 -0.2808
  767loPI   C6A10582   4.198   6.260   8.343 -0.2133 -0.0159  0.0246
  767loPI   C1B10583   4.719   6.173   6.668 -0.0294  0.2422  0.2247
  767loPI   C2B10584   4.831   6.053   7.099  0.0030  0.0835 -0.2937
  767loPI   C3B10585   4.745   6.059   7.571 -0.2634  0.1830 -0.2672
  767loPI   C4B10586   4.763   6.212   8.001  0.1221 -0.2376 -0.3256
  768loPI    C110587   7.202   7.663   5.826  0.0512  0.0128  0.0156
  768loPI    C210588   6.837   7.528   5.733  0.0480  0.0608 -0.0425
  768loPI    C310589   7.145   7.457   5.488  0.1413 -0.2518  0.1582
  768loPI   PO410590   7.256   7.706   6.023  0.1654  0.4466  0.3946
  768loPI   GL110591   7.020   7.793   6.364  0.0954 -0.0269  0.1010
  768loPI   GL210592   6.846   7.454   6.215  0.3068 -0.3787 -0.0615
  768loPI   C1A10593   7.076   7.794   6.774  0.1541 -0.3597  0.0070
  768loPI   C2A10594   7.058   7.726   7.169 -0.1782  0.0217  0.0753
  768loPI   C3A10595   7.125   7.879   7.522 -0.3466 -0.1536 -0.0024
  768loPI   C4A10596   7.084   7.971   8.003 -0.1461 -0.0948  0.1957
  768loPI   C5A10597   7.295   8.224   8.336  0.2444  0.1606 -0.1127
  768loPI   C6A10598   7.571   8.467   8.513 -0.2127 -0.3313 -0.0269
  768loPI   C1B10599   6.851   7.343   6.627 -0.1566  0.0259  0.0374
  768loPI   C2B10600   6.851   7.335   6.995 -0.3165 -0.3612  0.1698
  768loPI   C3B10601   6.985   7.239   7.429 -0.2579  0.4269  0.3173
  768loPI   C4B10602   6.887   6.934   7.712  0.0122 -0.0219  0.3621
  769loPI    C110603  13.954  15.158   5.283  0.0810 -0.1249 -0.2535
  769loPI    C210604  13.816  15.482   5.093 -0.2633 -0.0636  0.0875
  769loPI    C310605  13.653  15.123   5.022 -0.1282 -0.1053 -0.0181
  769loPI   PO410606  13.853  15.224   5.661  0.1282  0.0960 -0.0156
  769loPI   GL110607  14.070  15.491   5.937 -0.0995  0.1000 -0.1307
  769loPI   GL210608  13.925  15.284   6.149 -0.2157  0.0622 -0.0133
  769loPI   C1A10609  13.820  15.752   6.316 -0.0749  0.0284 -0.3329
  769loPI   C2A10610  13.992  15.978   6.682  0.0469  0.0720  0.1907
  769loPI   C3A10611  14.357  15.891   6.820 -0.1172 -0.1998  0.4498
  769loPI   C4A10612  14.627  15.925   7.301  0.0756  0.0859  0.0944
  769loPI   C5A10613  14.727  16.020   7.683 -0.1795  0.2119 -0.5816
  769loPI   C6A10614  14.510  15.864   8.037 -0.0131  0.1201 -0.0918
  769loPI   C1B10615  13.562  15.349   6.249 -0.0151  0.3123 -0.2508
  769loPI   C2B10616  13.433  15.481   6.772  0.3004 -0.1395 -0.0351
  769loPI   C3B10617  13.317  15.555   7.271 -0.0931 -0.1071 -0.1275
  769loPI   C4B10618  13.159  15.626   7.622 -0.1877  0.1915 -0.0279
  770loPI    C110619   8.673  12.367   5.945  0.0064 -0.0074 -0.0547
  770loPI    C210620   8.324  12.461   5.775 -0.1536 -0.0985  0.2165
  770loPI    C310621   8.627  12.721   5.765 -0.2456  0.0043  0.0287
  770loPI   PO410622   8.641  12.305   6.145  0.1457  0.2717 -0.0501
  770loPI   GL110623   8.878  12.292   6.457 -0.3928 -0.0417  0.0340
  770loPI   GL210624   8.869  12.472   6.744  0.0808 -0.0774 -0.1390
  770loPI   C1A10625   8.742  11.975   6.823 -0.1252  0.1144  0.0460
  770loPI   C2A10626   8.762  11.871   7.290  0.2881 -0.1219  0.1201
  770loPI   C3A10627   8.862  12.007   7.690 -0.1026 -0.2851 -0.0279
  770loPI   C4A10628   8.650  12.031   8.002 -0.1015 -0.1918 -0.0471
  770loPI   C5A10629   8.698  11.601   8.322  0.0750  0.0901  0.1251
  770loPI   C6A10630   9.020  11.450   8.529  0.0682  0.0525 -0.0939
  770loPI   C1B10631   8.799  12.415   7.232 -0.1492 -0.3540  0.1141
  770loPI   C2B10632   8.884  12.498   7.643  0.0620  0.0286  0.0065
  770loPI   C3B10633   9.077  12.434   8.055  0.2088 -0.0686 -0.2509
  770loPI   C4B10634   9.411  12.248   8.273 -0.1024 -0.3378 -0.2543
  771loPI    C110635  15.801  13.751   5.935 -0.1236 -0.0530 -0.0618
  771loPI    C210636  16.123  13.933   6.088 -0.2237  0.1161 -0.0493
  771loPI    C310637  16.120  13.535   6.043 -0.0758  0.0970  0.1009
  771loPI   PO410638  15.631  13.812   6.085  0.0165 -0.2829 -0.1319
  771loPI   GL110639  15.345  13.689   6.345 -0.1037  0.1088  0.0158
  771loPI   GL210640  15.190  13.931   6.339  0.1028  0.0152 -0.1534
  771loPI   C1A10641  15.294  13.677   6.757  0.0024  0.2346 -0.0045
  771loPI   C2A10642  15.281  13.667   7.188  0.0185 -0.2205  0.2156
  771loPI   C3A10643  15.151  13.825   7.535  0.1885  0.2536 -0.1033
  771loPI   C4A10644  15.135  13.896   7.893 -0.1061  0.0053  0.2252
  771loPI   C5A10645  14.967  14.103   8.276 -0.1500  0.2587 -0.1709
  771loPI   C6A10646  14.771  14.259   8.659 -0.0069 -0.2748 -0.2954
  771loPI   C1B10647  14.963  14.168   6.719  0.1619 -0.0541  0.0455
  771loPI   C2B10648  14.843  14.290   7.204 -0.0602  0.2715  0.3269
  771loPI   C3B10649  14.760  14.214   7.640  0.1398  0.1803 -0.1186
  771loPI   C4B10650  14.614  13.915   7.786 -0.0467  0.1504  0.0518
  772loPI    C110651   3.692  16.069   5.680  0.1878  0.0831 -0.0109
  772loPI    C210652   3.537  16.365   5.460  0.1009  0.1617  0.1533
  772loPI    C310653   3.339  16.019   5.498  0.1905  0.0897 -0.0180
  772loPI   PO410654   3.761  16.201   5.894  0.1490 -0.3190  0.2078
  772loPI   GL110655   3.677  16.128   6.368 -0.2345  0.0352 -0.1170
  772loPI   GL210656   3.517  16.461   6.331  0.1053 -0.0227  0.1378
  772loPI   C1A10657   3.661  16.153   6.779  0.2360 -0.0079  0.1312
  772loPI   C2A10658   3.576  16.208   7.126  0.1198 -0.1212 -0.0420
  772loPI   C3A10659   3.277  16.472   7.395  0.0778 -0.3472 -0.1777
  772loPI   C4A10660   3.322  16.602   7.847  0.0915  0.1144 -0.1109
  772loPI   C5A10661   3.337  16.900   8.169 -0.0815  0.0239  0.0228
  772loPI   C6A10662   3.398  17.275   8.542 -0.0574  0.0052 -0.0403
  772loPI   C1B10663   3.256  16.401   6.661  0.1655  0.0393  0.0537
  772loPI   C2B10664   3.076  16.625   6.953 -0.0529  0.2858  0.0423
  772loPI   C3B10665   2.862  16.848   7.260 -0.0559  0.0189 -0.1567
  772loPI   C4B10666   2.871  16.746   7.706  0.0386  0.1099  0.0281
  773loPI    C110667   0.567   7.256   5.731  0.0643 -0.0405 -0.0735
  773loPI    C210668   0.689   7.349   5.361  0.3017 -0.1232 -0.0177
  773loPI    C310669   0.400   7.077   5.414  0.1053  0.0562 -0.1504
  773loPI   PO410670   0.805   7.304   5.844 -0.3507 -0.0879  0.2300
  773loPI   GL110671   0.974   7.246   6.217 -0.2127 -0.3984  0.0459
  773loPI   GL210672   0.716   7.348   6.493 -0.2517 -0.0838 -0.1016
  773loPI   C1A10673   1.065   6.959   6.585 -0.0142  0.0423 -0.2519
  773loPI   C2A10674   1.247   7.026   6.893  0.4631 -0.2944  0.1365
  773loPI   C3A10675   1.195   7.025   7.304 -0.1485 -0.1487  0.0032
  773loPI   C4A10676   1.344   6.634   7.526 -0.0896 -0.1044 -0.1013
  773loPI   C5A10677   1.508   6.671   7.870 -0.2260  0.0831 -0.1050
  773loPI   C6A10678   1.391   7.038   8.260 -0.0766 -0.1160  0.2772
  773loPI   C1B10679   0.688   7.168   6.832  0.0195 -0.3424  0.1088
  773loPI   C2B10680   0.618   7.117   7.227  0.1337  0.0673 -0.1997
  773loPI   C3B10681   0.663   7.226   7.653 -0.3355 -0.0084  0.3637
  773loPI   C4B10682   0.751   7.505   8.078 -0.0176  0.0364  0.0338
  774loPI    C110683  14.416   9.708   5.802 -0.1332  0.1616 -0.1403
  774loPI    C210684  14.468   9.969   5.503  0.0612 -0.1406 -0.3759
  774loPI    C310685  14.579   9.587   5.457 -0.0857 -0.2349  0.0162
  774loPI   PO410686  14.495   9.792   5.968 -0.4702 -0.0754  0.0654
  774loPI   GL110687  14.642   9.611   6.438  0.2561 -0.3144 -0.1733
  774loPI   GL210688  14.846   9.279   6.380  0.4884 -0.2507 -0.0245
  774loPI   C1A10689  14.805   9.664   6.869  0.0964 -0.1992 -0.3197
  774loPI   C2A10690  14.961   9.597   7.308  0.3550 -0.0970  0.0434
  774loPI   C3A10691  15.143   9.644   7.728  0.0218 -0.0410  0.5723
  774loPI   C4A10692  15.554   9.728   7.881  0.1224  0.1634  0.2390
  774loPI   C5A10693  15.813   9.781   8.206 -0.0619  0.0140 -0.3221
  774loPI   C6A10694  16.235   9.702   8.267  0.0024 -0.0535 -0.2765
  774loPI   C1B10695  14.877   9.166   6.854 -0.1172  0.0985  0.1507
  774loPI   C2B10696  14.788   9.113   7.192  0.1545  0.0121 -0.0350
  774loPI   C3B10697  15.155   9.176   7.506  0.0307  0.1509  0.0886
  774loPI   C4B10698  15.498   9.354   7.563  0.2634  0.0637  0.0469
  775loPI    C110699   9.340  11.668   5.876 -0.2283  0.0025 -0.0671
  775loPI    C210700   9.556  11.335   5.829  0.0736  0.1557  0.1987
  775loPI    C310701   9.451  11.552   5.510  0.1689 -0.0104  0.0530
  775loPI   PO410702   9.390  11.646   6.107  0.2793 -0.1125 -0.0320
  775loPI   GL110703   9.668  11.686   6.448  0.1379  0.1603  0.0069
  775loPI   GL210704   9.983  11.872   6.405  0.0758  0.3875  0.0136
  775loPI   C1A10705   9.559  11.624   6.888  0.0021 -0.4853  0.0197
  775loPI   C2A10706   9.656  11.660   7.288 -0.0777 -0.4617 -0.1557
  775loPI   C3A10707   9.564  11.419   7.737  0.0951 -0.4237 -0.0263
  775loPI   C4A10708   9.728  11.076   7.975 -0.1941  0.2457  0.0594
  775loPI   C5A10709   9.763  11.136   8.328  0.3696 -0.4384 -0.0979
  775loPI   C6A10710  10.126  11.358   8.491  0.2505 -0.3946 -0.1664
  775loPI   C1B10711   9.896  11.982   6.806 -0.0637 -0.3040  0.1169
  775loPI   C2B10712   9.987  12.141   7.265  0.0838 -0.0602  0.0442
  775loPI   C3B10713  10.150  12.112   7.651  0.0054 -0.1355 -0.1890
  775loPI   C4B10714  10.114  12.101   8.038 -0.0263 -0.0562  0.0680
  776loPI    C110715   3.806  10.818   5.691 -0.1016  0.0331  0.1691
  776loPI    C210716   3.675  10.750   5.319  0.4098 -0.2644  0.0339
  776loPI    C310717   3.930  11.050   5.390 -0.0057  0.0530  0.2238
  776loPI   PO410718   3.573  10.805   5.824 -0.0281 -0.1381 -0.0168
  776loPI   GL110719   3.692  10.623   6.256  0.0567  0.3901 -0.1241
  776loPI   GL210720   3.784  10.419   6.036  0.0935  0.2363  0.0486
  776loPI   C1A10721   3.341  10.415   6.523  0.0563  0.1428 -0.1887
  776loPI   C2A10722   3.230  10.486   6.988  0.0102  0.0594 -0.2049
  776loPI   C3A10723   3.094  10.766   7.261  0.1283 -0.0886 -0.0238
  776loPI   C4A10724   3.331  11.053   7.474  0.0928  0.1678 -0.3866
  776loPI   C5A10725   3.524  11.152   7.842  0.0527 -0.0044  0.2619
  776loPI   C6A10726   3.894  11.318   7.908  0.2782 -0.1061 -0.0328
  776loPI   C1B10727   4.051  10.284   6.355 -0.0105 -0.0133  0.3105
  776loPI   C2B10728   4.138  10.246   6.764  0.0479  0.4234 -0.0328
  776loPI   C3B10729   4.461  10.273   6.964  0.2476  0.0881  0.3745
  776loPI   C4B10730   4.685  10.410   7.363 -0.1717  0.2135  0.0668
  777loPI    C110731   9.321   1.094   5.437  0.1002 -0.0936 -0.1656
  777loPI    C210732   9.054   1.383   5.365 -0.2247 -0.2853  0.2250
  777loPI    C310733   9.140   1.115   5.081 -0.0913  0.0525 -0.0616
  777loPI   PO410734   9.242   0.949   5.691  0.1987 -0.0756 -0.1143
  777loPI   GL110735   9.413   0.762   6.068  0.0850  0.3036 -0.0442
  777loPI   GL210736   9.593   0.534   6.024 -0.1361 -0.1094 -0.2475
  777loPI   C1A10737   9.244   0.785   6.514  0.0477  0.4149 -0.0810
  777loPI   C2A10738   9.280   0.809   6.876 -0.5006  0.0826  0.0649
  777loPI   C3A10739   9.168   0.739   7.316 -0.0675 -0.1348  0.0927
  777loPI   C4A10740   9.134   0.575   7.777 -0.0149 -0.1671  0.1273
  777loPI   C5A10741   8.820   0.223   8.165  0.3150  0.1307 -0.0840
  777loPI   C6A10742   8.532  -0.214   7.999  0.0016  0.2635 -0.3248
  777loPI   C1B10743   9.686   0.526   6.489 -0.0658 -0.2972 -0.2914
  777loPI   C2B10744   9.766   0.790   6.773  0.1501 -0.3714 -0.2050
  777loPI   C3B10745   9.695   0.899   7.217  0.2122 -0.2544 -0.2654
  777loPI   C4B10746   9.919   1.095   7.636 -0.1151 -0.1362 -0.2055
  778loPI    C110747  13.926  12.253   5.538  0.2278  0.1686  0.1419
  778loPI    C210748  14.048  12.508   5.255 -0.0781 -0.0313 -0.1783
  778loPI    C310749  13.994  12.122   5.166 -0.1074 -0.1118  0.1746
  778loPI   PO410750  14.001  12.429   5.767 -0.0045 -0.1873 -0.0104
  778loPI   GL110751  13.748  12.495   6.054  0.0974 -0.1767  0.2231
  778loPI   GL210752  13.535  12.397   6.061 -0.0010 -0.0472  0.1674
  778loPI   C1A10753  13.745  12.447   6.526  0.0067  0.0319 -0.0612
  778loPI   C2A10754  13.901  12.522   6.925  0.2560 -0.1785  0.0034
  778loPI   C3A10755  13.890  12.541   7.411  0.1238  0.1868  0.0196
  778loPI   C4A10756  13.927  12.579   7.890  0.0763 -0.3604  0.1942
  778loPI   C5A10757  13.586  12.766   8.138  0.2277  0.3536 -0.2295
  778loPI   C6A10758  13.382  12.757   8.588 -0.4975 -0.0724  0.1736
  778loPI   C1B10759  13.325  12.586   6.423 -0.0634  0.1037  0.1401
  778loPI   C2B10760  13.327  12.547   6.850 -0.1084  0.0009  0.1649
  778loPI   C3B10761  13.276  12.513   7.252  0.0758 -0.1568 -0.0365
  778loPI   C4B10762  13.444  12.759   7.611 -0.2656  0.0305 -0.0913
  779loPI    C110763  12.918   0.036   5.303  0.0828  0.2328  0.0581
  779loPI    C210764  13.010  -0.255   5.043 -0.0482  0.0886  0.1711
  779loPI    C310765  12.722   0.009   4.954 -0.1710 -0.0290  0.2159
  779loPI   PO410766  12.916  -0.165   5.552  0.0645 -0.2027 -0.0598
  779loPI   GL110767  12.618   0.010   5.868  0.2812  0.3024  0.0422
  779loPI   GL210768  12.272  -0.143   5.945  0.2197  0.1289  0.0259
  779loPI   C1A10769  12.478   0.428   6.140 -0.0760  0.3436  0.1422
  779loPI   C2A10770  12.406   0.406   6.638 -0.0601 -0.0988 -0.1064
  779loPI   C3A10771  12.267   0.378   7.025  0.2016 -0.0906  0.1732
  779loPI   C4A10772  11.927   0.647   7.343  0.0748  0.0644 -0.3399
  779loPI   C5A10773  11.657   0.885   7.712  0.0073  0.1610 -0.0377
  779loPI   C6A10774  11.524   0.775   8.077  0.2199  0.0306  0.0177
  779loPI   C1B10775  12.478  -0.040   6.339 -0.0502  0.1131 -0.1247
  779loPI   C2B10776  12.519  -0.013   6.758 -0.0241  0.0771 -0.2049
  779loPI   C3B10777  12.537   0.012   7.208 -0.1996 -0.3254 -0.2319
  779loPI   C4B10778  12.568  -0.085   7.670 -0.0678  0.0590  0.0799
  780loPI    C110779  13.564  17.208   5.337  0.2077 -0.1280 -0.1727
  780loPI    C210780  13.333  17.143   5.018  0.2262 -0.1199 -0.1877
  780loPI    C310781  13.538  17.485   5.050  0.0371 -0.0169 -0.0520
  780loPI   PO410782  13.421  17.132   5.555 -0.0040  0.2852  0.1020
  780loPI   GL110783  13.428  17.293   5.890 -0.2523 -0.4271 -0.2059
  780loPI   GL210784  13.562  17.590   6.165 -0.1445  0.4241 -0.2418
  780loPI   C1A10785  13.559  17.131   6.254  0.4088 -0.0238 -0.1742
  780loPI   C2A10786  13.473  16.951   6.641 -0.0493 -0.0052  0.0074
  780loPI   C3A10787  13.538  16.985   7.070 -0.0271  0.5213 -0.2696
  780loPI   C4A10788  13.507  16.846   7.531 -0.1452  0.0580 -0.1185
  780loPI   C5A10789  13.592  16.403   7.652  0.1338 -0.2189  0.0885
  780loPI   C6A10790  13.790  16.104   7.587  0.1365  0.1791  0.0298
  780loPI   C1B10791  13.630  17.464   6.643  0.1967 -0.1835  0.2373
  780loPI   C2B10792  13.566  17.526   7.097 -0.3834 -0.2158 -0.3277
  780loPI   C3B10793  13.419  17.453   7.465 -0.0863 -0.0088 -0.0243
  780loPI   C4B10794  13.298  17.289   7.840  0.2183 -0.3008  0.0035
  781loPI    C110795   1.933  14.105   5.292 -0.3542  0.0753  0.1771
  781loPI    C210796   1.658  14.192   5.015  0.1373  0.2939 -0.2602
  781loPI    C310797   1.883  13.864   4.977 -0.0629  0.1091  0.1013
  781loPI   PO410798   1.875  14.094   5.600  0.0336 -0.1713 -0.1329
  781loPI   GL110799   1.805  14.494   5.854  0.3804  0.1930  0.1613
  781loPI   GL210800   1.449  14.356   5.989 -0.3899 -0.0922 -0.1168
  781loPI   C1A10801   1.890  14.850   6.177  0.0965 -0.0017 -0.1050
  781loPI   C2A10802   1.855  15.180   6.439 -0.4107  0.1017 -0.1321
  781loPI   C3A10803   1.565  15.403   6.735 -0.0114 -0.1230 -0.1516
  781loPI   C4A10804   1.654  15.459   7.225  0.1955 -0.3584 -0.3574
  781loPI   C5A10805   1.648  15.326   7.644 -0.0769 -0.1163 -0.2338
  781loPI   C6A10806   1.290  15.216   7.838  0.0977  0.1260  0.3624
  781loPI   C1B10807   1.361  14.571   6.354  0.1508  0.1815  0.0349
  781loPI   C2B10808   1.460  14.814   6.669 -0.2182 -0.0331 -0.1726
  781loPI   C3B10809   1.405  14.892   7.130  0.0963 -0.2445  0.0969
  781loPI   C4B10810   1.246  14.921   7.512  0.3056 -0.0379 -0.2421
  782loPI    C110811   7.997   4.150   5.698  0.0349  0.1698  0.0138
  782loPI    C210812   8.102   4.410   5.413  0.0666  0.1829  0.0373
  782loPI    C310813   7.962   4.049   5.313 -0.0097  0.2214  0.0040
  782loPI   PO410814   8.141   4.003   5.840  0.3532  0.1714  0.0529
  782loPI   GL110815   7.997   3.942   6.191 -0.2903 -0.3000  0.1668
  782loPI   GL210816   7.721   4.043   6.344  0.1070 -0.2214  0.2291
  782loPI   C1A10817   8.113   3.716   6.468  0.0080 -0.0141  0.2011
  782loPI   C2A10818   8.300   3.518   6.800  0.0860  0.3471 -0.1265
  782loPI   C3A10819   8.331   3.404   7.243  0.0763  0.2272  0.2687
  782loPI   C4A10820   8.327   3.531   7.683 -0.5772 -0.0611 -0.0064
  782loPI   C5A10821   8.070   3.746   8.132  0.0285  0.2644  0.1001
  782loPI   C6A10822   7.967   4.058   8.504 -0.0902 -0.1118 -0.1389
  782loPI   C1B10823   7.803   4.044   6.798  0.1635 -0.3250 -0.1139
  782loPI   C2B10824   7.712   4.318   7.204 -0.2067  0.0325  0.0091
  782loPI   C3B10825   7.359   4.527   7.451 -0.1957 -0.3515  0.1051
  782loPI   C4B10826   7.309   4.889   7.517 -0.1556  0.0027 -0.1799
  783loPI    C110827   5.881  13.774   5.645  0.0174  0.1614  0.0383
  783loPI    C210828   6.205  13.747   5.412 -0.0134  0.0372  0.0090
  783loPI    C310829   5.911  14.002   5.318  0.0370  0.0882 -0.0111
  783loPI   PO410830   5.962  13.554   5.829  0.0544  0.2758 -0.0168
  783loPI   GL110831   6.020  13.376   6.263 -0.0999 -0.0093 -0.0145
  783loPI   GL210832   6.269  13.640   6.287  0.0081 -0.1065 -0.2621
  783loPI   C1A10833   5.847  13.323   6.650 -0.1282 -0.1471  0.1055
  783loPI   C2A10834   5.583  13.497   6.810  0.2187 -0.0238 -0.1148
  783loPI   C3A10835   5.303  13.672   7.098 -0.0004  0.0440 -0.2633
  783loPI   C4A10836   4.947  13.665   7.345 -0.1311  0.0539  0.2421
  783loPI   C5A10837   4.953  13.729   7.811 -0.1484  0.2902  0.2592
  783loPI   C6A10838   5.198  13.476   8.208  0.3296  0.0756 -0.0077
  783loPI   C1B10839   6.609  13.676   6.597  0.2453 -0.3521 -0.1281
  783loPI   C2B10840   6.421  13.752   6.938  0.1396  0.0435 -0.0360
  783loPI   C3B10841   6.223  13.861   7.325 -0.1887 -0.3361 -0.1515
  783loPI   C4B10842   6.166  13.647   7.730 -0.2449  0.1553  0.0387
  784loPI    C110843   8.492   5.149   5.719  0.0349  0.0176  0.0906
  784loPI    C210844   8.322   4.890   5.466 -0.2633  0.2453  0.0533
  784loPI    C310845   8.688   5.032   5.389 -0.1901  0.0109 -0.0425
  784loPI   PO410846   8.471   5.042   5.928  0.1209 -0.0161  0.0526
  784loPI   GL110847   8.417   5.206   6.315  0.3420 -0.2320  0.1150
  784loPI   GL210848   8.651   5.066   6.436 -0.0208 -0.0794 -0.2947
  784loPI   C1A10849   8.479   5.424   6.789  0.0005 -0.1360  0.0188
  784loPI   C2A10850   8.365   5.345   7.210 -0.2089 -0.0432  0.1713
  784loPI   C3A10851   8.374   5.243   7.577  0.0621 -0.1226  0.0295
  784loPI   C4A10852   8.173   5.052   7.971  0.1317  0.0974 -0.2649
  784loPI   C5A10853   8.073   4.682   8.192  0.3011 -0.1412 -0.1525
  784loPI   C6A10854   7.880   4.402   8.169  0.0918 -0.0340 -0.2022
  784loPI   C1B10855   8.738   5.012   6.922 -0.1863 -0.1527 -0.1143
  784loPI   C2B10856   8.652   4.917   7.312 -0.2812 -0.0705  0.1725
  784loPI   C3B10857   8.433   4.726   7.709 -0.2494 -0.2789 -0.0210
  784loPI   C4B10858   8.755   4.371   7.834 -0.0812 -0.0372 -0.0406
  785loPI    C110859   5.039   0.973   5.554  0.0561 -0.1979  0.1996
  785loPI    C210860   4.813   0.668   5.680 -0.1237 -0.0264  0.2978
  785loPI    C310861   4.789   0.792   5.300  0.1176 -0.2794  0.1969
  785loPI   PO410862   5.024   1.121   5.805 -0.1058  0.0004 -0.0480
  785loPI   GL110863   4.579   1.103   6.157  0.1289  0.0279  0.0984
  785loPI   GL210864   4.383   0.938   6.336 -0.0851  0.3000  0.0053
  785loPI   C1A10865   4.475   1.369   6.505  0.1115 -0.1249  0.1583
  785loPI   C2A10866   4.396   1.489   6.903 -0.3421  0.1645  0.0371
  785loPI   C3A10867   4.207   1.579   7.294 -0.0727  0.0392 -0.1097
  785loPI   C4A10868   3.862   1.949   7.237 -0.0620 -0.1459  0.3703
  785loPI   C5A10869   3.907   2.269   7.161  0.1853 -0.1367  0.1728
  785loPI   C6A10870   3.707   2.492   6.882 -0.0592  0.0233 -0.1310
  785loPI   C1B10871   4.434   0.631   6.619 -0.1165  0.1730 -0.0760
  785loPI   C2B10872   4.260   0.545   7.072 -0.1335  0.0216 -0.0773
  785loPI   C3B10873   4.168   0.631   7.541 -0.0780 -0.0013 -0.2486
  785loPI   C4B10874   3.833   0.607   7.810 -0.2288  0.0292  0.0897
  786loPI    C110875   3.755  12.092   5.304 -0.0254  0.0702  0.0511
  786loPI    C210876   4.100  12.142   5.108  0.0600 -0.0598  0.1664
  786loPI    C310877   3.799  11.942   4.936  0.0922 -0.0692  0.1209
  786loPI   PO410878   3.818  12.140   5.568  0.3940 -0.0520  0.2543
  786loPI   GL110879   3.614  12.200   5.993 -0.0070  0.1284  0.1434
  786loPI   GL210880   3.523  11.944   6.094  0.1203  0.2138  0.1085
  786loPI   C1A10881   3.340  12.405   6.242  0.0286  0.1759  0.1869
  786loPI   C2A10882   3.569  12.633   6.628  0.0095  0.0591  0.1425
  786loPI   C3A10883   3.747  12.956   6.882  0.0069  0.0130  0.4143
  786loPI   C4A10884   3.544  13.026   7.281  0.1460  0.3448 -0.0198
  786loPI   C5A10885   3.259  13.240   7.534 -0.1017 -0.0798 -0.0027
  786loPI   C6A10886   3.184  13.677   7.731  0.0992 -0.0619  0.3571
  786loPI   C1B10887   3.459  12.049   6.545 -0.2553  0.1498  0.0745
  786loPI   C2B10888   3.448  12.027   7.006 -0.0145  0.0354  0.0718
  786loPI   C3B10889   3.558  11.953   7.416 -0.1017  0.1443 -0.1555
  786loPI   C4B10890   3.451  11.639   7.790 -0.2347  0.0619  0.0332
  787loPI    C110891  14.592   2.289   4.969 -0.1458  0.2177 -0.0548
  787loPI    C210892  14.336   2.515   4.762 -0.2524 -0.1759 -0.3668
  787loPI    C310893  14.436   2.152   4.627  0.3001 -0.1205 -0.1336
  787loPI   PO410894  14.468   2.274   5.269  0.2228 -0.1713 -0.1353
  787loPI   GL110895  14.277   2.490   5.628  0.5421 -0.4375 -0.0263
  787loPI   GL210896  14.053   2.378   5.859  0.2226 -0.0677 -0.4588
  787loPI   C1A10897  14.469   2.514   6.102  0.3546 -0.1365  0.2307
  787loPI   C2A10898  14.577   2.531   6.434 -0.1919 -0.4226 -0.0700
  787loPI   C3A10899  14.671   2.461   6.711  0.1274 -0.2063  0.0908
  787loPI   C4A10900  14.724   2.713   7.100 -0.0711  0.0469 -0.0226
  787loPI   C5A10901  15.037   2.860   7.531  0.1307  0.4274 -0.0743
  787loPI   C6A10902  15.162   2.734   7.860 -0.0325 -0.1348  0.0863
  787loPI   C1B10903  14.045   2.383   6.256 -0.0813 -0.1044 -0.0031
  787loPI   C2B10904  14.138   2.489   6.687 -0.0407 -0.0442 -0.3416
  787loPI   C3B10905  14.255   2.497   7.068 -0.3268 -0.1113  0.1842
  787loPI   C4B10906  14.487   2.439   7.398 -0.0797  0.1544  0.1454
  788loPI    C110907  13.542  11.427   5.518  0.0495 -0.2028 -0.1116
  788loPI    C210908  13.286  11.142   5.403 -0.3032  0.0306  0.0756
  788loPI    C310909  13.577  11.262   5.155 -0.3130 -0.3040 -0.1037
  788loPI   PO410910  13.534  11.467   5.740  0.0872 -0.1883  0.0963
  788loPI   GL110911  13.660  11.344   6.077 -0.0453 -0.2782 -0.0830
  788loPI   GL210912  13.480  11.570   6.222 -0.2093 -0.0025 -0.0222
  788loPI   C1A10913  13.681  11.110   6.440  0.1131  0.0201 -0.3039
  788loPI   C2A10914  13.531  11.122   6.845  0.0875  0.4920 -0.3059
  788loPI   C3A10915  13.459  11.171   7.260  0.2459 -0.3776  0.0180
  788loPI   C4A10916  13.528  11.122   7.673  0.2085 -0.1755 -0.3526
  788loPI   C5A10917  13.521  11.222   8.155  0.2970  0.1750 -0.0580
  788loPI   C6A10918  13.623  11.571   8.409  0.0933  0.1958 -0.2801
  788loPI   C1B10919  13.535  11.599   6.621 -0.0698  0.0761  0.5290
  788loPI   C2B10920  13.544  11.623   7.025 -0.2770 -0.0669  0.3162
  788loPI   C3B10921  13.629  11.619   7.494 -0.0674 -0.2910 -0.2113
  788loPI   C4B10922  13.630  11.664   7.931 -0.1818 -0.0026  0.1420
  789loPI    C110923  13.301   3.188   5.134  0.0438  0.1923  0.0443
  789loPI    C210924  13.197   3.535   4.964  0.1532  0.2771  0.1491
  789loPI    C310925  13.582   3.426   4.978  0.0940  0.0137 -0.1438
  789loPI   PO410926  13.035   3.090   5.258  0.1503 -0.2174 -0.1235
  789loPI   GL110927  12.954   3.001   5.663 -0.1761  0.0814  0.2328
  789loPI   GL210928  13.286   2.989   5.701 -0.1435 -0.0666 -0.0980
  789loPI   C1A10929  12.747   2.895   6.095  0.0338  0.0769 -0.0347
  789loPI   C2A10930  12.411   2.604   6.263 -0.0734  0.1309 -0.2934
  789loPI   C3A10931  12.223   2.242   6.642  0.0723  0.3510  0.0584
  789loPI   C4A10932  12.523   2.269   6.993 -0.0390  0.0236  0.0355
  789loPI   C5A10933  12.539   1.997   7.366  0.1344 -0.1689 -0.3410
  789loPI   C6A10934  12.410   1.658   7.666 -0.4537 -0.3319 -0.1427
  789loPI   C1B10935  13.264   2.891   6.054 -0.2310  0.0876 -0.0076
  789loPI   C2B10936  13.226   2.898   6.408 -0.0773  0.1713  0.0352
  789loPI   C3B10937  13.264   2.809   6.861 -0.0774  0.1102  0.1607
  789loPI   C4B10938  13.333   2.563   7.186  0.1841  0.1095 -0.1466
  790loPI    C110939   1.367  13.273   5.117 -0.0417  0.0383 -0.0779
  790loPI    C210940   1.640  13.401   4.855 -0.1178  0.0882 -0.1334
  790loPI    C310941   1.450  13.054   4.793  0.1676 -0.1095  0.0734
  790loPI   PO410942   1.486  13.255   5.344  0.0945 -0.3083  0.2877
  790loPI   GL110943   1.240  13.261   5.711  0.3098  0.2854 -0.1262
  790loPI   GL210944   0.998  13.126   5.897 -0.0371 -0.1445  0.0062
  790loPI   C1A10945   1.502  13.038   6.007 -0.1027  0.1546  0.0920
  790loPI   C2A10946   1.666  13.175   6.412  0.0227  0.0506 -0.0329
  790loPI   C3A10947   1.649  13.106   6.870  0.2288  0.2331 -0.1961
  790loPI   C4A10948   1.608  13.091   7.398 -0.1401  0.0209  0.2609
  790loPI   C5A10949   1.400  13.125   7.757 -0.0416  0.2017 -0.0710
  790loPI   C6A10950   1.049  12.833   7.971 -0.3750  0.3773  0.0093
  790loPI   C1B10951   1.166  12.997   6.405 -0.1197  0.2574  0.0498
  790loPI   C2B10952   1.103  12.845   6.726  0.4185 -0.0105  0.0885
  790loPI   C3B10953   1.243  12.679   7.219 -0.1224  0.3948 -0.0039
  790loPI   C4B10954   1.431  12.672   7.628  0.0565 -0.0765  0.0830
  791loPI    C110955  13.010   0.793   5.305 -0.0951  0.1150  0.0908
  791loPI    C210956  13.305   0.898   5.055 -0.1922 -0.2494 -0.1855
  791loPI    C310957  12.928   1.010   4.979 -0.1808 -0.1074 -0.0380
  791loPI   PO410958  13.042   0.881   5.463  0.0813  0.0048  0.0830
  791loPI   GL110959  13.270   0.852   5.885  0.3252  0.0262  0.0957
  791loPI   GL210960  13.366   0.593   5.775  0.0293 -0.1048  0.4516
  791loPI   C1A10961  13.234   0.777   6.329 -0.0075  0.0657  0.0188
  791loPI   C2A10962  13.214   0.804   6.812  0.2432  0.1295 -0.0351
  791loPI   C3A10963  13.376   0.826   7.111 -0.1145  0.0781 -0.1602
  791loPI   C4A10964  13.647   1.020   7.457  0.4664  0.0360 -0.3162
  791loPI   C5A10965  13.991   1.222   7.660 -0.0391 -0.0439  0.0891
  791loPI   C6A10966  14.336   1.182   7.979  0.1505  0.0904  0.2922
  791loPI   C1B10967  13.224   0.330   6.179 -0.1322 -0.1114  0.3180
  791loPI   C2B10968  12.939   0.273   6.477  0.3334 -0.0198 -0.0120
  791loPI   C3B10969  12.867   0.400   6.856 -0.2453 -0.1878  0.2808
  791loPI   C4B10970  13.054   0.448   7.261  0.1376  0.1061  0.2533
  792loPI    C110971   6.660  15.501   5.637 -0.1033 -0.1055  0.1791
  792loPI    C210972   6.733  15.492   5.244 -0.4900 -0.2667  0.1062
  792loPI    C310973   6.418  15.695   5.384 -0.3214 -0.1622  0.3413
  792loPI   PO410974   6.912  15.632   5.725  0.1926  0.0687  0.0565
  792loPI   GL110975   7.295  15.646   6.090  0.0153 -0.1841  0.0323
  792loPI   GL210976   7.641  15.646   6.110 -0.0103 -0.1227 -0.0133
  792loPI   C1A10977   7.338  16.027   6.295  0.5401  0.1150 -0.0749
  792loPI   C2A10978   7.423  16.278   6.571  0.0185 -0.0506  0.0678
  792loPI   C3A10979   7.275  16.307   6.944 -0.0545  0.0709 -0.1338
  792loPI   C4A10980   7.263  16.279   7.369  0.1280 -0.2200  0.0259
  792loPI   C5A10981   7.180  16.376   7.801 -0.1122 -0.0597  0.3963
  792loPI   C6A10982   6.979  16.704   8.077  0.1682  0.3602 -0.0715
  792loPI   C1B10983   7.550  15.700   6.562 -0.1140  0.2843  0.1673
  792loPI   C2B10984   7.708  15.602   7.052  0.1159 -0.0734 -0.2965
  792loPI   C3B10985   7.725  15.492   7.462 -0.2506 -0.2493  0.0668
  792loPI   C4B10986   8.055  15.191   7.822 -0.0533 -0.0558  0.0345
  793loPI    C110987   1.228   9.405   5.424  0.0835  0.1627 -0.0369
  793loPI    C210988   1.416   9.470   5.077  0.2040  0.2121  0.0372
  793loPI    C310989   1.257   9.777   5.280  0.3609  0.2175  0.1536
  793loPI   PO410990   1.084   9.243   5.380 -0.1214  0.2466  0.3938
  793loPI   GL110991   1.247   8.988   5.782 -0.1088  0.0594 -0.0005
  793loPI   GL210992   1.233   8.691   5.830  0.0947  0.1136 -0.3592
  793loPI   C1A10993   1.404   9.178   6.028 -0.1176  0.0679  0.0064
  793loPI   C2A10994   1.318   9.180   6.424  0.0529 -0.1944 -0.0086
  793loPI   C3A10995   1.441   9.437   6.736  0.0135 -0.1030 -0.0532
  793loPI   C4A10996   1.439   9.507   7.204  0.1276  0.1124 -0.1428
  793loPI   C5A10997   1.286   9.743   7.540  0.2267 -0.0490 -0.0832
  793loPI   C6A10998   1.375   9.669   7.973 -0.1609 -0.3312  0.0860
  793loPI   C1B10999   1.049   8.784   6.216  0.2207  0.0720  0.2983
  793loPI   C2B11000   0.896   8.890   6.615  0.0791 -0.0434  0.5509
  793loPI   C3B11001   1.103   9.149   6.917  0.0449 -0.2608  0.1677
  793loPI   C4B11002   1.052   9.202   7.320 -0.4223  0.1071  0.1614
  794loPI    C111003  11.330   0.852   5.472 -0.1221 -0.3018 -0.0364
  794loPI    C211004  11.348   0.928   5.080  0.1816  0.1877  0.0638
  794loPI    C311005  11.607   0.673   5.246  0.0377 -0.0382 -0.0530
  794loPI   PO411006  11.147   0.954   5.543  0.0100 -0.3875 -0.1562
  794loPI   GL111007  11.173   1.034   5.969 -0.2044  0.0697  0.0051
  794loPI   GL211008  11.355   1.265   5.977 -0.0251  0.1315  0.1874
  794loPI   C1A11009  10.952   0.850   6.299  0.3716 -0.4116 -0.1211
  794loPI   C2A11010  10.730   0.842   6.657 -0.3424  0.0220 -0.1167
  794loPI   C3A11011  10.835   0.970   7.069 -0.2026 -0.0864  0.0257
  794loPI   C4A11012  10.848   1.252   7.387 -0.2380 -0.1784 -0.3109
  794loPI   C5A11013  10.854   1.707   7.476  0.0565  0.3320  0.0522
  794loPI   C6A11014  11.020   2.009   7.878  0.0373 -0.2003  0.0789
  794loPI   C1B11015  11.247   1.254   6.421  0.1152  0.1643 -0.0722
  794loPI   C2B11016  11.343   1.034   6.855 -0.2299  0.0148 -0.0307
  794loPI   C3B11017  11.329   0.875   7.263  0.1388 -0.0259 -0.0011
  794loPI   C4B11018  11.148   0.919   7.659 -0.3338  0.1912 -0.0061
  795loPI    C111019  16.313   3.418   4.952 -0.3132  0.1749  0.1148
  795loPI    C211020  16.057   3.314   4.662 -0.1197  0.0752 -0.0228
  795loPI    C311021  16.348   3.578   4.587 -0.0413  0.0156  0.0682
  795loPI   PO411022  16.181   3.447   5.115 -0.4204  0.0540 -0.3132
  795loPI   GL111023  16.095   3.345   5.534  0.2471  0.7841 -0.0605
  795loPI   GL211024  16.364   3.533   5.577 -0.1429 -0.2839 -0.0338
  795loPI   C1A11025  15.970   3.013   5.791 -0.1648 -0.1172 -0.0022
  795loPI   C2A11026  16.083   2.609   6.049 -0.2673 -0.2716  0.0098
  795loPI   C3A11027  16.092   2.691   6.501  0.1724  0.1267 -0.3965
  795loPI   C4A11028  15.977   2.757   6.871  0.1289 -0.2173 -0.0629
  795loPI   C5A11029  15.776   2.684   7.276 -0.1680 -0.0979 -0.0835
  795loPI   C6A11030  15.441   2.474   7.529  0.0675 -0.4084 -0.3197
  795loPI   C1B11031  16.063   3.626   5.959  0.1811 -0.2920  0.2075
  795loPI   C2B11032  15.897   3.614   6.430  0.3226  0.3779  0.1050
  795loPI   C3B11033  15.867   3.761   6.962  0.1835  0.1145  0.0356
  795loPI   C4B11034  15.786   3.915   7.388 -0.1477 -0.0139 -0.3767
  796loPI    C111035  15.821  16.805   5.347 -0.0591  0.0087  0.2588
  796loPI    C211036  16.062  17.123   5.371  0.1757 -0.1399 -0.0552
  796loPI    C311037  16.029  16.922   5.026 -0.2746 -0.2223  0.0293
  796loPI   PO411038  15.710  16.822   5.610 -0.2703  0.0841 -0.0039
  796loPI   GL111039  15.807  16.832   5.910 -0.0444  0.3548  0.1196
  796loPI   GL211040  16.188  16.819   5.839 -0.1906  0.2348 -0.2199
  796loPI   C1A11041  15.840  17.076   6.313  0.0427  0.0916 -0.2085
  796loPI   C2A11042  15.656  17.060   6.676 -0.1598 -0.0418  0.3127
  796loPI   C3A11043  15.466  17.105   7.145 -0.3640 -0.0132  0.2179
  796loPI   C4A11044  15.332  17.405   7.443  0.1741 -0.1028  0.1454
  796loPI   C5A11045  15.368  17.486   7.968  0.3590 -0.3036 -0.1070
  796loPI   C6A11046  15.491  17.587   8.437 -0.0082 -0.1450  0.2109
  796loPI   C1B11047  16.431  17.092   6.168 -0.1801  0.1018  0.3481
  796loPI   C2B11048  16.600  17.094   6.526  0.0969 -0.3483  0.1308
  796loPI   C3B11049  16.611  17.163   6.929 -0.2181 -0.1664 -0.0429
  796loPI   C4B11050  16.580  17.211   7.456 -0.0744 -0.1473 -0.3256
  797loPI    C111051  16.151  13.663   5.142 -0.0574 -0.1530 -0.0232
  797loPI    C211052  16.000  13.324   4.994  0.1238 -0.1762 -0.1582
  797loPI    C311053  15.756  13.625   5.092 -0.0238 -0.2801 -0.2028
  797loPI   PO411054  16.405  13.608   5.215 -0.0630  0.1795  0.1887
  797loPI   GL111055  16.712  13.747   5.579 -0.0394 -0.1318 -0.3626
  797loPI   GL211056  17.128  13.676   5.777  0.4957  0.1503  0.2607
  797loPI   C1A11057  16.679  13.406   5.908 -0.1929  0.3250  0.1304
  797loPI   C2A11058  16.509  13.319   6.345  0.0703  0.0807 -0.1500
  797loPI   C3A11059  16.510  13.465   6.792 -0.1734  0.0705  0.0189
  797loPI   C4A11060  16.668  13.337   7.190  0.3542  0.4005 -0.0629
  797loPI   C5A11061  16.793  13.205   7.553  0.0050 -0.1854  0.1236
  797loPI   C6A11062  16.990  13.032   7.940  0.1353  0.0487 -0.0097
  797loPI   C1B11063  17.046  13.689   6.147 -0.2507  0.0508  0.0645
  797loPI   C2B11064  16.876  13.798   6.599 -0.0514 -0.0662 -0.0730
  797loPI   C3B11065  16.839  13.840   6.936  0.2547 -0.4140  0.1139
  797loPI   C4B11066  16.915  13.701   7.385  0.2439  0.0795  0.0285
  798loPI    C111067   5.208   8.114   5.672  0.0844 -0.0416 -0.0024
  798loPI    C211068   4.866   8.097   5.465  0.0043  0.0462  0.1216
  798loPI    C311069   5.167   7.850   5.374 -0.1037 -0.0542  0.0332
  798loPI   PO411070   5.094   8.071   6.005 -0.2201 -0.0298  0.5501
  798loPI   GL111071   4.913   8.315   6.412  0.2739  0.1243 -0.2382
  798loPI   GL211072   5.224   8.259   6.467  0.1008 -0.0864 -0.1522
  798loPI   C1A11073   4.757   8.114   6.771 -0.0212  0.1440 -0.1162
  798loPI   C2A11074   4.681   7.947   7.168  0.0414  0.1860  0.3001
  798loPI   C3A11075   4.569   7.852   7.590  0.2258  0.3552  0.1453
  798loPI   C4A11076   4.823   7.733   8.091 -0.2161 -0.1343  0.2036
  798loPI   C5A11077   4.944   7.397   8.367 -0.0730 -0.2849  0.1051
  798loPI   C6A11078   4.882   7.042   8.432 -0.2833 -0.0423  0.1544
  798loPI   C1B11079   5.152   8.425   6.893  0.2337 -0.1280  0.0829
  798loPI   C2B11080   5.111   8.286   7.298  0.1113 -0.3451  0.1384
  798loPI   C3B11081   5.085   7.882   7.418  0.1935  0.2759  0.1282
  798loPI   C4B11082   5.369   7.732   7.915  0.3889 -0.1041 -0.2324
  799loPI    C111083  12.392  16.386   5.644  0.1238 -0.0591  0.0502
  799loPI    C211084  12.766  16.253   5.600  0.0460 -0.2582 -0.0170
  799loPI    C311085  12.572  16.411   5.288  0.1063 -0.0680  0.0408
  799loPI   PO411086  12.248  16.211   5.819  0.1117  0.0281 -0.2826
  799loPI   GL111087  12.042  16.185   6.292 -0.0979  0.5166 -0.0000
  799loPI   GL211088  11.965  15.850   6.314  0.1603  0.3055 -0.0969
  799loPI   C1A11089  12.128  16.332   6.575 -0.2285  0.1923  0.3032
  799loPI   C2A11090  12.036  16.345   6.953  0.0015  0.2434  0.0574
  799loPI   C3A11091  12.212  16.256   7.400 -0.3446  0.1108  0.0975
  799loPI   C4A11092  12.431  16.281   7.810 -0.0354  0.2074  0.0936
  799loPI   C5A11093  12.516  16.646   8.037 -0.0566 -0.4013 -0.2835
  799loPI   C6A11094  12.723  16.976   8.017 -0.0029  0.0891  0.1904
  799loPI   C1B11095  12.032  15.872   6.734 -0.0796 -0.3669 -0.2506
  799loPI   C2B11096  12.102  15.858   7.129  0.0039  0.0856  0.0281
  799loPI   C3B11097  12.283  15.761   7.482  0.3961  0.0350  0.0414
  799loPI   C4B11098  12.223  15.791   7.953  0.1829 -0.2314 -0.2016
  800loPI    C111099  10.638   2.156   5.282  0.0124 -0.0350  0.0468
  800loPI    C211100  10.760   2.448   5.038 -0.0170 -0.1774 -0.1399
  800loPI    C311101  10.904   2.077   4.994 -0.1080 -0.2282 -0.0134
  800loPI   PO411102  10.413   2.374   5.416 -0.0166  0.0597  0.0637
  800loPI   GL111103  10.513   2.571   5.760  0.3936 -0.2231  0.0570
  800loPI   GL211104  10.245   2.536   5.923 -0.1179  0.0408 -0.1731
  800loPI   C1A11105  10.747   2.609   6.174  0.0239 -0.1541 -0.1600
  800loPI   C2A11106  10.738   2.380   6.604 -0.1713  0.1950 -0.1248
  800loPI   C3A11107  10.853   2.410   7.133  0.1273 -0.0880  0.0265
  800loPI   C4A11108  11.106   2.191   7.436 -0.0429  0.0473  0.1942
  800loPI   C5A11109  11.435   1.826   7.544  0.3144  0.0506  0.0626
  800loPI   C6A11110  11.855   1.789   7.490 -0.1469  0.2423  0.1283
  800loPI   C1B11111  10.268   2.362   6.264  0.2922 -0.1626  0.3503
  800loPI   C2B11112  10.217   2.261   6.611  0.2115 -0.0824  0.1161
  800loPI   C3B11113  10.224   2.309   7.051 -0.1711  0.0150  0.3449
  800loPI   C4B11114  10.172   2.269   7.437  0.0461 -0.3239  0.0736
  801loPI    C111115  12.294  16.822   5.293 -0.2073  0.1403 -0.0753
  801loPI    C211116  12.668  16.930   5.201 -0.0356 -0.2619  0.1284
  801loPI    C311117  12.432  16.768   4.922 -0.0477 -0.0420  0.0090
  801loPI   PO411118  12.265  16.904   5.572  0.1073  0.0370 -0.0374
  801loPI   GL111119  12.305  16.901   5.966  0.3706  0.0096 -0.3358
  801loPI   GL211120  12.485  17.208   5.912 -0.0207  0.0739 -0.0148
  801loPI   C1A11121  12.167  16.845   6.346  0.0743  0.1085 -0.0654
  801loPI   C2A11122  12.098  16.830   6.716 -0.0366  0.2290  0.1545
  801loPI   C3A11123  12.213  16.913   7.082 -0.0077  0.1041  0.0129
  801loPI   C4A11124  12.018  16.724   7.422 -0.1401 -0.1117  0.0893
  801loPI   C5A11125  12.055  16.796   7.902 -0.1040 -0.1849 -0.1867
  801loPI   C6A11126  11.661  16.773   8.083  0.1064  0.1048  0.0020
  801loPI   C1B11127  12.597  17.212   6.317 -0.1234 -0.3036 -0.1975
  801loPI   C2B11128  12.460  17.213   6.737  0.1792 -0.2252 -0.0514
  801loPI   C3B11129  12.595  17.224   7.111  0.2394  0.0507  0.2060
  801loPI   C4B11130  12.346  17.204   7.514  0.0352 -0.0227 -0.2879
  802loPI    C111131   6.791   0.869   5.547  0.3460 -0.1386  0.3499
  802loPI    C211132   7.080   0.629   5.410  0.3149  0.0940 -0.1424
  802loPI    C311133   6.723   0.635   5.230  0.0709 -0.0228  0.3206
  802loPI   PO411134   6.831   0.808   5.894  0.1707 -0.0177  0.3716
  802loPI   GL111135   6.973   0.572   6.198 -0.1160  0.3952 -0.1730
  802loPI   GL211136   6.681   0.455   6.215  0.0107  0.0813  0.0875
  802loPI   C1A11137   6.927   0.760   6.579  0.1275  0.0947 -0.1900
  802loPI   C2A11138   6.990   1.099   6.806 -0.0387 -0.0485 -0.1886
  802loPI   C3A11139   6.968   1.194   7.237  0.1561 -0.0179  0.1176
  802loPI   C4A11140   6.711   1.271   7.601 -0.0715 -0.1088  0.2336
  802loPI   C5A11141   6.399   1.168   7.879 -0.2105  0.0465  0.1179
  802loPI   C6A11142   6.405   1.014   8.250  0.3416 -0.0386  0.2665
  802loPI   C1B11143   6.894   0.213   6.687  0.0930 -0.1768 -0.0144
  802loPI   C2B11144   6.866   0.115   7.086 -0.0810  0.2282  0.2016
  802loPI   C3B11145   7.006   0.137   7.461  0.0717 -0.1304 -0.1150
  802loPI   C4B11146   7.085   0.085   7.812  0.0232  0.0789  0.2181
  803loPI    C111147   2.838   1.524   5.855 -0.1624 -0.1208 -0.0696
  803loPI    C211148   2.795   1.604   5.465 -0.0236  0.1729 -0.0271
  803loPI    C311149   2.554   1.778   5.732 -0.1948 -0.1174  0.0121
  803loPI   PO411150   2.813   1.269   5.868 -0.0220  0.0392  0.0693
  803loPI   GL111151   2.893   1.073   6.179 -0.4957  0.0055 -0.3634
  803loPI   GL211152   2.966   0.801   5.983  0.1007 -0.0206 -0.1696
  803loPI   C1A11153   2.967   1.382   6.597  0.1701  0.1299  0.2420
  803loPI   C2A11154   2.930   1.485   7.076 -0.1215 -0.0185  0.0198
  803loPI   C3A11155   2.821   1.509   7.431  0.0377  0.1041 -0.1409
  803loPI   C4A11156   2.586   1.466   7.634  0.2479 -0.0199  0.1795
  803loPI   C5A11157   2.181   1.525   7.892  0.1432  0.3097  0.1184
  803loPI   C6A11158   1.681   1.531   8.037  0.2262 -0.2550 -0.0621
  803loPI   C1B11159   2.894   0.468   6.306  0.0573  0.1957  0.2557
  803loPI   C2B11160   2.930   0.251   6.641  0.1301 -0.0841  0.0773
  803loPI   C3B11161   2.753   0.206   6.981  0.0516  0.0471  0.0086
  803loPI   C4B11162   2.693   0.111   7.448  0.3629 -0.1184  0.2295
  804loPI    C111163  14.166   6.190   5.542 -0.0016 -0.0957 -0.1949
  804loPI    C211164  14.075   6.561   5.422 -0.0548 -0.1178 -0.2234
  804loPI    C311165  13.786   6.289   5.467 -0.0544 -0.0691  0.0968
  804loPI   PO411166  14.347   6.118   5.803 -0.1419 -0.0153 -0.1910
  804loPI   GL111167  14.415   5.809   6.134 -0.0420 -0.1083  0.3305
  804loPI   GL211168  14.643   5.749   6.306  0.1415 -0.1726 -0.3155
  804loPI   C1A11169  14.235   5.974   6.537  0.2005 -0.1084  0.0952
  804loPI   C2A11170  13.931   6.246   6.765  0.0514  0.1391 -0.0491
  804loPI   C3A11171  13.661   6.423   7.141  0.1469  0.0420 -0.0603
  804loPI   C4A11172  13.577   6.202   7.520  0.2747  0.1393 -0.1325
  804loPI   C5A11173  13.520   6.353   7.800  0.2055 -0.3560 -0.3146
  804loPI   C6A11174  13.685   6.542   8.162  0.3126 -0.1378 -0.0708
  804loPI   C1B11175  14.792   5.745   6.741 -0.6067 -0.1380 -0.0992
  804loPI   C2B11176  14.908   5.785   7.218  0.4019  0.0573  0.2696
  804loPI   C3B11177  14.841   5.674   7.645  0.0349 -0.3342 -0.2302
  804loPI   C4B11178  14.491   5.652   7.911 -0.0664  0.0299  0.0640
  805loPI    C111179   8.503   1.394   5.356 -0.0379  0.1040  0.0732
  805loPI    C211180   8.657   1.736   5.219 -0.1224  0.1744  0.1515
  805loPI    C311181   8.271   1.652   5.157 -0.0165 -0.0816 -0.1975
  805loPI   PO411182   8.583   1.379   5.602  0.3784 -0.1271 -0.2178
  805loPI   GL111183   8.641   1.051   5.974 -0.1274  0.0645  0.0219
  805loPI   GL211184   8.288   1.160   6.080  0.1052 -0.1508  0.0816
  805loPI   C1A11185   8.713   1.407   6.261  0.0603  0.2175 -0.0834
  805loPI   C2A11186   8.635   1.566   6.654 -0.3584 -0.0061 -0.1912
  805loPI   C3A11187   8.516   1.586   7.095 -0.0569  0.1511  0.0401
  805loPI   C4A11188   8.587   1.694   7.539  0.1972  0.0736 -0.1419
  805loPI   C5A11189   8.547   1.710   7.985  0.0579  0.0326 -0.1831
  805loPI   C6A11190   8.812   1.400   8.234 -0.0047  0.0697  0.3574
  805loPI   C1B11191   8.349   1.189   6.533 -0.3891  0.1677 -0.0777
  805loPI   C2B11192   8.400   1.129   6.923  0.3752 -0.1642 -0.2958
  805loPI   C3B11193   8.332   1.027   7.378  0.0690 -0.2847 -0.0712
  805loPI   C4B11194   8.217   0.758   7.708 -0.0875 -0.0505 -0.0366
  806loPI    C111195  13.312   4.322   5.329  0.2087 -0.0955  0.1542
  806loPI    C211196  13.210   3.994   5.123  0.2009  0.0321 -0.0477
  806loPI    C311197  12.983   4.323   5.101  0.2499  0.0762  0.0946
  806loPI   PO411198  13.362   4.365   5.601 -0.3217  0.0739 -0.0012
  806loPI   GL111199  13.521   4.186   5.993 -0.0775  0.1017 -0.1015
  806loPI   GL211200  13.270   3.904   5.904 -0.2196 -0.0516  0.1686
  806loPI   C1A11201  13.387   4.301   6.425  0.2929  0.1848  0.1403
  806loPI   C2A11202  13.191   4.267   6.749  0.0502  0.2417 -0.1537
  806loPI   C3A11203  13.220   4.133   7.176  0.0697  0.0148 -0.0510
  806loPI   C4A11204  13.266   4.000   7.636  0.3406  0.1530  0.0988
  806loPI   C5A11205  13.315   3.639   7.877  0.1588 -0.1622 -0.4489
  806loPI   C6A11206  13.369   3.693   8.258 -0.2646  0.0932 -0.0853
  806loPI   C1B11207  13.171   3.885   6.364 -0.0611 -0.1515  0.2220
  806loPI   C2B11208  13.067   3.765   6.762 -0.1215  0.1337 -0.3147
  806loPI   C3B11209  13.071   3.664   7.139  0.0520 -0.3891 -0.2034
  806loPI   C4B11210  13.104   3.507   7.482  0.2397 -0.0975  0.0828
  807loPI    C111211   5.660   8.362   5.943 -0.1034  0.1512  0.0642
  807loPI    C211212   5.519   8.598   5.652 -0.0258 -0.0227 -0.1165
  807loPI    C311213   5.727   8.269   5.560  0.0617 -0.0409  0.1380
  807loPI   PO411214   5.696   8.516   6.193  0.2078  0.1697  0.2209
  807loPI   GL111215   5.485   8.738   6.445  0.1607  0.0984 -0.2812
  807loPI   GL211216   5.634   8.635   6.703 -0.2247  0.1433  0.2360
  807loPI   C1A11217   5.220   8.912   6.742  0.1504 -0.2058  0.0595
  807loPI   C2A11218   5.058   8.917   7.196  0.2234  0.2155 -0.0577
  807loPI   C3A11219   4.863   9.003   7.443  0.3571 -0.0524 -0.2108
  807loPI   C4A11220   4.798   8.659   7.867  0.0256 -0.2032  0.2205
  807loPI   C5A11221   5.035   8.460   8.146 -0.1295  0.0009  0.1289
  807loPI   C6A11222   5.259   8.276   8.377 -0.1702 -0.0051  0.0419
  807loPI   C1B11223   5.537   8.731   7.120  0.1611 -0.3018  0.0111
  807loPI   C2B11224   5.425   8.838   7.508  0.2459 -0.3606  0.4286
  807loPI   C3B11225   5.356   8.549   7.741  0.2217  0.0417 -0.1017
  807loPI   C4B11226   5.266   8.161   7.772  0.0728 -0.2523  0.0554
  808loPI    C111227   6.636   2.839   5.823  0.0453  0.0392 -0.1270
  808loPI    C211228   6.655   2.888   5.427 -0.0592  0.1779 -0.1158
  808loPI    C311229   6.387   2.636   5.585 -0.1635  0.2844 -0.1218
  808loPI   PO411230   6.923   2.818   5.889 -0.1622 -0.2077 -0.1913
  808loPI   GL111231   7.206   2.692   6.324  0.0615 -0.0361  0.0699
  808loPI   GL211232   7.452   2.512   6.497 -0.2356 -0.1173 -0.0164
  808loPI   C1A11233   7.062   2.906   6.636  0.0383  0.0495 -0.1130
  808loPI   C2A11234   7.119   2.847   7.106 -0.0564 -0.2800  0.1130
  808loPI   C3A11235   7.073   2.810   7.540 -0.0612  0.2020 -0.0599
  808loPI   C4A11236   6.969   2.864   7.929 -0.3813  0.3374 -0.0005
  808loPI   C5A11237   7.193   2.708   8.292  0.0195  0.0725 -0.0509
  808loPI   C6A11238   7.428   2.674   8.655  0.1984 -0.1282 -0.2318
  808loPI   C1B11239   7.500   2.467   6.979 -0.0772  0.2255  0.0928
  808loPI   C2B11240   7.430   2.525   7.387 -0.1131 -0.3853 -0.0151
  808loPI   C3B11241   7.329   2.460   7.801 -0.1204 -0.1797  0.0598
  808loPI   C4B11242   7.103   2.218   8.186  0.2629  0.0632  0.0263
  809loPI    C111243   1.715  10.528   5.408 -0.0067 -0.0652  0.0397
  809loPI    C211244   1.600  10.204   5.203  0.0246 -0.1739  0.1920
  809loPI    C311245   1.935  10.397   5.100  0.0880 -0.2808  0.1969
  809loPI   PO411246   1.705  10.467   5.665  0.0571  0.2985  0.0377
  809loPI   GL111247   1.879  10.490   6.086  0.0017  0.0763  0.3001
  809loPI   GL211248   1.533  10.649   6.158 -0.2368  0.1803  0.0264
  809loPI   C1A11249   1.878  10.447   6.524 -0.0448  0.0543 -0.2894
  809loPI   C2A11250   1.816  10.473   6.942 -0.0647 -0.0329  0.1400
  809loPI   C3A11251   1.657  10.667   7.301  0.2685  0.0453 -0.1635
  809loPI   C4A11252   1.676  10.885   7.657  0.0743 -0.1155 -0.3348
  809loPI   C5A11253   1.715  11.275   7.968  0.3916  0.0583  0.0402
  809loPI   C6A11254   1.955  11.587   7.974 -0.1376  0.0843 -0.0357
  809loPI   C1B11255   1.352  10.558   6.646 -0.0522  0.0266  0.1562
  809loPI   C2B11256   1.192  10.593   7.098 -0.2095 -0.1618  0.1086
  809loPI   C3B11257   0.936  10.773   7.338  0.2576  0.0318  0.1054
  809loPI   C4B11258   0.886  11.057   7.696  0.0911  0.0730 -0.1151
  810loPI    C111259   9.884  11.639   6.009 -0.0962  0.2206  0.0876
  810loPI    C211260  10.238  11.821   5.965  0.0501 -0.0429  0.1548
  810loPI    C311261   9.948  11.881   5.696  0.1605  0.1387  0.0743
  810loPI   PO411262  10.019  11.401   6.142  0.1332 -0.1163 -0.2319
  810loPI   GL111263  10.044  11.157   6.419  0.1421 -0.0821 -0.1500
  810loPI   GL211264   9.997  10.874   6.368  0.2302 -0.0008  0.0876
  810loPI   C1A11265   9.748  11.209   6.779  0.0961 -0.0395 -0.1075
  810loPI   C2A11266   9.814  11.133   7.226  0.2206 -0.0935 -0.1225
  810loPI   C3A11267   9.977  10.925   7.552  0.0042 -0.1508  0.2077
  810loPI   C4A11268  10.027  10.621   7.979  0.0418 -0.1723 -0.0471
  810loPI   C5A11269   9.788  10.697   8.368  0.2129  0.0547  0.0011
  810loPI   C6A11270   9.957  10.632   8.661  0.1201 -0.0744  0.0151
  810loPI   C1B11271  10.128  10.752   6.773 -0.0933 -0.2031  0.0537
  810loPI   C2B11272  10.246  10.556   7.243  0.2389 -0.1131 -0.0198
  810loPI   C3B11273  10.378  10.673   7.642  0.0246  0.3634  0.1178
  810loPI   C4B11274  10.519  10.666   7.980 -0.3773 -0.5169 -0.4021
  811loPI    C111275   5.545   3.700   5.867  0.0609 -0.0930  0.0629
  811loPI    C211276   5.493   4.090   5.796  0.2306 -0.1094 -0.1623
  811loPI    C311277   5.176   3.851   5.841  0.1255  0.0864  0.1708
  811loPI   PO411278   5.823   3.796   6.053 -0.2459 -0.0938  0.0910
  811loPI   GL111279   5.978   3.751   6.533 -0.0700 -0.0833 -0.3057
  811loPI   GL211280   5.994   3.479   6.574 -0.2827 -0.0741 -0.2191
  811loPI   C1A11281   6.006   3.839   7.040 -0.2343 -0.0426 -0.1869
  811loPI   C2A11282   5.995   3.734   7.392  0.0692 -0.5427 -0.0704
  811loPI   C3A11283   5.972   3.887   7.852 -0.3891 -0.1523 -0.2538
  811loPI   C4A11284   5.689   4.012   8.190 -0.2917  0.0071 -0.2734
  811loPI   C5A11285   5.311   4.072   8.239  0.1537 -0.1531 -0.1257
  811loPI   C6A11286   5.143   4.412   8.470 -0.2384  0.3551  0.0575
  811loPI   C1B11287   6.350   3.512   6.775 -0.1991  0.0984  0.0950
  811loPI   C2B11288   6.404   3.495   7.149  0.2372 -0.0707 -0.1342
  811loPI   C3B11289   6.417   3.429   7.535 -0.3476  0.2821 -0.3314
  811loPI   C4B11290   6.340   3.457   8.026 -0.3070 -0.2714 -0.0082
  812loPI    C111291   2.729  14.766   5.511  0.4820 -0.0457 -0.0667
  812loPI    C211292   2.587  14.521   5.229  0.2227 -0.0698  0.0814
  812loPI    C311293   2.831  14.821   5.128  0.3534 -0.2438 -0.1311
  812loPI   PO411294   2.646  14.603   5.733  0.1185 -0.3966  0.0778
  812loPI   GL111295   2.342  14.656   5.971 -0.0034 -0.0774  0.2739
  812loPI   GL211296   2.232  14.311   5.910  0.3104  0.2219 -0.1407
  812loPI   C1A11297   2.481  14.496   6.403 -0.0036  0.0018  0.1625
  812loPI   C2A11298   2.576  14.537   6.865  0.0928  0.1430  0.1054
  812loPI   C3A11299   2.607  14.412   7.325 -0.0097 -0.0070 -0.1466
  812loPI   C4A11300   2.484  14.447   7.744 -0.2375  0.1251  0.0139
  812loPI   C5A11301   2.708  14.598   8.120 -0.0747  0.2562 -0.0367
  812loPI   C6A11302   2.797  14.553   8.560  0.0949  0.1098  0.1760
  812loPI   C1B11303   2.022  14.355   6.308 -0.1086  0.0898 -0.0619
  812loPI   C2B11304   1.917  14.650   6.622  0.1253  0.1690 -0.0175
  812loPI   C3B11305   1.841  15.025   6.926  0.0323  0.2066 -0.3057
  812loPI   C4B11306   1.841  14.897   7.338  0.0216  0.0046  0.1304
  813loPI    C111307   7.421  15.540   5.591 -0.0523  0.0725  0.0670
  813loPI    C211308   7.213  15.689   5.283  0.0923 -0.1369 -0.1356
  813loPI    C311309   7.198  15.297   5.364  0.0254 -0.0776  0.1496
  813loPI   PO411310   7.657  15.792   5.589 -0.0245  0.0148 -0.1923
  813loPI   GL111311   7.710  16.101   5.851  0.0867 -0.3610 -0.1037
  813loPI   GL211312   7.775  16.453   5.975  0.2526 -0.0767 -0.0864
  813loPI   C1A11313   7.847  16.171   6.392  0.1630  0.0764  0.2627
  813loPI   C2A11314   7.763  16.056   6.788  0.2476 -0.1062 -0.1172
  813loPI   C3A11315   7.791  16.047   7.205 -0.1607  0.1474 -0.0436
  813loPI   C4A11316   8.029  16.170   7.513  0.1740 -0.0449  0.0261
  813loPI   C5A11317   8.215  16.260   7.896  0.3758 -0.0177  0.1684
  813loPI   C6A11318   8.616  16.507   8.039 -0.1432  0.1338  0.0128
  813loPI   C1B11319   7.364  16.552   6.193 -0.1365  0.0463  0.1129
  813loPI   C2B11320   7.159  16.700   6.646 -0.2126 -0.0001  0.0228
  813loPI   C3B11321   7.272  16.820   7.073 -0.2100  0.1115 -0.1308
  813loPI   C4B11322   7.343  16.829   7.513  0.3916 -0.2218  0.0219
  814loPI    C111323  17.780  15.104   5.200  0.1064  0.2696  0.1969
  814loPI    C211324  18.019  14.822   5.048  0.2677  0.4559  0.1008
  814loPI    C311325  17.628  14.816   4.968  0.2553  0.2096  0.1726
  814loPI   PO411326  18.005  15.153   5.421 -0.1511  0.1424  0.1976
  814loPI   GL111327  17.886  15.191   5.827  0.0211 -0.0408 -0.0478
  814loPI   GL211328  17.738  15.554   5.964  0.3154 -0.1539 -0.3014
  814loPI   C1A11329  17.785  14.972   6.218  0.0456  0.2309  0.0063
  814loPI   C2A11330  17.886  14.944   6.618  0.2147 -0.0242 -0.0948
  814loPI   C3A11331  17.998  14.901   7.079 -0.0908  0.4268 -0.3012
  814loPI   C4A11332  18.069  15.134   7.425  0.1296  0.0109 -0.1120
  814loPI   C5A11333  18.167  15.450   7.588 -0.1440 -0.0265  0.1871
  814loPI   C6A11334  18.035  15.534   7.959  0.0906  0.0568  0.2007
  814loPI   C1B11335  17.800  15.479   6.387  0.1503  0.2314 -0.0505
  814loPI   C2B11336  17.912  15.565   6.769 -0.5117 -0.2454  0.2533
  814loPI   C3B11337  17.851  15.732   7.166 -0.0908  0.3365  0.1775
  814loPI   C4B11338  18.104  15.997   7.365 -0.4489  0.0146 -0.0507
  815loPI    C111339  17.658   4.966   5.656 -0.0047 -0.0312 -0.0484
  815loPI    C211340  17.980   4.731   5.682  0.0949  0.1178  0.0819
  815loPI    C311341  17.626   4.574   5.585  0.1073 -0.1318  0.4248
  815loPI   PO411342  17.748   5.171   5.852 -0.2350  0.0314  0.0038
  815loPI   GL111343  17.474   5.503   6.180 -0.1766  0.2920  0.0894
  815loPI   GL211344  17.681   5.433   6.370 -0.0488  0.3923  0.0291
  815loPI   C1A11345  17.168   5.667   6.503  0.3404 -0.0038 -0.0808
  815loPI   C2A11346  17.217   5.707   6.943 -0.4068 -0.0723 -0.5227
  815loPI   C3A11347  17.294   5.962   7.303  0.0816 -0.1769 -0.1493
  815loPI   C4A11348  17.153   6.057   7.652 -0.1275  0.1458 -0.0140
  815loPI   C5A11349  16.835   5.980   7.985  0.2007 -0.0427 -0.2637
  815loPI   C6A11350  16.472   5.924   7.961  0.0350 -0.0105 -0.4608
  815loPI   C1B11351  17.543   5.311   6.794  0.2494  0.1590 -0.1472
  815loPI   C2B11352  17.414   5.170   7.231 -0.0794 -0.0869  0.1578
  815loPI   C3B11353  17.316   5.085   7.620 -0.2142 -0.2377  0.0657
  815loPI   C4B11354  17.422   4.850   7.953 -0.1753  0.3769 -0.0916
  816loPI    C111355  10.932   5.311   5.806  0.0882  0.0584 -0.0778
  816loPI    C211356  11.022   5.650   5.997  0.1798  0.0050 -0.0255
  816loPI    C311357  10.671   5.615   5.808 -0.0206 -0.0314  0.3436
  816loPI   PO411358  11.181   5.181   5.825  0.0908  0.2683 -0.2946
  816loPI   GL111359  11.299   5.156   6.272 -0.1038  0.0668  0.0827
  816loPI   GL211360  11.443   4.873   6.233  0.0546  0.3920  0.1477
  816loPI   C1A11361  11.178   5.135   6.780 -0.0727  0.3331 -0.2090
  816loPI   C2A11362  10.873   5.225   7.044  0.4033 -0.1218 -0.0473
  816loPI   C3A11363  10.859   5.235   7.533 -0.0210  0.0256 -0.0320
  816loPI   C4A11364  11.026   4.914   7.859 -0.2507  0.0543 -0.1014
  816loPI   C5A11365  11.034   4.546   8.071 -0.2852  0.0031  0.0583
  816loPI   C6A11366  11.413   4.487   8.389 -0.0250  0.1534  0.1017
  816loPI   C1B11367  11.414   4.750   6.664  0.2669  0.2073 -0.2101
  816loPI   C2B11368  11.467   4.608   7.137  0.0705  0.0055  0.0129
  816loPI   C3B11369  11.429   4.405   7.555  0.1190  0.1963  0.1695
  816loPI   C4B11370  11.553   4.078   7.931  0.0009  0.3289  0.1650
  817loPI    C111371   5.772   9.314   5.662  0.1235  0.1929 -0.0891
  817loPI    C211372   5.547   9.063   5.446 -0.0888  0.2020  0.1177
  817loPI    C311373   5.909   8.948   5.572 -0.1243  0.0540  0.0870
  817loPI   PO411374   5.696   9.456   5.833  0.2790  0.2320  0.4218
  817loPI   GL111375   5.805   9.511   6.297 -0.1076 -0.1354  0.0257
  817loPI   GL211376   5.892   9.181   6.445 -0.1171 -0.0996 -0.2348
  817loPI   C1A11377   6.084   9.541   6.800  0.1495 -0.3561 -0.2048
  817loPI   C2A11378   6.128   9.501   7.285 -0.2499  0.2459  0.1538
  817loPI   C3A11379   6.326   9.406   7.666  0.0529 -0.0559 -0.2383
  817loPI   C4A11380   6.416   9.556   8.127  0.0018 -0.2743 -0.0941
  817loPI   C5A11381   6.700   9.485   8.406  0.0271 -0.0702  0.0247
  817loPI   C6A11382   6.799   9.089   8.382  0.0517  0.2679 -0.2571
  817loPI   C1B11383   5.712   9.129   6.831  0.0674  0.2269 -0.1500
  817loPI   C2B11384   5.675   9.224   7.248 -0.2443 -0.3134  0.0457
  817loPI   C3B11385   5.388   9.305   7.462  0.0232 -0.2788 -0.0436
  817loPI   C4B11386   5.479   9.474   7.935  0.2109 -0.1589 -0.0222
  818loPI    C111387  17.115   3.002   5.585  0.1674 -0.0456  0.0004
  818loPI    C211388  17.105   2.938   5.191 -0.0294  0.0446 -0.0105
  818loPI    C311389  17.131   3.311   5.332 -0.0552  0.0188  0.0628
  818loPI   PO411390  16.908   2.821   5.643  0.1522 -0.2672  0.3944
  818loPI   GL111391  16.706   2.582   5.960 -0.0868 -0.2268 -0.2691
  818loPI   GL211392  16.580   2.308   5.911 -0.2286  0.0585 -0.1459
  818loPI   C1A11393  16.538   2.857   6.344 -0.4468  0.1414 -0.0388
  818loPI   C2A11394  16.348   3.021   6.776  0.4417 -0.2004  0.1763
  818loPI   C3A11395  16.301   3.026   7.237 -0.2198  0.1684 -0.1181
  818loPI   C4A11396  16.060   3.356   7.527 -0.1340  0.0422 -0.1129
  818loPI   C5A11397  15.684   3.564   7.732 -0.1840 -0.2832  0.1238
  818loPI   C6A11398  15.365   3.802   7.644  0.0650 -0.1007 -0.1240
  818loPI   C1B11399  16.477   2.362   6.327  0.0283  0.0896  0.0198
  818loPI   C2B11400  16.505   2.514   6.756 -0.1633  0.5811  0.3194
  818loPI   C3B11401  16.503   2.542   7.211 -0.0297  0.0997 -0.1819
  818loPI   C4B11402  16.961   2.363   7.515  0.0570  0.2260  0.0898
  819loPI    C111403   3.140   5.321   5.714 -0.0377 -0.3183 -0.2172
  819loPI    C211404   3.463   5.546   5.782 -0.3277  0.0563 -0.0437
  819loPI    C311405   3.504   5.155   5.709  0.1512  0.0687  0.1212
  819loPI   PO411406   3.006   5.355   5.872  0.0909 -0.1968  0.1640
  819loPI   GL111407   2.865   5.405   6.135 -0.2749  0.0817 -0.1060
  819loPI   GL211408   2.685   5.671   6.218 -0.0193 -0.0823  0.1161
  819loPI   C1A11409   2.831   5.369   6.602  0.3002  0.0482 -0.0190
  819loPI   C2A11410   2.892   5.245   7.046 -0.0121  0.0646  0.1499
  819loPI   C3A11411   2.742   5.233   7.529 -0.0773  0.1920  0.0216
  819loPI   C4A11412   2.839   5.424   7.846  0.2091 -0.0659 -0.1941
  819loPI   C5A11413   2.932   5.625   8.173  0.1545 -0.0034  0.1957
  819loPI   C6A11414   3.071   5.782   8.459  0.1668 -0.1131  0.0608
  819loPI   C1B11415   2.604   6.040   6.342  0.3339 -0.3322 -0.2491
  819loPI   C2B11416   2.747   6.495   6.619 -0.1369 -0.0318 -0.1348
  819loPI   C3B11417   2.757   6.570   7.100 -0.1563  0.0461  0.3373
  819loPI   C4B11418   2.725   6.525   7.461 -0.1200 -0.1191 -0.1221
  820loPI    C111419  18.034   1.444   5.264  0.0494 -0.0821 -0.1566
  820loPI    C211420  18.259   1.764   5.346  0.1223 -0.1575 -0.0590
  820loPI    C311421  18.125   1.704   4.974 -0.0973  0.1159 -0.0275
  820loPI   PO411422  18.002   1.345   5.535  0.2107 -0.4164  0.1318
  820loPI   GL111423  18.240   1.304   5.908  0.1359 -0.1671 -0.4515
  820loPI   GL211424  18.511   1.493   6.003  0.1003  0.0737  0.1790
  820loPI   C1A11425  18.277   1.207   6.347  0.1951  0.1322  0.1312
  820loPI   C2A11426  18.141   1.190   6.770 -0.0157  0.0584 -0.2343
  820loPI   C3A11427  17.998   1.298   7.128 -0.3284 -0.3717  0.0878
  820loPI   C4A11428  17.851   1.240   7.684  0.3289  0.0371  0.1486
  820loPI   C5A11429  17.675   1.385   8.169 -0.2258 -0.2253  0.4230
  820loPI   C6A11430  17.523   1.188   8.605 -0.2937  0.0145 -0.0311
  820loPI   C1B11431  18.348   1.738   6.403  0.1267 -0.1089  0.2890
  820loPI   C2B11432  18.219   1.705   6.823  0.1398  0.2243  0.2243
  820loPI   C3B11433  18.101   1.787   7.233 -0.3412  0.0628 -0.2550
  820loPI   C4B11434  18.184   1.646   7.573 -0.0576 -0.1441  0.2271
  821loPI    C111435   4.352   3.084   5.645 -0.0679 -0.0426 -0.1865
  821loPI    C211436   4.223   2.719   5.544  0.0554 -0.1102 -0.1028
  821loPI    C311437   4.339   2.976   5.260 -0.0300 -0.1361 -0.1617
  821loPI   PO411438   4.393   3.055   5.911 -0.3367  0.0373  0.3680
  821loPI   GL111439   4.524   3.177   6.257  0.1117 -0.1218 -0.0224
  821loPI   GL211440   4.453   3.458   6.407  0.2291 -0.1550 -0.0152
  821loPI   C1A11441   4.355   2.865   6.581 -0.0553  0.0549  0.1030
  821loPI   C2A11442   4.623   2.922   7.032  0.0286  0.1034 -0.0926
  821loPI   C3A11443   4.703   2.987   7.451 -0.3308  0.2758  0.1500
  821loPI   C4A11444   4.749   3.182   7.799  0.0649 -0.1727 -0.1901
  821loPI   C5A11445   4.961   3.354   8.134  0.3885  0.1875  0.1866
  821loPI   C6A11446   5.362   3.581   8.331 -0.0147 -0.1992 -0.2033
  821loPI   C1B11447   4.442   3.295   6.771 -0.0621  0.1845  0.2178
  821loPI   C2B11448   4.290   3.221   7.222 -0.2733  0.1892  0.0576
  821loPI   C3B11449   4.249   3.394   7.610 -0.1451 -0.2543  0.0327
  821loPI   C4B11450   4.141   3.191   7.980 -0.1322 -0.0516 -0.2849
  822loPI    C111451  11.392   7.521   5.847 -0.3890  0.1944  0.1194
  822loPI    C211452  11.536   7.602   5.483 -0.0160 -0.0778  0.1998
  822loPI    C311453  11.224   7.808   5.626  0.0864  0.3045 -0.1108
  822loPI   PO411454  11.643   7.354   5.961  0.0094  0.0071  0.3880
  822loPI   GL111455  11.751   7.226   6.354  0.5789 -0.3342  0.2985
  822loPI   GL211456  11.980   7.316   6.431 -0.0753  0.1416  0.0693
  822loPI   C1A11457  11.624   7.140   6.774 -0.3638  0.1306  0.1618
  822loPI   C2A11458  11.607   7.026   7.160 -0.1098 -0.1402 -0.1520
  822loPI   C3A11459  11.515   6.745   7.593 -0.4046 -0.1196  0.0103
  822loPI   C4A11460  11.813   6.672   7.952 -0.0960 -0.3327 -0.2421
  822loPI   C5A11461  11.850   6.750   8.353 -0.0053  0.1478 -0.1230
  822loPI   C6A11462  11.596   7.001   8.671  0.1678  0.3542  0.3027
  822loPI   C1B11463  12.120   7.191   6.848  0.0418  0.3049 -0.2975
  822loPI   C2B11464  11.976   7.311   7.284 -0.2241  0.1290 -0.1953
  822loPI   C3B11465  11.934   7.069   7.700  0.1019 -0.1543  0.1388
  822loPI   C4B11466  12.256   7.133   7.982  0.3632  0.2039  0.1315
  823loPI    C111467   2.533  12.987   5.402  0.0539  0.0724  0.1146
  823loPI    C211468   2.298  13.243   5.600  0.0015 -0.0193  0.1717
  823loPI    C311469   2.145  12.904   5.451  0.1046 -0.0967  0.2401
  823loPI   PO411470   2.707  12.954   5.598 -0.1287 -0.2871 -0.0164
  823loPI   GL111471   2.411  12.768   5.940 -0.2351  0.1006  0.4114
  823loPI   GL211472   2.021  12.838   5.925 -0.2677  0.3085 -0.4668
  823loPI   C1A11473   2.555  12.414   6.262  0.0664 -0.2615  0.1545
  823loPI   C2A11474   2.850  12.391   6.516 -0.0647 -0.0342 -0.1386
  823loPI   C3A11475   3.184  12.404   6.824 -0.0088  0.1658 -0.2230
  823loPI   C4A11476   3.564  12.525   7.092  0.1199 -0.1953 -0.3853
  823loPI   C5A11477   3.492  12.466   7.442 -0.0111  0.1969 -0.2045
  823loPI   C6A11478   3.450  12.770   7.755  0.3197 -0.1577 -0.2700
  823loPI   C1B11479   1.933  12.527   6.224 -0.3973  0.0980  0.0133
  823loPI   C2B11480   2.064  12.415   6.659  0.0710 -0.0247 -0.0033
  823loPI   C3B11481   2.019  12.266   7.116  0.0323  0.0992 -0.0975
  823loPI   C4B11482   1.713  12.277   7.450 -0.0609 -0.0722  0.0848
  824loPI    C111483   9.298  13.389   5.609  0.1789  0.2171 -0.0590
  824loPI    C211484   9.223  13.754   5.463 -0.1275  0.0987 -0.2073
  824loPI    C311485   9.102  13.429   5.263  0.1639 -0.0876 -0.0892
  824loPI   PO411486   9.277  13.401   5.816 -0.0454 -0.0387 -0.0801
  824loPI   GL111487   9.241  13.136   6.221  0.1890 -0.2194 -0.2268
  824loPI   GL211488   9.514  13.206   6.364 -0.0729 -0.3074 -0.2274
  824loPI   C1A11489   9.055  13.057   6.652 -0.3458 -0.0349 -0.0375
  824loPI   C2A11490   9.221  13.096   7.154 -0.0723  0.2339 -0.0013
  824loPI   C3A11491   9.327  13.288   7.518 -0.3381  0.1220  0.0540
  824loPI   C4A11492   9.567  13.365   7.847 -0.2305  0.2681 -0.3039
  824loPI   C5A11493   9.831  13.199   8.152 -0.1447  0.0955 -0.1991
  824loPI   C6A11494  10.218  13.114   8.101 -0.0783  0.2992  0.1412
  824loPI   C1B11495   9.533  13.415   6.794  0.2185 -0.0858  0.1017
  824loPI   C2B11496   9.490  13.631   7.090 -0.1198 -0.0143  0.0769
  824loPI   C3B11497   9.205  13.771   7.419 -0.1520  0.1528 -0.0462
  824loPI   C4B11498   8.978  14.108   7.566 -0.2362 -0.1903  0.0334
  825loPI    C111499  10.812  14.439   5.631  0.0420 -0.1091  0.3735
  825loPI    C211500  10.498  14.198   5.569  0.1273 -0.1111 -0.0874
  825loPI    C311501  10.870  14.050   5.556  0.1723  0.0083 -0.1800
  825loPI   PO411502  10.700  14.607   5.912 -0.0859  0.1511 -0.0463
  825loPI   GL111503  10.764  14.591   6.366 -0.0659 -0.0002  0.2746
  825loPI   GL211504  11.068  14.663   6.553  0.2088 -0.1114  0.2608
  825loPI   C1A11505  10.602  14.487   6.768 -0.2002 -0.2017 -0.1237
  825loPI   C2A11506  10.591  14.542   7.144 -0.1824 -0.0195  0.0110
  825loPI   C3A11507  10.477  14.184   7.572  0.2602 -0.0115  0.1472
  825loPI   C4A11508  10.200  13.868   7.569 -0.2246 -0.2002 -0.2536
  825loPI   C5A11509   9.939  13.752   8.062  0.2109  0.0178 -0.0849
  825loPI   C6A11510   9.728  13.865   8.454  0.1045 -0.2413 -0.1510
  825loPI   C1B11511  11.066  14.693   6.940  0.0363  0.1286  0.2210
  825loPI   C2B11512  11.002  14.703   7.354  0.1730  0.1327 -0.0719
  825loPI   C3B11513  10.832  14.516   7.557  0.0605 -0.0181 -0.0109
  825loPI   C4B11514  10.834  14.297   8.067 -0.0553  0.1203 -0.1578
  826loPI    C111515   4.974   2.427   5.477  0.1333 -0.0677  0.3659
  826loPI    C211516   4.728   2.737   5.537  0.3022  0.1277  0.0751
  826loPI    C311517   4.582   2.389   5.406  0.1679  0.2141 -0.0064
  826loPI   PO411518   5.099   2.461   5.695 -0.0710  0.0136 -0.0031
  826loPI   GL111519   5.230   2.618   6.104  0.0871 -0.0373 -0.2686
  826loPI   GL211520   5.310   2.942   6.334  0.1295 -0.2019 -0.0684
  826loPI   C1A11521   5.188   2.456   6.395 -0.2036 -0.1114 -0.0649
  826loPI   C2A11522   5.017   2.291   6.909 -0.3062 -0.0863  0.0693
  826loPI   C3A11523   4.933   2.055   7.234 -0.1040  0.2438  0.2059
  826loPI   C4A11524   5.061   1.830   7.591  0.1798 -0.5630  0.1097
  826loPI   C5A11525   5.262   1.660   7.832 -0.0872 -0.1849  0.1551
  826loPI   C6A11526   5.081   1.298   8.126 -0.0599 -0.0819 -0.1208
  826loPI   C1B11527   5.269   2.833   6.720 -0.0662 -0.2676  0.0630
  826loPI   C2B11528   5.185   2.776   7.174  0.0876 -0.2308 -0.2507
  826loPI   C3B11529   5.102   2.600   7.546 -0.0789 -0.0254 -0.0036
  826loPI   C4B11530   5.075   2.315   7.881  0.0378  0.0843 -0.0922
  827loPI    C111531   5.002  12.109   5.377 -0.2035 -0.0932  0.0711
  827loPI    C211532   5.246  11.923   5.121 -0.1356 -0.0660  0.1159
  827loPI    C311533   5.033  12.238   4.999  0.1889  0.1893  0.1933
  827loPI   PO411534   4.817  11.971   5.462 -0.1137 -0.3441 -0.0818
  827loPI   GL111535   4.823  11.764   5.865  0.1486  0.1749  0.1687
  827loPI   GL211536   5.061  11.709   6.008  0.1255  0.0295  0.2140
  827loPI   C1A11537   4.561  12.114   6.090 -0.2347 -0.1012 -0.0719
  827loPI   C2A11538   4.596  12.424   6.438  0.3547  0.0326  0.0509
  827loPI   C3A11539   4.559  12.393   6.825  0.1355 -0.0204  0.2086
  827loPI   C4A11540   4.478  12.475   7.224  0.0207  0.5131 -0.0619
  827loPI   C5A11541   4.373  12.456   7.820 -0.2278  0.1006  0.3018
  827loPI   C6A11542   4.682  12.658   7.978  0.2954 -0.1686 -0.0925
  827loPI   C1B11543   4.863  11.632   6.402  0.0500  0.0481 -0.2987
  827loPI   C2B11544   4.843  11.634   6.817 -0.0102  0.3057  0.3433
  827loPI   C3B11545   4.920  11.597   7.236 -0.0558 -0.0423 -0.1031
  827loPI   C4B11546   4.832  11.648   7.566  0.1804  0.3200  0.1208
  828loPI    C111547   6.936  10.023   6.096 -0.2397 -0.2903 -0.1590
  828loPI    C211548   7.152   9.858   5.802  0.0304 -0.0800 -0.0831
  828loPI    C311549   7.006  10.229   5.760  0.0908 -0.0400  0.0568
  828loPI   PO411550   7.039  10.061   6.284 -0.0370  0.4292 -0.2761
  828loPI   GL111551   7.316  10.148   6.605 -0.1403  0.0067 -0.1150
  828loPI   GL211552   7.627  10.116   6.531  0.2523 -0.1875  0.3618
  828loPI   C1A11553   7.400  10.297   6.943 -0.2312 -0.0492  0.1202
  828loPI   C2A11554   7.546  10.329   7.379  0.1882  0.2000 -0.1418
  828loPI   C3A11555   7.625  10.308   7.902 -0.2175 -0.0248  0.3654
  828loPI   C4A11556   7.780  10.173   8.294  0.3860 -0.1834 -0.0262
  828loPI   C5A11557   7.927  10.159   8.649  0.0072 -0.1470 -0.0387
  828loPI   C6A11558   8.053  10.058   9.033 -0.0518  0.0315  0.3294
  828loPI   C1B11559   7.857  10.036   6.866 -0.0231  0.1421  0.0411
  828loPI   C2B11560   7.920   9.831   7.247 -0.2466  0.1680  0.1936
  828loPI   C3B11561   7.991   9.707   7.670 -0.1505  0.0878  0.0755
  828loPI   C4B11562   8.131   9.714   8.114 -0.2301  0.0118  0.1580
  829loPI    C111563  13.116  14.130   5.666 -0.1362  0.2088  0.1075
  829loPI    C211564  12.831  14.314   5.454 -0.2498 -0.0767  0.0074
  829loPI    C311565  13.147  14.154   5.268 -0.0545  0.1807  0.1120
  829loPI   PO411566  12.941  14.046   5.875 -0.0402  0.1547  0.1381
  829loPI   GL111567  12.772  13.993   6.187 -0.0617 -0.2382  0.0388
  829loPI   GL211568  13.015  13.666   6.291 -0.0766  0.2055  0.2424
  829loPI   C1A11569  12.898  14.228   6.518  0.0751  0.1676 -0.0552
  829loPI   C2A11570  12.984  14.173   6.930  0.2688 -0.1789 -0.0153
  829loPI   C3A11571  12.995  14.124   7.379  0.1187 -0.0553  0.3031
  829loPI   C4A11572  13.195  14.039   7.684  0.0941  0.2322 -0.0277
  829loPI   C5A11573  13.225  13.560   7.920  0.2708  0.2244 -0.1065
  829loPI   C6A11574  12.992  13.685   8.339  0.0032 -0.0864 -0.3449
  829loPI   C1B11575  12.963  13.766   6.712  0.1808 -0.3288 -0.2101
  829loPI   C2B11576  13.078  13.683   7.151 -0.1358 -0.0849 -0.2051
  829loPI   C3B11577  12.819  13.683   7.623  0.2482 -0.2011  0.0513
  829loPI   C4B11578  12.688  13.844   7.980 -0.4575  0.2143 -0.6269
  830loPI    C111579   3.721   3.397   5.848 -0.0026 -0.0755 -0.1045
  830loPI    C211580   3.876   3.065   5.688  0.0466 -0.1124  0.0191
  830loPI    C311581   3.911   3.414   5.496  0.3365 -0.1093  0.0730
  830loPI   PO411582   3.503   3.360   5.934 -0.3208 -0.0737 -0.0205
  830loPI   GL111583   3.520   3.511   6.384 -0.0691  0.1109  0.0808
  830loPI   GL211584   3.347   3.166   6.343  0.0991  0.2598  0.2379
  830loPI   C1A11585   3.387   3.515   6.755  0.1092 -0.0294  0.1424
  830loPI   C2A11586   3.324   3.536   7.179 -0.1085  0.1890 -0.1681
  830loPI   C3A11587   3.373   3.616   7.584  0.4859 -0.1603  0.0608
  830loPI   C4A11588   3.323   3.552   7.979  0.1302 -0.4293 -0.1934
  830loPI   C5A11589   3.098   3.189   8.265  0.1890 -0.3397  0.0899
  830loPI   C6A11590   3.121   3.090   8.810 -0.0390  0.0240 -0.0411
  830loPI   C1B11591   3.165   3.091   6.711 -0.0445 -0.4094 -0.1757
  830loPI   C2B11592   3.160   3.103   7.134  0.2864  0.1454 -0.3481
  830loPI   C3B11593   3.264   3.079   7.541  0.0475 -0.1431 -0.1073
  830loPI   C4B11594   3.163   2.764   7.891 -0.0171  0.2852 -0.0893
  831loPI    C111595  16.937   0.955   5.344 -0.2208  0.2643 -0.1363
  831loPI    C211596  16.986   0.914   4.949 -0.1166 -0.0913 -0.0896
  831loPI    C311597  16.843   0.610   5.166 -0.2313  0.1223  0.1395
  831loPI   PO411598  17.151   0.966   5.500 -0.0929  0.3097 -0.0319
  831loPI   GL111599  17.380   1.216   5.934 -0.2165  0.0145  0.1002
  831loPI   GL211600  17.663   1.311   5.893  0.1304 -0.0005  0.0517
  831loPI   C1A11601  17.399   1.470   6.300 -0.0603  0.3817 -0.0703
  831loPI   C2A11602  17.313   1.261   6.661  0.1555 -0.0665 -0.1707
  831loPI   C3A11603  17.459   1.198   7.039 -0.2136 -0.4180 -0.3758
  831loPI   C4A11604  17.344   1.248   7.500 -0.0956  0.0640 -0.2087
  831loPI   C5A11605  17.356   1.607   7.807 -0.0081 -0.1602 -0.0816
  831loPI   C6A11606  17.507   1.900   8.117 -0.1986  0.1037  0.1111
  831loPI   C1B11607  17.853   1.523   6.229 -0.2772 -0.1107 -0.0941
  831loPI   C2B11608  17.755   1.537   6.685  0.1603 -0.1728  0.1413
  831loPI   C3B11609  17.634   1.661   6.997  0.0827  0.0028  0.0570
  831loPI   C4B11610  17.665   1.661   7.408 -0.1531 -0.2372  0.2701
  832loPI    C111611  15.277  11.359   6.097 -0.2273  0.2189 -0.1382
  832loPI    C211612  15.110  11.142   5.805 -0.0161 -0.0015 -0.0986
  832loPI    C311613  15.429  11.371   5.728  0.1734 -0.2271  0.0012
  832loPI   PO411614  15.314  11.131   6.320  0.1684 -0.0994 -0.2103
  832loPI   GL111615  15.046  11.216   6.696 -0.1029  0.0704  0.1932
  832loPI   GL211616  14.877  11.571   6.494 -0.0118  0.2535  0.1742
  832loPI   C1A11617  15.190  11.243   7.172 -0.0674 -0.3034  0.0453
  832loPI   C2A11618  15.090  11.272   7.585 -0.1974  0.3685  0.1775
  832loPI   C3A11619  15.106  11.158   7.942  0.1487 -0.5247 -0.3124
  832loPI   C4A11620  15.365  11.036   8.272 -0.1197 -0.2214  0.1145
  832loPI   C5A11621  15.676  10.706   8.245 -0.2411  0.1353  0.1558
  832loPI   C6A11622  16.025  10.692   8.587  0.0424 -0.4143  0.0743
  832loPI   C1B11623  15.007  11.664   6.919 -0.0841 -0.0660  0.0512
  832loPI   C2B11624  14.998  11.736   7.321  0.0526 -0.1172 -0.1360
  832loPI   C3B11625  14.796  11.657   7.785  0.2191  0.0248  0.0210
  832loPI   C4B11626  14.845  11.576   8.227 -0.2812  0.1710  0.3250
  833loPI    C111627   2.786  13.474   5.512 -0.1455 -0.2413 -0.1442
  833loPI    C211628   3.133  13.544   5.327 -0.2123  0.2121 -0.1083
  833loPI    C311629   2.839  13.354   5.134  0.0061 -0.0564 -0.1830
  833loPI   PO411630   2.686  13.720   5.537  0.0680  0.0436 -0.1814
  833loPI   GL111631   2.617  13.935   5.923 -0.1094 -0.0812 -0.1653
  833loPI   GL211632   2.708  14.232   6.062  0.3371  0.1147 -0.3072
  833loPI   C1A11633   2.400  13.906   6.322 -0.0994  0.2204 -0.0666
  833loPI   C2A11634   2.171  14.063   6.726 -0.3354 -0.1528 -0.0530
  833loPI   C3A11635   2.145  14.368   7.038  0.3809  0.0472  0.2354
  833loPI   C4A11636   2.268  14.748   7.160 -0.1233 -0.0647 -0.2590
  833loPI   C5A11637   2.320  14.982   7.405 -0.3027  0.1256 -0.1768
  833loPI   C6A11638   2.514  15.375   7.428  0.1085 -0.0789 -0.0502
  833loPI   C1B11639   2.933  14.350   6.387 -0.1785  0.0167 -0.1801
  833loPI   C2B11640   3.241  14.209   6.648 -0.4019  0.3308 -0.1491
  833loPI   C3B11641   3.411  13.723   6.592 -0.2062 -0.1370  0.1051
  833loPI   C4B11642   3.846  13.432   6.478  0.5253  0.0864  0.1834
  834loPI    C111643   7.037  16.606   5.805  0.0500 -0.1798 -0.0551
  834loPI    C211644   7.130  16.652   5.419  0.1924  0.1546  0.0162
  834loPI    C311645   7.393  16.485   5.670  0.1591  0.0752 -0.0017
  834loPI   PO411646   6.861  16.359   5.833 -0.2460 -0.2595 -0.3405
  834loPI   GL111647   6.607  16.311   6.202  0.1123  0.1282  0.0291
  834loPI   GL211648   6.951  16.377   6.328  0.0385 -0.0907  0.2161
  834loPI   C1A11649   6.656  16.663   6.506  0.2140 -0.1076  0.0240
  834loPI   C2A11650   6.735  16.834   6.849 -0.0952  0.1226 -0.0060
  834loPI   C3A11651   6.851  16.975   7.228 -0.2403  0.2780 -0.1598
  834loPI   C4A11652   6.952  17.055   7.730 -0.3751 -0.3128  0.0144
  834loPI   C5A11653   6.971  17.460   7.927 -0.2774  0.0929 -0.1225
  834loPI   C6A11654   7.209  17.842   8.090 -0.2151  0.0410 -0.1129
  834loPI   C1B11655   6.750  16.220   6.773 -0.1964 -0.0644  0.2071
  834loPI   C2B11656   6.805  16.367   7.109  0.0113 -0.2524 -0.3150
  834loPI   C3B11657   6.807  16.159   7.550  0.1392 -0.1831 -0.1471
  834loPI   C4B11658   6.550  16.237   7.915 -0.1282 -0.1308  0.0078
  835loPI    C111659   6.732  13.663   6.051  0.1008 -0.0486  0.0013
  835loPI    C211660   6.457  13.403   5.922 -0.0040  0.1537 -0.1889
  835loPI    C311661   6.398  13.796   5.875  0.3215  0.1989 -0.2398
  835loPI   PO411662   6.977  13.544   5.946  0.1168  0.0743 -0.2873
  835loPI   GL111663   7.334  13.798   6.116 -0.0566 -0.1916  0.2873
  835loPI   GL211664   7.568  13.811   6.208  0.0097  0.0474 -0.0339
  835loPI   C1A11665   7.084  13.905   6.461  0.0594  0.1974  0.2136
  835loPI   C2A11666   7.299  14.242   6.853  0.1199 -0.2220 -0.1438
  835loPI   C3A11667   7.132  14.308   7.179 -0.1269  0.1111  0.1546
  835loPI   C4A11668   6.929  14.309   7.594  0.0980 -0.2274 -0.2384
  835loPI   C5A11669   6.727  14.571   7.947 -0.2862 -0.0534 -0.2776
  835loPI   C6A11670   6.688  14.690   8.321  0.0421  0.0305 -0.1912
  835loPI   C1B11671   7.517  13.824   6.671  0.4021  0.0734 -0.1423
  835loPI   C2B11672   7.529  13.933   7.172  0.1569 -0.0053  0.0580
  835loPI   C3B11673   7.509  14.308   7.556 -0.1247  0.0885  0.2988
  835loPI   C4B11674   7.288  14.348   8.002  0.0640  0.0269  0.0884
  836loPI    C111675  15.053   9.592   6.033  0.1024  0.1554  0.0370
  836loPI    C211676  15.193   9.444   5.689  0.3723 -0.1012  0.2518
  836loPI    C311677  14.853   9.302   5.845  0.0375  0.2880 -0.1002
  836loPI   PO411678  15.233   9.622   6.212 -0.1250  0.1232  0.2688
  836loPI   GL111679  15.232   9.922   6.533 -0.2348 -0.2313 -0.2845
  836loPI   GL211680  15.536   9.962   6.758 -0.1592  0.0950  0.1719
  836loPI   C1A11681  15.121  10.020   6.959 -0.0423  0.1179 -0.2515
  836loPI   C2A11682  15.203  10.292   7.334 -0.0645 -0.1078 -0.1462
  836loPI   C3A11683  15.246  10.171   7.787 -0.0646 -0.0198  0.3108
  836loPI   C4A11684  15.498  10.208   8.171  0.0542 -0.1067 -0.0656
  836loPI   C5A11685  15.995  10.296   8.256 -0.2001  0.5246 -0.0191
  836loPI   C6A11686  16.145  10.658   8.086  0.0612  0.1798 -0.0107
  836loPI   C1B11687  15.628  10.359   7.120 -0.1404 -0.2474  0.3103
  836loPI   C2B11688  15.441  10.787   7.246  0.3581  0.3146 -0.1412
  836loPI   C3B11689  15.562  11.094   7.478  0.2964  0.0222 -0.0720
  836loPI   C4B11690  15.620  11.240   7.834 -0.4586 -0.4211 -0.1572
  837loPI    C111691  14.782   7.090   5.873  0.1369 -0.1389  0.2278
  837loPI    C211692  15.030   6.904   5.620  0.0627 -0.1454  0.1598
  837loPI    C311693  14.807   7.211   5.493  0.0745 -0.1059  0.2341
  837loPI   PO411694  14.671   6.878   5.965 -0.0496  0.2561 -0.0371
  837loPI   GL111695  14.690   6.876   6.391  0.0326  0.2394  0.2234
  837loPI   GL211696  14.355   6.961   6.316  0.1584 -0.0111  0.0615
  837loPI   C1A11697  14.650   6.777   6.837  0.1624 -0.0694  0.0234
  837loPI   C2A11698  14.544   6.688   7.301  0.0285 -0.1715 -0.0718
  837loPI   C3A11699  14.291   6.617   7.754  0.1921  0.1550  0.1434
  837loPI   C4A11700  14.133   6.362   8.128  0.1225 -0.0630  0.2095
  837loPI   C5A11701  13.996   6.089   7.972  0.1213  0.0859  0.1369
  837loPI   C6A11702  13.681   5.954   8.075  0.1087  0.1986  0.0389
  837loPI   C1B11703  14.307   7.104   6.710 -0.0482 -0.1797  0.4581
  837loPI   C2B11704  14.436   7.121   7.133 -0.1934 -0.0438 -0.2819
  837loPI   C3B11705  14.438   7.079   7.579 -0.3911 -0.0166 -0.0968
  837loPI   C4B11706  14.408   7.106   8.041 -0.1274  0.1025  0.1673
  838loPI    C111707   5.632   1.408   5.595  0.0326 -0.0170  0.0448
  838loPI    C211708   5.269   1.442   5.431  0.1916  0.0450 -0.3034
  838loPI    C311709   5.471   1.099   5.400  0.0969 -0.0458  0.0369
  838loPI   PO411710   5.657   1.457   5.882 -0.0428 -0.1007 -0.1021
  838loPI   GL111711   5.494   1.573   6.301 -0.1017 -0.2012  0.0798
  838loPI   GL211712   5.161   1.582   6.101 -0.3294  0.1197  0.0675
  838loPI   C1A11713   5.855   1.684   6.635  0.0213 -0.2474 -0.0054
  838loPI   C2A11714   5.776   1.668   6.974  0.1646  0.0224  0.3551
  838loPI   C3A11715   5.881   1.640   7.388  0.1521 -0.2481  0.4232
  838loPI   C4A11716   5.784   1.709   7.796 -0.1642 -0.0618  0.3008
  838loPI   C5A11717   5.645   1.658   8.131  0.0424  0.0432 -0.4210
  838loPI   C6A11718   5.462   1.506   8.557  0.1209  0.1221  0.1015
  838loPI   C1B11719   4.930   1.397   6.418  0.1152 -0.2461  0.2565
  838loPI   C2B11720   4.873   1.454   6.811 -0.0351 -0.1250  0.2110
  838loPI   C3B11721   4.777   1.420   7.266 -0.0923  0.1803 -0.1969
  838loPI   C4B11722   4.629   1.416   7.759 -0.1660  0.1226 -0.1172
  839loPI    C111723  13.179   8.338   5.838  0.1940  0.0813 -0.0795
  839loPI    C211724  13.334   8.703   5.785  0.0833  0.1242 -0.1109
  839loPI    C311725  12.963   8.623   5.659  0.1209 -0.0102 -0.1381
  839loPI   PO411726  13.310   8.203   6.042  0.2156 -0.1414 -0.2877
  839loPI   GL111727  13.239   8.132   6.463 -0.0008  0.2956 -0.1600
  839loPI   GL211728  13.398   7.864   6.520 -0.0180 -0.0461  0.1362
  839loPI   C1A11729  13.130   8.100   6.892  0.0180  0.2114 -0.0164
  839loPI   C2A11730  13.134   8.204   7.312  0.2682 -0.4551 -0.2417
  839loPI   C3A11731  13.087   8.177   7.695  0.0453  0.0321  0.2663
  839loPI   C4A11732  13.111   7.880   8.088  0.4420  0.1014 -0.0639
  839loPI   C5A11733  13.209   7.699   8.468  0.2627 -0.1377  0.1725
  839loPI   C6A11734  13.256   7.417   8.666  0.2752  0.1136 -0.0207
  839loPI   C1B11735  13.483   7.715   6.951  0.0598  0.1186  0.4397
  839loPI   C2B11736  13.454   7.667   7.336  0.2608  0.0357 -0.3253
  839loPI   C3B11737  13.153   7.627   7.486 -0.3940 -0.2621  0.0259
  839loPI   C4B11738  12.838   7.501   7.775  0.1223  0.3696  0.0795
  840loPI    C111739  13.857   2.274   5.315 -0.2376  0.4211  0.0866
  840loPI    C211740  14.038   2.596   5.164  0.0195  0.2689  0.0649
  840loPI    C311741  13.904   2.309   4.920 -0.0149  0.2580  0.0966
  840loPI   PO411742  13.996   2.091   5.483  0.0439 -0.2117 -0.1907
  840loPI   GL111743  14.024   1.889   5.767  0.1666  0.3892 -0.1658
  840loPI   GL211744  14.372   1.908   5.693 -0.2464 -0.0555  0.0652
  840loPI   C1A11745  13.777   1.957   6.164 -0.0912  0.1899  0.2058
  840loPI   C2A11746  13.886   1.957   6.509  0.0752 -0.2029 -0.0852
  840loPI   C3A11747  14.018   1.980   6.830  0.1243 -0.0225  0.1606
  840loPI   C4A11748  13.999   2.015   7.185 -0.2212 -0.0521  0.2668
  840loPI   C5A11749  14.171   1.972   7.622 -0.1904  0.1461  0.0688
  840loPI   C6A11750  13.974   1.623   7.925  0.0443  0.3627 -0.3847
  840loPI   C1B11751  14.318   1.983   6.175 -0.2049 -0.1796 -0.1160
  840loPI   C2B11752  14.429   2.042   6.571  0.0346 -0.0577 -0.3008
  840loPI   C3B11753  14.481   2.040   6.970  0.0930 -0.2551  0.4172
  840loPI   C4B11754  14.697   1.975   7.435  0.1441  0.0601 -0.1204
  841loPI    C111755   0.068   9.748   5.591 -0.2159 -0.1970  0.0730
  841loPI    C211756  -0.136   9.919   5.291 -0.0421  0.0488  0.0920
  841loPI    C311757   0.163  10.117   5.469  0.1157 -0.2489  0.1654
  841loPI   PO411758  -0.132   9.666   5.763 -0.0592 -0.1075  0.1217
  841loPI   GL111759  -0.303   9.826   6.083 -0.1468 -0.0984 -0.2751
  841loPI   GL211760  -0.109  10.049   6.257  0.0787 -0.0897  0.2995
  841loPI   C1A11761  -0.367   9.737   6.518  0.1085  0.1344  0.2364
  841loPI   C2A11762  -0.362   9.759   6.898 -0.0116  0.1483  0.0535
  841loPI   C3A11763  -0.646   9.856   7.334 -0.1643  0.2186  0.2573
  841loPI   C4A11764  -0.586  10.041   7.723 -0.0377  0.1256  0.2469
  841loPI   C5A11765  -0.475   9.864   8.175 -0.0120 -0.1967 -0.1159
  841loPI   C6A11766  -0.310   9.996   8.533  0.0633 -0.3042  0.2024
  841loPI   C1B11767   0.031   9.981   6.713 -0.2379  0.1291 -0.3028
  841loPI   C2B11768   0.025  10.042   7.169  0.0593 -0.0539 -0.1818
  841loPI   C3B11769  -0.094   9.935   7.513  0.0232  0.0043 -0.1902
  841loPI   C4B11770  -0.186  10.143   7.933  0.2136  0.0431 -0.1228
  842loPI    C111771   1.158   8.073   5.486 -0.1469  0.1716  0.1360
  842loPI    C211772   1.406   8.321   5.294 -0.0367  0.1778  0.2847
  842loPI    C311773   1.038   8.257   5.152  0.0559  0.1529  0.0515
  842loPI   PO411774   1.077   8.225   5.695  0.0149 -0.3450  0.1554
  842loPI   GL111775   1.338   8.076   6.006 -0.1511  0.1951  0.2526
  842loPI   GL211776   1.201   7.671   6.044  0.0222 -0.0361  0.0677
  842loPI   C1A11777   1.460   7.964   6.360  0.5342  0.3184 -0.1151
  842loPI   C2A11778   1.304   7.906   6.678  0.4794 -0.1420 -0.2506
  842loPI   C3A11779   1.224   7.945   7.188 -0.1950 -0.0502  0.1159
  842loPI   C4A11780   1.328   8.165   7.693 -0.1793 -0.0307 -0.0181
  842loPI   C5A11781   1.162   8.426   7.965 -0.2720  0.2003  0.4747
  842loPI   C6A11782   0.781   8.331   8.312  0.0828 -0.0168  0.0768
  842loPI   C1B11783   0.864   7.776   6.262  0.0375 -0.0052 -0.0228
  842loPI   C2B11784   0.669   7.910   6.673  0.2265 -0.4912  0.1690
  842loPI   C3B11785   0.787   8.074   7.043  0.1659  0.2318 -0.0463
  842loPI   C4B11786   0.680   8.303   7.401  0.0370 -0.1721  0.0947
  843loPI    C111787   5.084   9.016   5.569 -0.2421  0.0716  0.1330
  843loPI    C211788   4.956   8.645   5.495 -0.1566  0.0859 -0.0946
  843loPI    C311789   5.122   8.861   5.203  0.1375  0.1673  0.1278
  843loPI   PO411790   5.198   8.989   5.738  0.1956  0.0025  0.1566
  843loPI   GL111791   5.253   9.341   6.062  0.1720  0.0910 -0.0268
  843loPI   GL211792   4.941   9.425   6.142 -0.2966  0.1444 -0.2067
  843loPI   C1A11793   5.297   9.399   6.497 -0.1587  0.3554 -0.1060
  843loPI   C2A11794   5.260   9.354   6.896  0.0774 -0.1518  0.0856
  843loPI   C3A11795   4.993   9.451   7.206 -0.3651  0.0189 -0.2395
  843loPI   C4A11796   4.950   9.636   7.639  0.2007  0.0693 -0.0194
  843loPI   C5A11797   5.061  10.040   7.767  0.1438 -0.2819  0.2401
  843loPI   C6A11798   5.249  10.330   7.998 -0.0625  0.1093 -0.2294
  843loPI   C1B11799   4.829   9.257   6.644 -0.1751 -0.2824  0.0990
  843loPI   C2B11800   4.624   9.018   6.946 -0.3117  0.0982  0.4071
  843loPI   C3B11801   4.399   8.875   7.295  0.0832  0.2210  0.1977
  843loPI   C4B11802   4.037   8.864   7.338 -0.1658 -0.3370 -0.2064
  844loPI    C111803  14.322   0.174   5.539  0.0077 -0.3670 -0.1023
  844loPI    C211804  14.059  -0.122   5.482 -0.1694 -0.1526 -0.4353
  844loPI    C311805  14.141   0.133   5.185 -0.0524  0.1608 -0.1414
  844loPI   PO411806  14.236   0.353   5.713  0.3165  0.1387  0.1978
  844loPI   GL111807  14.042   0.295   6.104  0.1937  0.0202 -0.2875
  844loPI   GL211808  14.185  -0.055   6.090  0.2833 -0.3667  0.1142
  844loPI   C1A11809  14.109   0.237   6.561  0.1424  0.0499  0.0358
  844loPI   C2A11810  14.199   0.263   6.957  0.2050 -0.1150 -0.1117
  844loPI   C3A11811  13.887   0.215   7.294 -0.0366  0.1124 -0.1093
  844loPI   C4A11812  13.772   0.168   7.739 -0.1225 -0.2358  0.0992
  844loPI   C5A11813  13.480   0.102   8.076  0.0059  0.2358 -0.2396
  844loPI   C6A11814  13.017   0.007   8.186 -0.0971  0.6518  0.0653
  844loPI   C1B11815  14.507  -0.023   6.343 -0.0878  0.0570 -0.0014
  844loPI   C2B11816  14.560  -0.016   6.809 -0.0063 -0.2011  0.0415
  844loPI   C3B11817  14.503  -0.093   7.240 -0.1573 -0.3049  0.0550
  844loPI   C4B11818  14.673  -0.159   7.693  0.1585  0.0023  0.0671
  845loPI    C111819   3.165   4.498   5.458  0.0327 -0.0857 -0.1705
  845loPI    C211820   3.216   4.774   5.743 -0.3549 -0.0354 -0.1441
  845loPI    C311821   3.485   4.738   5.449  0.0566 -0.0957  0.2281
  845loPI   PO411822   3.164   4.199   5.596 -0.1158  0.0093  0.0642
  845loPI   GL111823   3.157   4.274   6.062  0.1002  0.0021  0.0104
  845loPI   GL211824   2.884   4.542   6.103  0.2408 -0.1263  0.1584
  845loPI   C1A11825   3.543   4.135   6.241 -0.1184 -0.1853  0.2401
  845loPI   C2A11826   3.636   3.944   6.663  0.0658  0.2643 -0.2274
  845loPI   C3A11827   3.579   3.885   7.069  0.1426  0.1166  0.2782
  845loPI   C4A11828   3.763   3.881   7.454  0.0589  0.0188 -0.0652
  845loPI   C5A11829   3.916   3.653   7.826  0.0537  0.1433 -0.1385
  845loPI   C6A11830   4.029   3.649   8.257 -0.0132  0.0007  0.0756
  845loPI   C1B11831   3.159   4.450   6.556 -0.0723 -0.4092 -0.0137
  845loPI   C2B11832   3.260   4.446   6.996 -0.2215 -0.0118 -0.1791
  845loPI   C3B11833   3.456   4.341   7.300 -0.2026  0.3714 -0.2351
  845loPI   C4B11834   3.240   4.344   7.666  0.2106  0.1635 -0.1539
  846loPI    C111835   7.561   4.880   5.635 -0.0034 -0.0467  0.2329
  846loPI    C211836   7.399   5.219   5.772 -0.1655 -0.0026 -0.0586
  846loPI    C311837   7.525   5.197   5.393  0.2947 -0.1148  0.0950
  846loPI   PO411838   7.342   4.720   5.674 -0.0221 -0.2001  0.1590
  846loPI   GL111839   6.994   4.735   5.842 -0.0905  0.0855 -0.0123
  846loPI   GL211840   6.728   4.757   6.017 -0.1904  0.0733 -0.3760
  846loPI   C1A11841   7.073   5.081   6.199  0.0036 -0.0257 -0.0173
  846loPI   C2A11842   7.066   5.282   6.554 -0.1071 -0.0055 -0.0180
  846loPI   C3A11843   7.105   5.146   7.089 -0.3113 -0.0584  0.0401
  846loPI   C4A11844   6.932   5.297   7.502  0.1663  0.3331 -0.0269
  846loPI   C5A11845   6.708   5.358   7.846 -0.0984  0.3892 -0.0687
  846loPI   C6A11846   6.346   5.620   7.947 -0.1935  0.0136 -0.1431
  846loPI   C1B11847   6.654   4.793   6.444  0.0947 -0.0992  0.0382
  846loPI   C2B11848   6.693   4.943   6.820 -0.3531 -0.0742  0.1723
  846loPI   C3B11849   6.603   5.279   7.096  0.2003 -0.5781 -0.0822
  846loPI   C4B11850   6.442   5.575   7.470  0.0351 -0.0636 -0.0030
  847loPI    C111851   8.248  13.278   5.345 -0.3251  0.1447  0.0030
  847loPI    C211852   7.967  12.994   5.333  0.1090 -0.2927 -0.2054
  847loPI    C311853   8.120  13.138   4.993 -0.2748  0.3811 -0.1111
  847loPI   PO411854   8.246  13.416   5.667  0.0031  0.0844  0.0383
  847loPI   GL111855   8.482  13.283   5.996  0.2733  0.1498 -0.2611
  847loPI   GL211856   8.773  13.156   6.036 -0.1553  0.1330 -0.1226
  847loPI   C1A11857   8.437  13.416   6.378 -0.2108 -0.0512  0.2012
  847loPI   C2A11858   8.514  13.389   6.730  0.2012 -0.0912  0.2317
  847loPI   C3A11859   8.401  13.390   7.229 -0.1971 -0.0751 -0.1824
  847loPI   C4A11860   8.389  13.114   7.640 -0.0503 -0.2777 -0.0883
  847loPI   C5A11861   8.202  13.047   8.006  0.1063 -0.0453 -0.2988
  847loPI   C6A11862   8.254  12.889   8.448  0.4990 -0.1201 -0.1998
  847loPI   C1B11863   8.907  13.522   6.304 -0.2081 -0.5182  0.0115
  847loPI   C2B11864   8.976  14.025   6.469 -0.0115  0.0134  0.0924
  847loPI   C3B11865   8.778  14.274   6.662  0.0251 -0.0983 -0.0090
  847loPI   C4B11866   8.653  14.555   6.780 -0.1341  0.0938  0.1853
  848loPI    C111867  15.230   4.931   5.403 -0.0439  0.1793 -0.2268
  848loPI    C211868  15.010   4.690   5.171 -0.1216 -0.1852  0.2120
  848loPI    C311869  15.395   4.753   5.085 -0.1138 -0.4258  0.0620
  848loPI   PO411870  15.136   4.870   5.634  0.0910  0.0732 -0.0288
  848loPI   GL111871  15.131   4.610   5.972 -0.0557 -0.0163  0.4673
  848loPI   GL211872  15.331   4.914   6.075  0.2042  0.1515  0.2351
  848loPI   C1A11873  15.083   4.557   6.473  0.1747 -0.0598  0.0470
  848loPI   C2A11874  15.230   4.338   6.807 -0.3729 -0.1650  0.1003
  848loPI   C3A11875  15.570   4.291   7.058 -0.1905  0.0671  0.4861
  848loPI   C4A11876  15.477   4.379   7.475  0.2632 -0.0888 -0.0553
  848loPI   C5A11877  15.666   4.216   7.787  0.0114 -0.0861  0.0788
  848loPI   C6A11878  15.953   4.173   8.034  0.0098 -0.0863  0.0039
  848loPI   C1B11879  15.305   5.008   6.487 -0.0197  0.1296 -0.0787
  848loPI   C2B11880  15.120   4.862   6.852  0.1109  0.0490 -0.1444
  848loPI   C3B11881  15.092   4.607   7.213  0.2314 -0.1528 -0.1470
  848loPI   C4B11882  14.997   4.624   7.671  0.0592 -0.1846 -0.0709
  849loPI    C111883   0.732   8.908   5.606  0.0672 -0.1240  0.0134
  849loPI    C211884   0.347   8.831   5.532  0.0118  0.2624 -0.1246
  849loPI    C311885   0.628   8.709   5.275  0.0158 -0.2879  0.1269
  849loPI   PO411886   0.658   9.080   5.765 -0.2506 -0.0175 -0.2181
  849loPI   GL111887   0.966   9.412   5.973 -0.0061  0.2255 -0.0153
  849loPI   GL211888   1.076   9.733   5.861  0.1030 -0.1886  0.1265
  849loPI   C1A11889   0.831   9.311   6.384  0.3244 -0.1896  0.0116
  849loPI   C2A11890   0.544   9.316   6.734 -0.3635  0.0894 -0.0790
  849loPI   C3A11891   0.571   9.291   7.145  0.2498 -0.0929 -0.2244
  849loPI   C4A11892   0.647   9.396   7.476  0.1457  0.1235 -0.1388
  849loPI   C5A11893   0.829   9.742   7.820  0.2099  0.0992  0.0962
  849loPI   C6A11894   0.958   9.570   8.198 -0.2086  0.0775 -0.2964
  849loPI   C1B11895   0.769   9.923   6.178 -0.1089 -0.0928  0.0878
  849loPI   C2B11896   0.502   9.857   6.557 -0.0068 -0.2716  0.0892
  849loPI   C3B11897   0.488   9.887   6.973  0.1394  0.0794 -0.0392
  849loPI   C4B11898   0.530   9.846   7.403 -0.0742 -0.2276  0.1926
  850loPI    C111899  15.535  12.058   5.904  0.1658  0.0263 -0.0665
  850loPI    C211900  15.666  11.700   6.025 -0.1658 -0.0893 -0.0381
  850loPI    C311901  15.729  11.820   5.648  0.0618 -0.1193 -0.0112
  850loPI   PO411902  15.533  12.308   5.981 -0.0504 -0.0150  0.0463
  850loPI   GL111903  15.743  12.310   6.303 -0.0248 -0.1383 -0.1623
  850loPI   GL211904  15.591  12.166   6.459 -0.0241 -0.1253 -0.0167
  850loPI   C1A11905  15.922  12.607   6.593 -0.3197  0.0981  0.0779
  850loPI   C2A11906  15.940  12.819   6.923  0.1562  0.0068  0.0102
  850loPI   C3A11907  15.920  12.843   7.293 -0.0109  0.1947  0.0124
  850loPI   C4A11908  16.021  12.972   7.696 -0.0175  0.3909  0.2202
  850loPI   C5A11909  16.083  13.184   8.043  0.1557  0.2722  0.1184
  850loPI   C6A11910  15.774  13.273   8.276 -0.0923 -0.2509 -0.1705
  850loPI   C1B11911  15.569  12.383   6.808  0.3236 -0.3024  0.0208
  850loPI   C2B11912  15.583  12.440   7.341  0.0671  0.2192 -0.1054
  850loPI   C3B11913  15.776  12.567   7.781 -0.2236  0.0567 -0.3942
  850loPI   C4B11914  16.117  12.615   8.135 -0.0195 -0.0632  0.1373
  851loPI    C111915  15.003   1.418   4.988  0.2705 -0.0613 -0.0259
  851loPI    C211916  15.121   1.046   5.074 -0.2272 -0.1877  0.1410
  851loPI    C311917  14.860   1.110   4.777 -0.0672  0.0406  0.0475
  851loPI   PO411918  15.017   1.557   5.289 -0.2873 -0.0256 -0.1474
  851loPI   GL111919  15.024   1.457   5.828 -0.0626 -0.0697 -0.3499
  851loPI   GL211920  14.808   1.627   5.765  0.2563  0.0074  0.2422
  851loPI   C1A11921  15.131   1.553   6.157 -0.1761  0.3200 -0.1864
  851loPI   C2A11922  15.104   1.507   6.660 -0.0808 -0.1851  0.2299
  851loPI   C3A11923  15.188   1.708   7.122  0.3007 -0.2034  0.1212
  851loPI   C4A11924  15.182   2.034   7.516 -0.0803  0.2590 -0.1613
  851loPI   C5A11925  14.985   2.318   7.678 -0.0161 -0.0557 -0.2993
  851loPI   C6A11926  14.603   2.344   7.865 -0.0939 -0.1231  0.1001
  851loPI   C1B11927  14.573   1.571   6.095  0.2070  0.0104  0.1415
  851loPI   C2B11928  14.586   1.592   6.537  0.0523  0.1374 -0.1069
  851loPI   C3B11929  14.696   1.630   6.900 -0.1542 -0.0886  0.0624
  851loPI   C4B11930  14.843   1.408   7.171  0.4367 -0.2273  0.0927
  852loPI    C111931  15.802  15.263   5.272 -0.1959 -0.0200 -0.1063
  852loPI    C211932  15.887  15.307   4.884  0.0010  0.1577 -0.0443
  852loPI    C311933  15.631  15.557   5.062 -0.1360  0.0388 -0.0728
  852loPI   PO411934  16.101  15.212   5.385 -0.0822 -0.1503  0.0144
  852loPI   GL111935  16.299  15.214   5.796 -0.0919  0.0387 -0.1148
  852loPI   GL211936  15.955  15.276   5.946 -0.1014  0.2372  0.1988
  852loPI   C1A11937  16.349  15.144   6.245  0.0384  0.0314 -0.0903
  852loPI   C2A11938  16.371  15.211   6.742 -0.2013  0.0343 -0.0524
  852loPI   C3A11939  16.435  15.283   7.225 -0.0294 -0.2411  0.0272
  852loPI   C4A11940  16.444  15.525   7.672 -0.2047  0.1347  0.0022
  852loPI   C5A11941  16.727  15.516   8.054 -0.1249  0.1219  0.4277
  852loPI   C6A11942  16.814  15.962   8.236 -0.0334  0.2321 -0.4084
  852loPI   C1B11943  15.768  15.267   6.326 -0.2572 -0.2318 -0.0019
  852loPI   C2B11944  15.887  15.281   6.735  0.2420  0.1206  0.0577
  852loPI   C3B11945  15.928  15.404   7.248 -0.0118 -0.2535 -0.1132
  852loPI   C4B11946  15.983  15.289   7.745 -0.2113  0.4482  0.1055
  853loPI    C111947   1.969  15.003   5.643 -0.0810 -0.0396 -0.1826
  853loPI    C211948   1.702  15.172   5.397 -0.1032 -0.0597 -0.1722
  853loPI    C311949   1.580  14.913   5.676 -0.0683 -0.0984 -0.1927
  853loPI   PO411950   2.150  15.294   5.630 -0.1536  0.0622  0.2032
  853loPI   GL111951   2.485  15.186   5.803 -0.2230 -0.2571  0.0746
  853loPI   GL211952   2.403  15.487   6.052  0.1324  0.0113 -0.0374
  853loPI   C1A11953   2.442  15.033   6.262 -0.2183 -0.0766  0.2168
  853loPI   C2A11954   2.358  14.995   6.683  0.1220  0.0733  0.1434
  853loPI   C3A11955   2.658  15.060   6.993  0.1646  0.2863  0.1762
  853loPI   C4A11956   2.862  14.879   7.393 -0.2295 -0.0642 -0.2497
  853loPI   C5A11957   2.832  15.066   7.661  0.2415 -0.1837  0.0099
  853loPI   C6A11958   2.656  15.359   7.886 -0.2112 -0.2367 -0.0953
  853loPI   C1B11959   2.314  15.517   6.486  0.3368 -0.1134  0.4267
  853loPI   C2B11960   2.204  15.468   6.892  0.0127 -0.0212 -0.0610
  853loPI   C3B11961   2.087  15.531   7.397  0.0442 -0.0208 -0.0556
  853loPI   C4B11962   2.193  15.587   7.819  0.0772 -0.2986  0.1238
  854loPI    C111963  17.991   3.886   6.043 -0.1649 -0.0626 -0.0558
  854loPI    C211964  17.945   3.760   5.666 -0.0381  0.0607 -0.1134
  854loPI    C311965  18.182   3.557   5.918 -0.0152  0.0550 -0.1397
  854loPI   PO411966  17.781   4.208   5.962 -0.0885 -0.1363  0.1139
  854loPI   GL111967  17.471   4.176   6.248 -0.3132  0.1498  0.1617
  854loPI   GL211968  17.653   4.285   6.432 -0.4098  0.0690  0.4485
  854loPI   C1A11969  17.477   3.801   6.483  0.1118  0.0989  0.0979
  854loPI   C2A11970  17.394   3.366   6.507  0.0692  0.1145  0.1220
  854loPI   C3A11971  17.008   3.203   6.719  0.1686  0.1975  0.0758
  854loPI   C4A11972  16.825   3.292   7.135  0.2277  0.2442  0.0625
  854loPI   C5A11973  16.575   3.334   7.560  0.0642  0.0149 -0.0849
  854loPI   C6A11974  16.432   3.454   7.960 -0.0138 -0.1413 -0.1151
  854loPI   C1B11975  17.820   4.219   6.841 -0.2127 -0.1232  0.0449
  854loPI   C2B11976  17.544   4.002   7.133 -0.2358 -0.0531  0.4298
  854loPI   C3B11977  17.140   4.240   7.290 -0.0293  0.0419 -0.0088
  854loPI   C4B11978  16.801   4.374   7.331  0.0330 -0.2006 -0.0573
  855loPI    C111979   3.108  10.599   5.275 -0.0413 -0.1816  0.2773
  855loPI    C211980   3.306  10.768   4.972  0.0347 -0.3176  0.2502
  855loPI    C311981   3.320  10.371   5.023 -0.2944 -0.3378  0.2026
  855loPI   PO411982   3.150  10.757   5.470 -0.1652  0.0732 -0.3169
  855loPI   GL111983   3.096  10.651   5.952  0.0676  0.4354 -0.1128
  855loPI   GL211984   3.199  10.294   6.058 -0.0677  0.2569  0.0623
  855loPI   C1A11985   2.980  10.838   6.291  0.0985 -0.2247 -0.1158
  855loPI   C2A11986   2.847  10.717   6.687  0.2332  0.0831  0.0167
  855loPI   C3A11987   2.629  10.780   7.077 -0.0236  0.3324  0.1115
  855loPI   C4A11988   2.355  11.110   7.202 -0.2070 -0.1002 -0.3789
  855loPI   C5A11989   2.401  11.458   7.489  0.1908  0.0318 -0.0630
  855loPI   C6A11990   2.446  11.613   7.860  0.0680  0.1073 -0.1641
  855loPI   C1B11991   2.888  10.354   6.322 -0.1926  0.0390 -0.1128
  855loPI   C2B11992   2.705  10.265   6.716  0.2499  0.3139 -0.0374
  855loPI   C3B11993   2.653  10.293   7.123  0.1005  0.0927 -0.0202
  855loPI   C4B11994   2.787  10.464   7.552  0.2572 -0.2319  0.0297
  856loPI    C111995   2.342   8.333   6.021  0.0985  0.0030  0.1522
  856loPI    C211996   2.434   8.678   5.839 -0.1032  0.0138  0.0690
  856loPI    C311997   2.711   8.393   5.879 -0.0014  0.0919 -0.0748
  856loPI   PO411998   2.142   8.301   5.907  0.3549 -0.1013 -0.0621
  856loPI   GL111999   1.847   8.334   6.145  0.0497 -0.0997  0.0173
  856loPI   GL212000   2.004   8.659   6.404  0.2945 -0.1743 -0.2208
  856loPI   C1A12001   1.618   8.336   6.648 -0.4420  0.0302  0.0637
  856loPI   C2A12002   1.666   8.436   7.044 -0.4328  0.0987  0.1068
  856loPI   C3A12003   1.559   8.523   7.436 -0.3239  0.1363  0.3365
  856loPI   C4A12004   1.563   8.729   7.830  0.1161  0.0214 -0.1278
  856loPI   C5A12005   1.693   9.186   7.975 -0.3607 -0.0348 -0.0887
  856loPI   C6A12006   1.757   9.549   7.642 -0.0512  0.1461  0.0774
  856loPI   C1B12007   2.319   8.407   6.729 -0.2189 -0.2379 -0.0126
  856loPI   C2B12008   2.616   8.334   7.004 -0.0007  0.1324  0.2402
  856loPI   C3B12009   2.912   8.664   7.202  0.0600 -0.1179  0.1949
  856loPI   C4B12010   2.916   8.932   7.567  0.1537 -0.3143  0.6683
  857loPI    C112011   2.068  15.957   5.145  0.1377 -0.1469 -0.0963
  857loPI    C212012   1.908  16.223   4.893 -0.0136  0.1741  0.3259
  857loPI    C312013   2.167  15.950   4.758  0.0047  0.4162 -0.1492
  857loPI   PO412014   2.207  15.971   5.260  0.1315 -0.4245  0.0604
  857loPI   GL112015   2.271  16.198   5.650 -0.1812  0.3117  0.2534
  857loPI   GL212016   2.427  16.051   5.867 -0.0263 -0.1054  0.0712
  857loPI   C1A12017   1.976  16.203   6.069  0.3583  0.0740 -0.0407
  857loPI   C2A12018   1.857  16.176   6.514 -0.0732  0.0037  0.1348
  857loPI   C3A12019   1.745  15.933   6.863  0.0537 -0.0755  0.0568
  857loPI   C4A12020   1.758  15.960   7.278 -0.2499 -0.0783 -0.4150
  857loPI   C5A12021   1.796  15.832   7.692  0.2935  0.1176  0.0382
  857loPI   C6A12022   1.845  15.988   8.100  0.4247  0.1177  0.0061
  857loPI   C1B12023   2.304  15.957   6.319 -0.0144 -0.1298 -0.0797
  857loPI   C2B12024   2.357  15.962   6.759 -0.4214  0.0383  0.2101
  857loPI   C3B12025   2.234  16.101   7.178 -0.1211  0.4142 -0.1744
  857loPI   C4B12026   2.196  16.139   7.616  0.1691  0.1039  0.0153
  858loPI    C112027   1.549   3.588   5.480 -0.1620 -0.1400 -0.1619
  858loPI    C212028   1.896   3.471   5.640 -0.0663  0.1580 -0.1447
  858loPI    C312029   1.639   3.199   5.499  0.0150 -0.0868  0.1671
  858loPI   PO412030   1.441   3.788   5.724 -0.1594  0.2299  0.1461
  858loPI   GL112031   1.547   4.106   6.035  0.2502 -0.0193  0.0589
  858loPI   GL212032   1.825   4.282   5.961 -0.1827 -0.2613  0.2063
  858loPI   C1A12033   1.433   4.306   6.512 -0.0651  0.2846 -0.1401
  858loPI   C2A12034   1.381   4.407   6.953  0.0632  0.2209  0.1739
  858loPI   C3A12035   1.257   4.570   7.416  0.3924 -0.0025 -0.2801
  858loPI   C4A12036   1.036   4.896   7.720 -0.1760 -0.0469 -0.0719
  858loPI   C5A12037   0.679   4.916   8.114 -0.1456 -0.1379  0.0057
  858loPI   C6A12038   0.380   5.160   8.367 -0.2704 -0.1068  0.1102
  858loPI   C1B12039   1.949   4.160   6.394  0.2695  0.2869 -0.0271
  858loPI   C2B12040   1.920   4.092   6.762 -0.2500  0.0877  0.0104
  858loPI   C3B12041   2.167   4.112   7.138  0.0995  0.0671 -0.2000
  858loPI   C4B12042   2.067   4.416   7.588  0.1505 -0.0924 -0.3043
  859loPI    C112043   6.664   8.524   5.882 -0.2996 -0.2363  0.0383
  859loPI    C212044   7.006   8.661   5.726 -0.1738  0.0089  0.5086
  859loPI    C312045   6.715   8.527   5.486  0.1675 -0.0081  0.0935
  859loPI   PO412046   6.523   8.719   6.079  0.2092  0.3089  0.0565
  859loPI   GL112047   6.587   8.859   6.422 -0.0224 -0.0157  0.1276
  859loPI   GL212048   6.552   9.188   6.397 -0.1807  0.4040  0.1872
  859loPI   C1A12049   6.656   8.652   6.850  0.3564 -0.0705  0.4126
  859loPI   C2A12050   6.719   8.658   7.265 -0.0630  0.0085 -0.0575
  859loPI   C3A12051   6.973   8.486   7.594 -0.5723 -0.2338 -0.1516
  859loPI   C4A12052   6.882   8.413   8.061 -0.2500 -0.1913 -0.0559
  859loPI   C5A12053   7.006   8.646   8.403 -0.0243  0.0562 -0.0697
  859loPI   C6A12054   6.898   8.757   8.759 -0.0135  0.1031 -0.1804
  859loPI   C1B12055   6.643   9.202   6.761 -0.0197  0.2714 -0.1393
  859loPI   C2B12056   6.688   9.139   7.156 -0.1812 -0.2199  0.0032
  859loPI   C3B12057   6.597   9.023   7.523  0.1047 -0.1353 -0.2071
  859loPI   C4B12058   6.463   8.997   8.032 -0.0974 -0.2175  0.0825
  860loPI    C112059   3.549  14.856   5.650  0.1803 -0.2157  0.2438
  860loPI    C212060   3.208  14.725   5.486  0.0485 -0.0450  0.3778
  860loPI    C312061   3.555  14.676   5.292 -0.0842  0.0090  0.1227
  860loPI   PO412062   3.531  15.061   5.672 -0.3233  0.0152 -0.0944
  860loPI   GL112063   3.454  15.239   6.049 -0.1957 -0.0241 -0.1447
  860loPI   GL212064   3.401  14.905   6.105  0.0668 -0.2543  0.0108
  860loPI   C1A12065   3.324  15.203   6.493 -0.1254 -0.1702  0.3293
  860loPI   C2A12066   3.138  15.384   6.736 -0.2903 -0.0044  0.1086
  860loPI   C3A12067   3.056  15.478   7.162 -0.0027  0.0890  0.1709
  860loPI   C4A12068   3.107  15.472   7.592 -0.1387 -0.1064  0.0335
  860loPI   C5A12069   3.097  15.792   7.886  0.2850 -0.1935 -0.1992
  860loPI   C6A12070   2.795  15.715   8.214  0.1482 -0.2316  0.3485
  860loPI   C1B12071   3.345  14.695   6.431  0.0922  0.0719 -0.3060
  860loPI   C2B12072   3.514  14.645   6.835 -0.1139  0.1676  0.2757
  860loPI   C3B12073   3.605  14.516   7.209 -0.1907 -0.2863  0.3662
  860loPI   C4B12074   3.552  14.674   7.579 -0.2719  0.1438  0.2303
  861loPI    C112075  18.007  17.445   5.254  0.3263  0.2369 -0.1466
  861loPI    C212076  17.820  17.226   4.975 -0.1162  0.1905  0.1757
  861loPI    C312077  18.194  17.135   5.084 -0.1434 -0.1410  0.0021
  861loPI   PO412078  17.709  17.433   5.485  0.0691 -0.1860  0.1400
  861loPI   GL112079  17.607  17.693   5.753  0.1722  0.1184 -0.2922
  861loPI   GL212080  17.913  17.694   5.820  0.0925 -0.0025 -0.0684
  861loPI   C1A12081  17.317  17.611   6.145 -0.1583  0.0880  0.0715
  861loPI   C2A12082  17.513  17.822   6.548 -0.1235 -0.3014  0.0953
  861loPI   C3A12083  17.351  17.890   6.970  0.1494 -0.0305  0.1052
  861loPI   C4A12084  17.112  18.068   7.294 -0.2182 -0.0345  0.1202
  861loPI   C5A12085  16.769  17.938   7.540  0.2110 -0.2519  0.0993
  861loPI   C6A12086  16.341  17.856   7.764 -0.3745  0.1745  0.2486
  861loPI   C1B12087  17.919  17.580   6.304  0.0574 -0.2158 -0.0096
  861loPI   C2B12088  18.160  17.469   6.702 -0.2483 -0.0766 -0.1352
  861loPI   C3B12089  18.003  17.282   7.001  0.3258 -0.1253 -0.2189
  861loPI   C4B12090  18.077  16.946   7.260  0.2782 -0.2660 -0.1800
  862loPI    C112091   3.020   5.849   5.832 -0.0010 -0.1846  0.4399
  862loPI    C212092   2.725   6.111   5.897  0.0304  0.0635 -0.3147
  862loPI    C312093   2.650   5.770   5.702  0.1424 -0.1392 -0.0127
  862loPI   PO412094   3.219   5.885   6.062 -0.1446 -0.1696  0.1801
  862loPI   GL112095   3.097   5.867   6.435  0.1765  0.0886 -0.0012
  862loPI   GL212096   3.252   5.553   6.413 -0.1050 -0.0913 -0.1042
  862loPI   C1A12097   2.789   5.932   6.794  0.0760 -0.1584  0.1479
  862loPI   C2A12098   2.508   5.573   7.002 -0.2298  0.1704  0.1088
  862loPI   C3A12099   2.339   5.515   7.430  0.0820  0.2156  0.1670
  862loPI   C4A12100   2.484   5.736   7.694  0.1886 -0.4228 -0.1523
  862loPI   C5A12101   2.835   6.045   7.776  0.0768  0.2975 -0.2887
  862loPI   C6A12102   2.910   6.405   7.924  0.0788  0.0982 -0.1788
  862loPI   C1B12103   3.208   5.637   6.882 -0.3230 -0.1126 -0.0173
  862loPI   C2B12104   3.212   5.389   7.429 -0.2301 -0.1032  0.0910
  862loPI   C3B12105   3.336   5.284   7.855  0.0692  0.1710  0.0752
  862loPI   C4B12106   3.494   5.394   8.261  0.2266 -0.0267  0.1506
  863loPI    C112107  10.464  16.815   5.700 -0.0412 -0.0767 -0.3042
  863loPI    C212108  10.546  16.492   5.921  0.0179  0.1728  0.0458
  863loPI    C312109  10.768  16.576   5.599 -0.0485 -0.1759 -0.0949
  863loPI   PO412110  10.387  16.986   5.879 -0.0490 -0.1550  0.3548
  863loPI   GL112111   9.998  16.986   6.140 -0.0752  0.0921  0.2149
  863loPI   GL212112   9.720  16.840   6.052 -0.1068 -0.2268 -0.1384
  863loPI   C1A12113  10.017  16.837   6.568  0.0861  0.3644 -0.2448
  863loPI   C2A12114   9.859  16.937   6.927 -0.1010  0.2056  0.1788
  863loPI   C3A12115   9.662  17.039   7.299  0.2098  0.0466 -0.1623
  863loPI   C4A12116   9.415  17.044   7.593  0.1152  0.0331  0.3998
  863loPI   C5A12117   9.198  16.906   8.015 -0.1752  0.0904 -0.0658
  863loPI   C6A12118   9.522  16.691   8.267  0.0005  0.1581 -0.1147
  863loPI   C1B12119   9.447  16.859   6.423  0.0113  0.1391  0.1086
  863loPI   C2B12120   9.290  16.641   6.706  0.0066  0.0265  0.1202
  863loPI   C3B12121   9.265  16.585   7.117 -0.2485  0.2591 -0.1585
  863loPI   C4B12122   9.521  16.571   7.363  0.2967  0.0258  0.1562
  864loPI    C112123  10.087   1.805   5.191  0.1487  0.1928 -0.1267
  864loPI    C212124   9.972   2.187   5.160  0.0544  0.1851  0.1072
  864loPI    C312125   9.717   1.912   5.299  0.0171 -0.0228 -0.3523
  864loPI   PO412126  10.301   1.736   5.386 -0.1430  0.1001 -0.0313
  864loPI   GL112127  10.394   2.037   5.790  0.2953 -0.3254 -0.0721
  864loPI   GL212128  10.427   1.755   5.888  0.1951 -0.0705  0.1703
  864loPI   C1A12129  10.847   2.052   5.889  0.3253 -0.3404  0.0061
  864loPI   C2A12130  10.935   2.008   6.318  0.0245  0.2034  0.3916
  864loPI   C3A12131  11.037   2.060   6.749  0.0604 -0.0816 -0.1302
  864loPI   C4A12132  11.335   2.154   7.036 -0.0456  0.0982 -0.1540
  864loPI   C5A12133  11.635   2.182   7.316 -0.1792  0.5188 -0.1669
  864loPI   C6A12134  11.928   2.361   7.389  0.0665 -0.1997 -0.0525
  864loPI   C1B12135  10.448   1.834   6.315 -0.4794  0.4313 -0.3559
  864loPI   C2B12136  10.603   1.860   6.755  0.4193 -0.1045 -0.0507
  864loPI   C3B12137  10.634   2.003   7.137  0.1330  0.3279  0.1596
  864loPI   C4B12138  10.590   2.121   7.583 -0.0057 -0.0984 -0.2333
  865loPI    C112139   4.969  14.179   5.716  0.0490  0.3793  0.2063
  865loPI    C212140   5.133  14.334   5.386  0.1942  0.0015  0.0962
  865loPI    C312141   5.195  14.508   5.741  0.0128  0.4277 -0.0745
  865loPI   PO412142   5.096  13.914   5.785 -0.0057 -0.2083 -0.0218
  865loPI   GL112143   5.048  13.747   6.105 -0.1427 -0.0638 -0.0474
  865loPI   GL212144   5.256  13.653   6.346  0.0507  0.2024  0.2247
  865loPI   C1A12145   4.798  13.614   6.420  0.0184  0.1067  0.1069
  865loPI   C2A12146   4.707  13.540   6.833  0.0184 -0.1635 -0.3279
  865loPI   C3A12147   4.427  13.490   7.252  0.0376 -0.0339 -0.0214
  865loPI   C4A12148   4.218  13.409   7.630  0.0641  0.1948  0.1133
  865loPI   C5A12149   4.009  13.399   8.017  0.0475  0.0593  0.0715
  865loPI   C6A12150   3.661  13.519   7.897  0.0099  0.1017  0.2148
  865loPI   C1B12151   5.184  13.817   6.630  0.0377 -0.1090  0.0012
  865loPI   C2B12152   5.301  14.232   6.824 -0.0600  0.3615 -0.1653
  865loPI   C3B12153   4.965  14.480   6.932 -0.0857 -0.0893 -0.2273
  865loPI   C4B12154   4.745  14.715   6.721  0.0984 -0.0260  0.0120
  866loPI    C112155  10.687  11.800   5.772 -0.1033 -0.1246 -0.0117
  866loPI    C212156  10.839  11.876   5.410 -0.2121  0.0386 -0.0237
  866loPI    C312157  10.681  11.517   5.489 -0.0095 -0.0630 -0.0754
  866loPI   PO412158  10.847  11.790   5.980  0.2272  0.1825 -0.3088
  866loPI   GL112159  10.884  11.849   6.437  0.0615  0.1297 -0.0533
  866loPI   GL212160  10.765  12.016   6.537 -0.0230  0.3347 -0.2834
  866loPI   C1A12161  10.828  11.561   6.789  0.2372 -0.0001  0.1853
  866loPI   C2A12162  10.728  11.545   7.223  0.1147 -0.2569  0.1165
  866loPI   C3A12163  10.754  11.721   7.684 -0.1169 -0.2488  0.3065
  866loPI   C4A12164  10.388  11.654   7.966 -0.1352  0.2559 -0.4938
  866loPI   C5A12165   9.912  11.607   8.099  0.1317 -0.1117  0.0714
  866loPI   C6A12166   9.486  11.676   8.197 -0.1759 -0.0494  0.1223
  866loPI   C1B12167  10.683  12.075   6.958  0.1266 -0.0986 -0.0871
  866loPI   C2B12168  10.662  12.059   7.304  0.1835  0.0826  0.1377
  866loPI   C3B12169  10.627  12.322   7.618 -0.0118 -0.3102 -0.1696
  866loPI   C4B12170  10.606  12.297   8.037 -0.0550  0.0698  0.4284
  867loPI    C112171  12.965   5.464   5.502  0.0265  0.0237  0.0388
  867loPI    C212172  13.223   5.302   5.242 -0.0835 -0.0405 -0.0312
  867loPI    C312173  13.238   5.694   5.322  0.0293 -0.0424 -0.0419
  867loPI   PO412174  13.012   5.392   5.726 -0.1956 -0.1432  0.0500
  867loPI   GL112175  12.939   5.375   6.108  0.1004 -0.0602 -0.1182
  867loPI   GL212176  12.845   5.084   6.052 -0.1403  0.0516  0.2523
  867loPI   C1A12177  12.553   5.480   6.384 -0.0691  0.0839  0.2602
  867loPI   C2A12178  12.452   5.378   6.879 -0.1664 -0.0738 -0.1183
  867loPI   C3A12179  12.728   5.048   7.028 -0.0961 -0.1958  0.0225
  867loPI   C4A12180  12.821   4.912   7.423  0.0529 -0.1561  0.3781
  867loPI   C5A12181  12.844   4.723   7.786 -0.2008  0.0477  0.2618
  867loPI   C6A12182  13.160   4.744   8.061  0.1885  0.0129  0.0093
  867loPI   C1B12183  13.148   5.098   6.522 -0.1692 -0.2500 -0.1160
  867loPI   C2B12184  13.297   4.808   6.803  0.0102  0.1288  0.2130
  867loPI   C3B12185  13.306   4.613   7.183  0.1823 -0.2020  0.2760
  867loPI   C4B12186  13.217   4.477   7.570  0.0908 -0.1915  0.0211
  868loPI    C112187  17.886  15.709   5.237 -0.1319  0.0424 -0.0185
  868loPI    C212188  17.489  15.746   5.269 -0.1444 -0.0761 -0.0312
  868loPI    C312189  17.650  15.617   4.927 -0.1053 -0.1734  0.0236
  868loPI   PO412190  17.972  15.664   5.561 -0.1155  0.0489 -0.1000
  868loPI   GL112191  18.107  15.868   5.869 -0.2243 -0.1244 -0.1086
  868loPI   GL212192  17.812  16.151   5.909 -0.1608 -0.0121 -0.0662
  868loPI   C1A12193  18.242  15.677   6.313  0.1994  0.0560  0.5157
  868loPI   C2A12194  18.399  15.746   6.711 -0.0133  0.3129 -0.0213
  868loPI   C3A12195  18.152  16.029   6.906 -0.1091 -0.1071  0.2045
  868loPI   C4A12196  17.863  16.342   7.052 -0.0159 -0.3181 -0.0880
  868loPI   C5A12197  17.886  16.501   7.457 -0.2650 -0.0139 -0.2794
  868loPI   C6A12198  18.155  16.721   7.698 -0.1448  0.0104  0.0097
  868loPI   C1B12199  17.821  15.990   6.258  0.1067  0.1109  0.1332
  868loPI   C2B12200  17.694  15.969   6.632 -0.1143 -0.0795  0.4805
  868loPI   C3B12201  17.491  16.041   7.021 -0.0958 -0.0378  0.1777
  868loPI   C4B12202  17.518  16.188   7.481 -0.2555 -0.0440 -0.2701
  869loPI    C112203   2.500   3.502   5.707 -0.4538 -0.0681  0.1446
  869loPI    C212204   2.553   3.432   5.317 -0.1884 -0.3621  0.2286
  869loPI    C312205   2.600   3.802   5.463  0.1400 -0.3297  0.0497
  869loPI   PO412206   2.372   3.290   5.719 -0.0291  0.2642  0.0031
  869loPI   GL112207   2.301   3.140   6.089  0.2456  0.2110 -0.1491
  869loPI   GL212208   2.544   3.355   6.234  0.2702 -0.2669  0.1259
  869loPI   C1A12209   2.238   3.181   6.619  0.2582  0.0098  0.1893
  869loPI   C2A12210   2.282   3.096   7.003  0.1517  0.2896  0.0180
  869loPI   C3A12211   2.319   3.315   7.329  0.3538  0.1013  0.0301
  869loPI   C4A12212   2.338   3.487   7.796  0.4396  0.1250 -0.1535
  869loPI   C5A12213   2.369   3.867   8.151 -0.0514  0.3812 -0.0475
  869loPI   C6A12214   2.527   4.138   8.406  0.1451 -0.1806 -0.0886
  869loPI   C1B12215   2.683   3.059   6.525  0.2234  0.0169  0.0487
  869loPI   C2B12216   2.637   2.735   6.804 -0.2184 -0.0333 -0.0180
  869loPI   C3B12217   2.523   2.551   7.170 -0.1200 -0.1011  0.3127
  869loPI   C4B12218   2.671   2.429   7.476 -0.2193 -0.0616  0.0562
  870loPI    C112219   9.872   7.855   5.727  0.1400 -0.1496  0.1678
  870loPI    C212220   9.836   8.180   5.958  0.1990 -0.2610  0.3356
  870loPI    C312221  10.043   8.199   5.617 -0.0522 -0.0449  0.1918
  870loPI   PO412222   9.850   7.614   5.900  0.1396  0.1371  0.2010
  870loPI   GL112223   9.851   7.455   6.314  0.0651  0.3767 -0.1674
  870loPI   GL212224   9.657   7.641   6.345 -0.0147 -0.0312  0.0624
  870loPI   C1A12225   9.510   7.183   6.509  0.0192  0.1950  0.3949
  870loPI   C2A12226   9.585   7.043   6.847  0.0139 -0.0042  0.0730
  870loPI   C3A12227   9.636   7.136   7.238  0.2461 -0.2453  0.1074
  870loPI   C4A12228   9.542   7.018   7.614 -0.2749 -0.0390  0.1630
  870loPI   C5A12229   9.456   6.835   8.002 -0.1675  0.0354 -0.2969
  870loPI   C6A12230   9.308   6.714   8.454  0.0438  0.0694 -0.2352
  870loPI   C1B12231   9.732   7.515   6.776  0.2460  0.2629 -0.2943
  870loPI   C2B12232   9.753   7.648   7.253 -0.0659 -0.1756 -0.2007
  870loPI   C3B12233   9.739   7.554   7.661  0.2092 -0.2247  0.2563
  870loPI   C4B12234   9.573   7.351   8.087 -0.0033  0.1116  0.0079
  871loPI    C112235   7.547   9.203   6.210 -0.2200  0.1429  0.0785
  871loPI    C212236   7.520   9.505   5.949 -0.0551  0.1373  0.0536
  871loPI    C312237   7.875   9.406   6.105 -0.0714 -0.1822 -0.1034
  871loPI   PO412238   7.445   9.218   6.426  0.0276  0.0685 -0.1825
  871loPI   GL112239   7.470   9.181   6.748 -0.2654 -0.0087 -0.4119
  871loPI   GL212240   7.805   9.032   6.800 -0.0742  0.1781 -0.2218
  871loPI   C1A12241   7.604   9.301   7.205  0.3315  0.1258  0.2899
  871loPI   C2A12242   8.043   9.341   7.329 -0.1396 -0.2143 -0.0782
  871loPI   C3A12243   8.442   9.550   7.534  0.2104  0.1454 -0.0482
  871loPI   C4A12244   8.738   9.653   7.823 -0.0232 -0.3664  0.0805
  871loPI   C5A12245   8.623   9.804   8.255  0.1554  0.1237 -0.3322
  871loPI   C6A12246   8.609   9.832   8.685 -0.2849  0.1347  0.1154
  871loPI   C1B12247   7.951   8.893   7.199  0.1032  0.3578 -0.2193
  871loPI   C2B12248   8.335   8.946   7.549 -0.0646 -0.0750  0.1731
  871loPI   C3B12249   8.305   9.207   7.996 -0.4020 -0.0740 -0.0003
  871loPI   C4B12250   8.314   8.905   8.371 -0.0351 -0.2562 -0.2295
  872loPI    C112251  18.147   8.303   5.446 -0.2252  0.0206 -0.0220
  872loPI    C212252  18.219   8.613   5.204 -0.2156 -0.0023 -0.0483
  872loPI    C312253  18.256   8.238   5.067  0.0458 -0.0185  0.0606
  872loPI   PO412254  18.290   8.420   5.639 -0.6146  0.1603 -0.2715
  872loPI   GL112255  18.396   8.560   6.036  0.1616  0.0577 -0.1610
  872loPI   GL212256  18.730   8.672   6.083  0.2314 -0.0556  0.1423
  872loPI   C1A12257  18.611   8.364   6.404 -0.0659 -0.0633  0.3030
  872loPI   C2A12258  18.774   8.487   6.804 -0.0210 -0.1471 -0.1324
  872loPI   C3A12259  18.992   8.823   7.091 -0.0252  0.1266  0.2582
  872loPI   C4A12260  18.816   8.916   7.503 -0.0837  0.6257 -0.1869
  872loPI   C5A12261  18.554   9.069   7.920  0.2457 -0.2917 -0.0264
  872loPI   C6A12262  18.578   8.913   8.274 -0.4366  0.2537  0.3337
  872loPI   C1B12263  18.612   8.873   6.538 -0.2050  0.1043 -0.1820
  872loPI   C2B12264  18.545   8.896   6.990 -0.2017 -0.2312 -0.3685
  872loPI   C3B12265  18.372   9.100   7.319  0.0389  0.0233 -0.0822
  872loPI   C4B12266  18.404   9.520   7.597 -0.0708 -0.1379 -0.0420
  873loPI    C112267  14.764  15.967   5.566  0.1147 -0.1627  0.0552
  873loPI    C212268  14.653  15.891   5.190 -0.1530 -0.5074  0.1975
  873loPI    C312269  14.931  15.663   5.366  0.5575  0.1320 -0.0382
  873loPI   PO412270  14.482  15.978   5.705  0.0637 -0.1146 -0.3261
  873loPI   GL112271  14.211  16.042   6.099  0.0399 -0.1506  0.0753
  873loPI   GL212272  14.196  16.283   6.344 -0.0882 -0.0892 -0.1673
  873loPI   C1A12273  14.273  15.596   6.345 -0.0692 -0.1138 -0.2952
  873loPI   C2A12274  13.926  15.422   6.644 -0.1572 -0.0223  0.4537
  873loPI   C3A12275  13.772  15.673   7.054  0.2551 -0.4021 -0.1710
  873loPI   C4A12276  13.776  15.597   7.461  0.2573 -0.0897  0.2628
  873loPI   C5A12277  13.601  15.424   7.836 -0.2347  0.1750  0.0056
  873loPI   C6A12278  13.823  15.281   8.179 -0.2585 -0.1220  0.2867
  873loPI   C1B12279  14.402  16.347   6.731  0.4508  0.4196  0.0516
  873loPI   C2B12280  14.389  16.396   7.076  0.0870  0.0485 -0.0118
  873loPI   C3B12281  14.258  16.358   7.528 -0.1367  0.2181  0.0555
  873loPI   C4B12282  14.368  16.319   7.911 -0.1156 -0.4085  0.1269
  874loPI    C112283   7.541   2.050   5.665  0.1042 -0.0714 -0.0131
  874loPI    C212284   7.186   2.091   5.484 -0.0899 -0.2531  0.3171
  874loPI    C312285   7.501   2.303   5.357 -0.3209 -0.0692  0.0378
  874loPI   PO412286   7.492   1.983   5.880  0.0933  0.0350 -0.2050
  874loPI   GL112287   7.719   1.711   6.316  0.0123  0.0617  0.0421
  874loPI   GL212288   7.927   1.990   6.354 -0.1053 -0.1220 -0.1609
  874loPI   C1A12289   7.880   1.350   6.584  0.0942 -0.2817 -0.0352
  874loPI   C2A12290   7.929   1.333   6.983 -0.2241  0.0689  0.1352
  874loPI   C3A12291   8.090   1.545   7.287 -0.1150 -0.3812 -0.2690
  874loPI   C4A12292   7.982   1.595   7.738 -0.4221 -0.2288  0.0762
  874loPI   C5A12293   8.078   1.523   8.185 -0.3329  0.0385 -0.0021
  874loPI   C6A12294   8.090   1.304   8.634 -0.0470 -0.0089 -0.3699
  874loPI   C1B12295   7.928   2.259   6.778 -0.0089  0.1094  0.0037
  874loPI   C2B12296   7.868   2.383   7.272 -0.1820 -0.1685  0.1476
  874loPI   C3B12297   7.929   2.410   7.741  0.2470 -0.1428 -0.0385
  874loPI   C4B12298   7.663   2.483   8.080  0.0853 -0.2417 -0.2288
  875loPI    C112299   6.748   5.227   5.633 -0.3199 -0.0529 -0.0550
  875loPI    C212300   6.740   5.161   5.239  0.0519  0.1835 -0.1077
  875loPI    C312301   7.052   5.036   5.456 -0.0315  0.2799  0.0699
  875loPI   PO412302   6.454   5.104   5.734 -0.0201 -0.0660 -0.2202
  875loPI   GL112303   6.409   5.084   6.136 -0.1104 -0.4238 -0.1765
  875loPI   GL212304   6.623   5.237   6.256  0.1041 -0.2366 -0.2463
  875loPI   C1A12305   6.212   5.074   6.543  0.0506  0.2636  0.1539
  875loPI   C2A12306   6.151   4.978   6.941 -0.1813 -0.0789  0.1573
  875loPI   C3A12307   6.093   5.160   7.279  0.1024 -0.1773 -0.0441
  875loPI   C4A12308   5.980   5.318   7.712  0.2207  0.0031 -0.1985
  875loPI   C5A12309   5.760   5.168   8.157  0.0163 -0.1238 -0.1255
  875loPI   C6A12310   5.410   4.911   8.320 -0.0342 -0.1618 -0.0134
  875loPI   C1B12311   6.592   5.439   6.658 -0.1508  0.2159  0.3196
  875loPI   C2B12312   6.308   5.685   6.987  0.1951 -0.1427  0.0962
  875loPI   C3B12313   6.026   5.658   7.191 -0.0487 -0.1305  0.4161
  875loPI   C4B12314   5.666   5.539   7.196  0.1396  0.2662  0.1598
  876loPI    C112315   7.565   3.848   5.927  0.0330  0.1379 -0.1130
  876loPI    C212316   7.492   3.861   5.534 -0.0074 -0.1161 -0.1158
  876loPI    C312317   7.814   3.668   5.672  0.0380  0.0213 -0.0269
  876loPI   PO412318   7.307   3.845   6.041  0.3123  0.1610  0.2731
  876loPI   GL112319   7.182   4.098   6.252 -0.0462  0.0567 -0.4778
  876loPI   GL212320   7.199   4.481   6.203  0.0068  0.0744 -0.0650
  876loPI   C1A12321   7.317   4.141   6.619 -0.2230 -0.1418 -0.4029
  876loPI   C2A12322   7.281   4.054   7.032 -0.2995 -0.1531 -0.1754
  876loPI   C3A12323   7.387   4.025   7.412  0.4132 -0.0647  0.3921
  876loPI   C4A12324   7.386   4.181   7.818 -0.3239  0.1758 -0.0670
  876loPI   C5A12325   7.423   4.552   8.090  0.0806  0.0932  0.1558
  876loPI   C6A12326   7.476   4.266   8.473  0.1780 -0.1905  0.2229
  876loPI   C1B12327   7.246   4.703   6.604  0.0530 -0.0694 -0.0988
  876loPI   C2B12328   7.189   4.566   6.979  0.2321 -0.0416 -0.2421
  876loPI   C3B12329   6.837   4.803   7.307  0.1371  0.2252  0.2467
  876loPI   C4B12330   6.539   5.003   7.500  0.0506 -0.4471  0.2817
  877loPI    C112331  12.295  14.625   5.787 -0.1044  0.1245  0.0249
  877loPI    C212332  12.689  14.573   5.832 -0.1101  0.0411 -0.0204
  877loPI    C312333  12.437  14.274   5.917 -0.1678  0.1144  0.0672
  877loPI   PO412334  12.319  15.017   5.752  0.0846 -0.0162 -0.1332
  877loPI   GL112335  12.553  14.986   6.122 -0.0119 -0.1789  0.1895
  877loPI   GL212336  12.237  14.923   6.216 -0.2109  0.1408  0.5432
  877loPI   C1A12337  12.717  15.132   6.449  0.2690  0.0088  0.0374
  877loPI   C2A12338  12.914  15.092   6.900  0.0445 -0.2182  0.0597
  877loPI   C3A12339  13.161  15.059   7.205  0.1644 -0.0600  0.3121
  877loPI   C4A12340  13.449  15.000   7.541 -0.4377 -0.1467  0.0208
  877loPI   C5A12341  13.555  14.875   7.915 -0.1943  0.0375 -0.0171
  877loPI   C6A12342  13.495  14.822   8.373  0.1078  0.1305 -0.5113
  877loPI   C1B12343  12.273  15.019   6.591  0.0480  0.0761 -0.0877
  877loPI   C2B12344  12.394  14.983   6.954  0.1963  0.1627  0.0680
  877loPI   C3B12345  12.632  15.047   7.272  0.3272 -0.1434  0.1857
  877loPI   C4B12346  12.401  15.271   7.688 -0.0129  0.1803  0.2078
  878loPI    C112347   3.006   2.543   6.008 -0.2710 -0.0673  0.0982
  878loPI    C212348   2.998   2.832   6.286 -0.0916  0.0919 -0.0589
  878loPI    C312349   2.733   2.835   5.986 -0.3330 -0.1213  0.1470
  878loPI   PO412350   3.288   2.431   5.964 -0.1794  0.1559  0.4411
  878loPI   GL112351   3.612   2.722   6.197  0.1562  0.3490 -0.3355
  878loPI   GL212352   3.740   2.423   6.309 -0.1739  0.0087 -0.0453
  878loPI   C1A12353   3.458   2.717   6.565 -0.0149  0.1565  0.2759
  878loPI   C2A12354   3.293   2.632   6.982  0.4109 -0.0358  0.1161
  878loPI   C3A12355   3.089   2.612   7.339  0.0364 -0.1538 -0.2592
  878loPI   C4A12356   2.817   2.868   7.566  0.0948 -0.0203  0.0619
  878loPI   C5A12357   2.658   3.003   7.973  0.0137 -0.0483  0.1248
  878loPI   C6A12358   2.565   3.355   8.244 -0.0361  0.0449 -0.0178
  878loPI   C1B12359   4.085   2.453   6.586  0.0256  0.2524 -0.2148
  878loPI   C2B12360   4.209   2.619   6.980 -0.0267  0.0065 -0.2163
  878loPI   C3B12361   4.251   2.752   7.438  0.3330  0.1140  0.1145
  878loPI   C4B12362   4.444   2.822   7.856  0.2024  0.2042 -0.1248
  879loPI    C112363   0.893   5.105   5.757  0.0769 -0.0730 -0.0073
  879loPI    C212364   0.894   4.860   6.073  0.1186 -0.0819 -0.0143
  879loPI    C312365   0.934   4.711   5.704  0.0419 -0.0743 -0.0259
  879loPI   PO412366   0.938   5.365   5.941 -0.1467 -0.0757 -0.1476
  879loPI   GL112367   0.881   5.457   6.368 -0.0832  0.4533  0.4506
  879loPI   GL212368   1.136   5.247   6.371  0.2444 -0.2866  0.1145
  879loPI   C1A12369   0.683   5.388   6.833  0.1209 -0.1205  0.2783
  879loPI   C2A12370   0.624   5.371   7.184 -0.0965  0.5714 -0.1180
  879loPI   C3A12371   0.762   5.301   7.625  0.1142 -0.1249 -0.1318
  879loPI   C4A12372   0.650   5.454   8.079  0.0217  0.0026  0.1439
  879loPI   C5A12373   0.778   5.594   8.411  0.0255  0.0246  0.3367
  879loPI   C6A12374   0.879   6.047   8.566 -0.0871 -0.1047  0.1561
  879loPI   C1B12375   1.187   5.381   6.790 -0.1885  0.2765 -0.1630
  879loPI   C2B12376   1.118   5.470   7.159  0.2451  0.1903  0.0287
  879loPI   C3B12377   1.187   5.626   7.467 -0.0409 -0.4582 -0.0287
  879loPI   C4B12378   1.426   5.789   7.879 -0.0435  0.0979  0.1601
  880loPI    C112379  13.179   1.350   5.213  0.1623  0.1252  0.0547
  880loPI    C212380  13.552   1.321   5.072  0.1270 -0.0780 -0.0008
  880loPI    C312381  13.254   1.424   4.827  0.1335  0.0055  0.0258
  880loPI   PO412382  13.233   1.457   5.539 -0.1567  0.2832 -0.0742
  880loPI   GL112383  13.277   1.387   5.902  0.0467 -0.0075 -0.2125
  880loPI   GL212384  13.554   1.492   5.933 -0.0350  0.1439 -0.2587
  880loPI   C1A12385  13.142   1.276   6.242  0.3571 -0.0279 -0.1633
  880loPI   C2A12386  13.046   1.253   6.688 -0.1733 -0.0443 -0.0891
  880loPI   C3A12387  13.091   1.201   7.132 -0.0229  0.1094  0.1226
  880loPI   C4A12388  13.019   1.085   7.464  0.1587 -0.1026  0.2831
  880loPI   C5A12389  12.833   0.828   7.749 -0.0060  0.1506 -0.0181
  880loPI   C6A12390  12.628   0.594   8.019  0.1146 -0.0501 -0.2833
  880loPI   C1B12391  13.579   1.484   6.366  0.0775  0.0795 -0.0426
  880loPI   C2B12392  13.468   1.552   6.832 -0.0766  0.0713  0.1099
  880loPI   C3B12393  13.416   1.640   7.195  0.3950  0.0944 -0.2301
  880loPI   C4B12394  13.381   1.383   7.578  0.5280 -0.3040 -0.1678
  881loPI    C112395  14.777  17.673   4.974 -0.2350  0.0023  0.0748
  881loPI    C212396  14.399  17.616   4.855 -0.0944 -0.1280 -0.3237
  881loPI    C312397  14.557  17.984   4.851 -0.2461 -0.0579 -0.0598
  881loPI   PO412398  14.834  17.561   5.235 -0.0992  0.0653  0.3532
  881loPI   GL112399  14.868  17.781   5.699  0.3390 -0.2257 -0.0215
  881loPI   GL212400  15.184  17.639   5.590  0.2202 -0.1342  0.1758
  881loPI   C1A12401  14.812  17.852   6.159  0.2419 -0.0519  0.2836
  881loPI   C2A12402  14.837  17.849   6.531 -0.2117 -0.0089  0.1665
  881loPI   C3A12403  14.809  17.809   6.987  0.3783 -0.0703 -0.0840
  881loPI   C4A12404  14.878  17.641   7.376 -0.3983 -0.0454  0.2890
  881loPI   C5A12405  14.840  17.504   7.766  0.2173 -0.2338  0.2607
  881loPI   C6A12406  14.554  17.355   7.892  0.2162 -0.1628 -0.1266
  881loPI   C1B12407  15.306  17.727   5.958  0.1719 -0.0854  0.0260
  881loPI   C2B12408  15.348  17.926   6.272  0.2516 -0.0980 -0.4041
  881loPI   C3B12409  15.281  17.921   6.661 -0.3932 -0.1013 -0.0300
  881loPI   C4B12410  15.344  17.773   7.075  0.0375 -0.0391 -0.0211
  882loPI    C112411   8.652  10.449   5.815 -0.0087  0.0103  0.0699
  882loPI    C212412   8.930  10.682   5.646 -0.2071  0.2470  0.0636
  882loPI    C312413   8.557  10.677   5.500 -0.1862 -0.1419  0.0110
  882loPI   PO412414   8.691  10.477   6.056  0.0537 -0.1215 -0.3124
  882loPI   GL112415   8.387  10.511   6.418 -0.1277 -0.2548 -0.0427
  882loPI   GL212416   8.316  10.280   6.847  0.1870  0.2618  0.1233
  882loPI   C1A12417   8.706  10.748   6.804 -0.0862  0.2394  0.0012
  882loPI   C2A12418   8.697  10.854   7.274 -0.3282  0.2360  0.2475
  882loPI   C3A12419   8.913  10.657   7.666 -0.3769 -0.0910 -0.1491
  882loPI   C4A12420   8.873  10.627   8.071 -0.2090 -0.1774 -0.1266
  882loPI   C5A12421   8.955  10.790   8.510  0.0053 -0.1771 -0.1195
  882loPI   C6A12422   8.843  10.705   8.970 -0.0990 -0.3306 -0.3011
  882loPI   C1B12423   8.528  10.409   7.206 -0.0853  0.2179  0.3120
  882loPI   C2B12424   8.300  10.614   7.641 -0.2467 -0.1526  0.1510
  882loPI   C3B12425   8.401  10.783   8.024  0.1927 -0.2851  0.3276
  882loPI   C4B12426   8.400  10.703   8.423  0.3665 -0.2714  0.1247
  883loPI    C112427  16.071   1.491   4.984  0.0636 -0.1353  0.0847
  883loPI    C212428  15.902   1.212   4.752  0.1671  0.0172 -0.1785
  883loPI    C312429  16.298   1.268   4.741  0.1981 -0.1053  0.1817
  883loPI   PO412430  16.065   1.474   5.225  0.1278 -0.2117  0.1476
  883loPI   GL112431  15.870   1.366   5.594 -0.0305 -0.0632  0.1444
  883loPI   GL212432  15.837   1.053   5.507  0.0550  0.1155  0.0588
  883loPI   C1A12433  16.108   1.255   5.918  0.1042  0.0957  0.2765
  883loPI   C2A12434  15.927   1.198   6.273 -0.1314 -0.0530 -0.0545
  883loPI   C3A12435  15.917   1.170   6.673 -0.1353 -0.0745 -0.1332
  883loPI   C4A12436  15.892   1.251   7.163  0.2307 -0.0940 -0.2161
  883loPI   C5A12437  15.902   1.126   7.576 -0.3424 -0.1402 -0.1295
  883loPI   C6A12438  15.930   0.973   7.986 -0.2706 -0.0558 -0.1129
  883loPI   C1B12439  15.981   0.780   5.945 -0.1247  0.2039 -0.2879
  883loPI   C2B12440  16.127   0.516   6.248 -0.2394 -0.0866 -0.1107
  883loPI   C3B12441  15.932   0.295   6.634  0.1944  0.3434 -0.1198
  883loPI   C4B12442  16.150   0.434   6.994  0.1154  0.1205 -0.0858
  884loPI    C112443   7.830   5.807   5.884 -0.3845 -0.0947  0.0102
  884loPI    C212444   7.745   5.499   6.125  0.0613 -0.2994 -0.0823
  884loPI    C312445   8.126   5.595   6.050 -0.0717  0.2080 -0.1472
  884loPI   PO412446   7.628   5.801   5.783  0.1488  0.2800  0.0306
  884loPI   GL112447   7.321   5.757   5.883 -0.0259 -0.2436 -0.4084
  884loPI   GL212448   7.073   5.518   6.008  0.1764 -0.5036  0.0939
  884loPI   C1A12449   7.340   5.630   6.350 -0.1888  0.0870 -0.0588
  884loPI   C2A12450   7.136   5.790   6.603  0.0162 -0.0689 -0.3285
  884loPI   C3A12451   6.716   5.915   6.811  0.4885 -0.0841  0.4208
  884loPI   C4A12452   6.622   5.984   7.210 -0.1891  0.0367 -0.2552
  884loPI   C5A12453   6.837   5.908   7.561  0.1706  0.2464 -0.0955
  884loPI   C6A12454   7.136   5.697   7.623 -0.2352  0.0071 -0.0552
  884loPI   C1B12455   6.723   5.836   6.317  0.1180 -0.0848 -0.1755
  884loPI   C2B12456   6.256   5.841   6.468 -0.1286  0.4602  0.2589
  884loPI   C3B12457   5.956   5.576   6.629 -0.0618  0.0430  0.2449
  884loPI   C4B12458   5.515   5.697   6.676 -0.3155  0.1031 -0.0205
  885loPI    C112459   0.653  14.305   5.262 -0.2297  0.0868  0.2465
  885loPI    C212460   0.994  14.515   5.260  0.0785 -0.3964  0.1564
  885loPI    C312461   0.742  14.539   4.950  0.0778 -0.1188  0.1756
  885loPI   PO412462   0.510  14.426   5.495  0.0472 -0.0191 -0.2142
  885loPI   GL112463   0.544  14.253   5.927  0.1612 -0.1507  0.0458
  885loPI   GL212464   0.412  14.500   6.122 -0.0486  0.0424  0.1038
  885loPI   C1A12465   0.879  14.229   6.266 -0.0497  0.0799  0.2373
  885loPI   C2A12466   1.077  14.431   6.753  0.2713 -0.4893  0.2055
  885loPI   C3A12467   1.077  14.579   7.189  0.2954  0.3578  0.1317
  885loPI   C4A12468   0.927  14.587   7.635  0.2025  0.1741 -0.1998
  885loPI   C5A12469   0.576  14.511   7.901 -0.0765 -0.1610  0.2053
  885loPI   C6A12470   0.366  14.192   7.824 -0.0068  0.4458 -0.2029
  885loPI   C1B12471   0.555  14.471   6.548  0.0217  0.1106  0.0675
  885loPI   C2B12472   0.636  14.460   7.018 -0.1522 -0.2193  0.2674
  885loPI   C3B12473   0.460  14.412   7.413 -0.0745  0.0097  0.1451
  885loPI   C4B12474   0.025  14.571   7.592 -0.2755  0.3400  0.0651
  886loPI    C112475  14.750   8.036   6.003  0.0076  0.1680 -0.0337
  886loPI    C212476  14.419   7.903   5.822  0.1369 -0.0943 -0.0824
  886loPI    C312477  14.521   8.289   5.795 -0.1775 -0.0059 -0.0441
  886loPI   PO412478  14.776   7.869   6.212  0.0852  0.0205 -0.1168
  886loPI   GL112479  14.577   7.856   6.634  0.0081 -0.0386 -0.1238
  886loPI   GL212480  14.786   8.159   6.711  0.2093 -0.1132 -0.1109
  886loPI   C1A12481  14.350   7.578   7.019  0.0383 -0.0541  0.0739
  886loPI   C2A12482  14.360   7.544   7.474 -0.0980 -0.1620  0.2533
  886loPI   C3A12483  14.404   7.676   7.898 -0.0787 -0.2618 -0.2080
  886loPI   C4A12484  14.696   7.507   8.156  0.1829  0.1195 -0.0173
  886loPI   C5A12485  14.793   7.063   8.455  0.0050 -0.1357  0.1191
  886loPI   C6A12486  15.010   6.632   8.662 -0.4280 -0.1247  0.0461
  886loPI   C1B12487  14.947   8.201   7.201 -0.1774  0.1466  0.1100
  886loPI   C2B12488  14.929   8.236   7.616 -0.2304  0.2286 -0.1797
  886loPI   C3B12489  15.040   8.375   8.023  0.2646 -0.1420  0.1640
  886loPI   C4B12490  14.842   8.604   8.352 -0.1190 -0.0522 -0.5004
  887loPI    C112491  10.601   5.918   6.218  0.0244 -0.1127 -0.0215
  887loPI    C212492  10.298   5.862   5.963  0.0184  0.1032 -0.0632
  887loPI    C312493  10.584   6.130   5.879  0.1066  0.0539  0.0773
  887loPI   PO412494  10.625   5.717   6.314  0.1988  0.0657  0.2063
  887loPI   GL112495  10.730   5.537   6.676 -0.1925  0.0646  0.0288
  887loPI   GL212496  10.992   5.641   6.692  0.1212  0.1219  0.2356
  887loPI   C1A12497  10.656   5.645   7.133  0.0360 -0.2616 -0.0228
  887loPI   C2A12498  10.577   5.687   7.594 -0.1189 -0.0125  0.3054
  887loPI   C3A12499  10.393   5.520   7.921 -0.4323 -0.2179 -0.2089
  887loPI   C4A12500  10.441   5.536   8.295 -0.0592 -0.3269 -0.0639
  887loPI   C5A12501  10.428   5.901   8.493  0.0015  0.2808 -0.1267
  887loPI   C6A12502  10.531   6.394   8.600  0.0532  0.1989 -0.0852
  887loPI   C1B12503  11.255   5.536   7.052 -0.0782  0.2194 -0.1006
  887loPI   C2B12504  11.338   5.244   7.282  0.1700  0.0615 -0.3945
  887loPI   C3B12505  11.430   4.921   7.552 -0.1085 -0.2095 -0.1705
  887loPI   C4B12506  11.440   4.698   7.913 -0.0784  0.1968  0.1937
  888loPI    C112507  14.564   1.236   5.258  0.1165  0.0633 -0.2166
  888loPI    C212508  14.331   1.033   5.004 -0.1262  0.1155 -0.0393
  888loPI    C312509  14.481   1.388   4.898  0.0442 -0.0120 -0.2321
  888loPI   PO412510  14.676   1.035   5.352 -0.0420 -0.3086  0.2097
  888loPI   GL112511  15.069   0.996   5.634 -0.2807 -0.2413 -0.1945
  888loPI   GL212512  15.279   1.130   5.540  0.1202  0.2734 -0.1147
  888loPI   C1A12513  15.022   0.977   6.100 -0.0756 -0.1159  0.1126
  888loPI   C2A12514  15.047   1.030   6.499  0.0109 -0.1419 -0.0494
  888loPI   C3A12515  15.161   1.058   6.931  0.2372  0.0081 -0.2609
  888loPI   C4A12516  15.345   1.108   7.319  0.3989  0.2274 -0.1928
  888loPI   C5A12517  15.403   1.131   7.764 -0.2322 -0.0389  0.1759
  888loPI   C6A12518  15.332   1.448   8.153 -0.0709  0.2688  0.2072
  888loPI   C1B12519  15.512   1.197   5.974  0.4170  0.1483 -0.4450
  888loPI   C2B12520  15.497   1.296   6.446 -0.0472 -0.0991 -0.3304
  888loPI   C3B12521  15.571   1.501   6.877 -0.2152 -0.0112 -0.0825
  888loPI   C4B12522  15.559   1.570   7.350  0.0606 -0.1460 -0.0725
  889loPI    C112523  14.451  10.814   5.956  0.1994 -0.3835 -0.1415
  889loPI    C212524  14.138  10.611   5.814 -0.1453 -0.0443  0.1116
  889loPI    C312525  14.388  10.795   5.562 -0.3390 -0.0423 -0.0823
  889loPI   PO412526  14.351  10.924   6.165  0.0871  0.0318  0.0245
  889loPI   GL112527  14.189  11.264   6.496 -0.0515  0.0169  0.0909
  889loPI   GL212528  14.481  11.330   6.570 -0.0743  0.0940  0.0488
  889loPI   C1A12529  14.033  11.442   6.796 -0.0188 -0.1177 -0.0700
  889loPI   C2A12530  14.028  11.476   7.261 -0.2189  0.2065 -0.2150
  889loPI   C3A12531  13.973  11.297   7.670 -0.3202 -0.1376 -0.2985
  889loPI   C4A12532  14.019  11.280   8.126  0.0378 -0.2108 -0.0311
  889loPI   C5A12533  14.168  11.450   8.594  0.1777 -0.0349  0.1406
  889loPI   C6A12534  14.025  11.481   8.943 -0.0260  0.0645 -0.2779
  889loPI   C1B12535  14.530  11.614   7.065  0.2362 -0.0217  0.1425
  889loPI   C2B12536  14.421  11.677   7.474 -0.1462 -0.5132 -0.0241
  889loPI   C3B12537  14.325  11.709   7.939  0.5018  0.2028  0.2095
  889loPI   C4B12538  14.062  11.864   8.183  0.5564 -0.1178 -0.1850
  890loPI    C112539   1.171   6.641   5.535 -0.0616  0.0877 -0.0334
  890loPI    C212540   1.039   7.010   5.453  0.0404  0.1370  0.0226
  890loPI    C312541   0.778   6.714   5.521 -0.0427  0.1692 -0.1522
  890loPI   PO412542   1.394   6.680   5.728 -0.0920 -0.1065  0.2057
  890loPI   GL112543   1.408   6.816   6.221 -0.0145 -0.1776 -0.0523
  890loPI   GL212544   1.721   6.996   6.228 -0.2274 -0.2660 -0.0592
  890loPI   C1A12545   1.543   6.695   6.622  0.0290 -0.2899  0.0946
  890loPI   C2A12546   1.697   6.887   7.086  0.0495 -0.2848  0.0252
  890loPI   C3A12547   1.941   6.978   7.483  0.2693  0.3903 -0.0465
  890loPI   C4A12548   2.248   7.270   7.719  0.1979  0.2311  0.2209
  890loPI   C5A12549   2.605   7.271   7.998  0.3969 -0.0122  0.1857
  890loPI   C6A12550   2.837   7.039   7.703  0.1039  0.2893 -0.0608
  890loPI   C1B12551   1.654   7.200   6.678  0.4766 -0.2620  0.1895
  890loPI   C2B12552   1.469   7.482   7.152  0.2086 -0.1666 -0.0222
  890loPI   C3B12553   1.390   7.645   7.569 -0.0313  0.3179  0.1531
  890loPI   C4B12554   1.157   7.722   7.947 -0.3202 -0.0713 -0.0689
  891loPI    C112555  13.231  12.250   5.448  0.0585 -0.0799  0.2211
  891loPI    C212556  13.511  11.970   5.389  0.0075 -0.0726 -0.0674
  891loPI    C312557  13.195  11.992   5.144 -0.0301  0.1866  0.0010
  891loPI   PO412558  13.190  12.219   5.689  0.1629  0.0476  0.3347
  891loPI   GL112559  13.186  12.098   6.175 -0.1865  0.1307  0.0734
  891loPI   GL212560  12.779  12.221   6.021  0.0571 -0.2648  0.1869
  891loPI   C1A12561  13.367  12.065   6.459  0.0956  0.0342  0.2741
  891loPI   C2A12562  13.497  12.120   6.856 -0.1560 -0.3629  0.0473
  891loPI   C3A12563  13.633  12.071   7.273  0.0784  0.0622  0.1359
  891loPI   C4A12564  13.686  12.172   7.753  0.1752  0.0117 -0.1158
  891loPI   C5A12565  13.709  12.187   8.150  0.0796 -0.1025  0.0389
  891loPI   C6A12566  13.759  12.451   8.465 -0.0905  0.1165 -0.1261
  891loPI   C1B12567  12.898  12.355   6.542  0.0708 -0.1244  0.1281
  891loPI   C2B12568  12.880  12.308   6.937 -0.1087 -0.0867  0.0698
  891loPI   C3B12569  12.732  12.372   7.416  0.0365  0.1007 -0.0599
  891loPI   C4B12570  12.727  12.434   7.855  0.0226 -0.1730  0.1319
  892loPI    C112571  14.381  17.334   5.225 -0.1314  0.2432  0.0148
  892loPI    C212572  13.994  17.310   5.126 -0.0703 -0.1929 -0.1395
  892loPI    C312573  14.272  17.144   4.890  0.1776 -0.2341  0.1745
  892loPI   PO412574  14.320  17.560   5.434 -0.2984  0.0686  0.0331
  892loPI   GL112575  14.445  17.518   5.826  0.4400 -0.3994  0.0848
  892loPI   GL212576  14.389  17.833   5.823  0.0003 -0.0194 -0.0343
  892loPI   C1A12577  14.647  17.334   6.150 -0.1562  0.0473  0.0264
  892loPI   C2A12578  14.575  17.326   6.568 -0.0137  0.0681  0.1285
  892loPI   C3A12579  14.441  17.505   7.026  0.2337 -0.1411 -0.2204
  892loPI   C4A12580  14.373  17.722   7.470  0.1144 -0.0025 -0.2227
  892loPI   C5A12581  14.168  18.091   7.661  0.1072 -0.4076 -0.0530
  892loPI   C6A12582  14.329  18.497   7.685  0.3156 -0.0663  0.2400
  892loPI   C1B12583  14.350  17.735   6.276  0.0121  0.1533  0.0903
  892loPI   C2B12584  14.250  17.841   6.709 -0.1003 -0.0337  0.0582
  892loPI   C3B12585  14.060  17.935   7.069  0.2158 -0.2624 -0.0809
  892loPI   C4B12586  13.819  17.886   7.362  0.0542 -0.1824 -0.0222
  893loPI    C112587  12.689   9.253   6.240  0.3061  0.0161 -0.0774
  893loPI    C212588  12.504   9.194   5.891  0.0168 -0.0833  0.0888
  893loPI    C312589  12.748   8.913   6.037 -0.2011 -0.2326  0.1712
  893loPI   PO412590  12.775   9.490   6.230 -0.2649 -0.0563  0.1268
  893loPI   GL112591  12.686   9.781   6.585 -0.0174  0.2319 -0.2171
  893loPI   GL212592  12.786   9.367   6.732  0.0963 -0.3931  0.1021
  893loPI   C1A12593  12.789   9.887   6.952 -0.0084 -0.1529  0.1417
  893loPI   C2A12594  12.943  10.367   7.048 -0.0732  0.0438 -0.1360
  893loPI   C3A12595  13.189  10.438   7.393 -0.0855 -0.1766  0.0973
  893loPI   C4A12596  13.392  10.591   7.792  0.1594  0.1105  0.2307
  893loPI   C5A12597  13.785  10.795   8.018  0.0519 -0.1599 -0.0025
  893loPI   C6A12598  13.903  10.908   8.447 -0.2692  0.0019  0.0433
  893loPI   C1B12599  12.870   9.165   7.129 -0.0267  0.2593  0.0010
  893loPI   C2B12600  13.287   9.071   7.327 -0.2620 -0.0144 -0.0201
  893loPI   C3B12601  13.392   9.148   7.793  0.1290  0.0579 -0.3343
  893loPI   C4B12602  13.673   9.124   8.210  0.2422 -0.0432  0.0517
  894loPI    C112603  11.329  13.078   5.717 -0.3361 -0.2205 -0.4372
  894loPI    C212604  11.553  12.763   5.615 -0.2101 -0.2554 -0.0692
  894loPI    C312605  11.233  12.713   5.850 -0.0353 -0.0785  0.2121
  894loPI   PO412606  11.535  13.289   5.788  0.2575  0.1915  0.0929
  894loPI   GL112607  11.519  13.541   6.146  0.0243  0.0354  0.1763
  894loPI   GL212608  11.499  13.847   6.075  0.1652 -0.0860 -0.0537
  894loPI   C1A12609  11.549  13.334   6.533 -0.3800  0.0409  0.3131
  894loPI   C2A12610  11.518  13.438   6.994  0.0346  0.1205 -0.1053
  894loPI   C3A12611  11.584  13.246   7.382 -0.0271  0.0531  0.0413
  894loPI   C4A12612  11.569  13.112   7.875 -0.0607  0.2046 -0.1479
  894loPI   C5A12613  11.430  12.882   8.223 -0.2229  0.0244 -0.0791
  894loPI   C6A12614  11.084  12.668   8.413 -0.1289 -0.0133  0.1946
  894loPI   C1B12615  11.465  13.888   6.497  0.0802 -0.1433 -0.0352
  894loPI   C2B12616  11.574  13.925   7.038 -0.1038 -0.0273  0.1607
  894loPI   C3B12617  11.672  13.837   7.438 -0.1266  0.0409  0.0629
  894loPI   C4B12618  11.746  13.564   7.698  0.0708 -0.0817  0.0380
  895loPI    C112619  10.807  18.172   5.694  0.1082  0.1105  0.0550
  895loPI    C212620  11.015  18.138   5.354  0.0666 -0.2263  0.0592
  895loPI    C312621  10.618  18.094   5.351  0.0213  0.1465  0.0944
  895loPI   PO412622  11.074  18.267   5.822  0.1078  0.0128 -0.1042
  895loPI   GL112623  11.207  18.437   6.236 -0.0510  0.1931  0.0489
  895loPI   GL212624  11.521  18.554   6.261 -0.0029 -0.3736  0.0030
  895loPI   C1A12625  11.029  18.282   6.662  0.1166  0.0805  0.1212
  895loPI   C2A12626  10.796  18.070   6.961  0.0217 -0.1849 -0.2640
  895loPI   C3A12627  10.732  17.885   7.387  0.3543 -0.1398 -0.1973
  895loPI   C4A12628  10.318  17.878   7.635  0.1009  0.0424 -0.0727
  895loPI   C5A12629   9.928  17.799   7.789  0.0231 -0.2777 -0.0596
  895loPI   C6A12630   9.583  17.775   7.991 -0.4079 -0.3103 -0.2681
  895loPI   C1B12631  11.516  18.362   6.679  0.0359 -0.1619 -0.0387
  895loPI   C2B12632  11.389  18.151   7.091  0.0988  0.0943 -0.0370
  895loPI   C3B12633  11.631  18.180   7.569 -0.0602  0.0316 -0.0111
  895loPI   C4B12634  11.683  18.566   7.860  0.4031  0.0679  0.1748
  896loPI    C112635  13.382   0.022   5.241 -0.0596 -0.0714  0.0988
  896loPI    C212636  13.660   0.195   5.012  0.0479 -0.1040  0.2037
  896loPI    C312637  13.451   0.415   5.272 -0.1829 -0.0386 -0.0330
  896loPI   PO412638  13.545  -0.196   5.376 -0.0336 -0.3142  0.1857
  896loPI   GL112639  13.680  -0.275   5.814 -0.0357 -0.2756 -0.1232
  896loPI   GL212640  13.920  -0.435   5.949  0.2669  0.1864  0.0069
  896loPI   C1A12641  13.632  -0.016   6.193  0.1722  0.2347 -0.2188
  896loPI   C2A12642  13.408   0.216   6.617  0.3087  0.1848 -0.2964
  896loPI   C3A12643  13.486   0.344   7.044  0.1108  0.1789  0.2193
  896loPI   C4A12644  13.446   0.530   7.547 -0.0771  0.4438  0.1291
  896loPI   C5A12645  13.324   0.943   7.880  0.3355 -0.2113 -0.1169
  896loPI   C6A12646  13.027   1.289   8.015 -0.4218  0.0528 -0.2372
  896loPI   C1B12647  13.871  -0.357   6.401  0.0992  0.1404 -0.3007
  896loPI   C2B12648  13.672  -0.193   6.696  0.3176  0.0571 -0.1055
  896loPI   C3B12649  13.437  -0.196   7.067  0.1684 -0.1058  0.2160
  896loPI   C4B12650  13.452   0.044   7.422  0.0556 -0.2135  0.0695
  897loPI    C112651  16.450   7.456   6.155  0.1532 -0.1081  0.1494
  897loPI    C212652  16.242   7.674   5.892  0.4708  0.2203  0.1632
  897loPI    C312653  16.513   7.410   5.762 -0.0100 -0.2793  0.1420
  897loPI   PO412654  16.571   7.527   6.287  0.0437 -0.1204 -0.0045
  897loPI   GL112655  16.631   7.272   6.703  0.3113 -0.1048  0.2081
  897loPI   GL212656  16.890   7.172   6.536  0.1173 -0.3721  0.0535
  897loPI   C1A12657  16.552   7.213   7.021 -0.3015 -0.1157  0.0766
  897loPI   C2A12658  16.532   7.297   7.451  0.0682  0.1865 -0.0552
  897loPI   C3A12659  16.706   7.364   7.842  0.1439 -0.1782 -0.1003
  897loPI   C4A12660  16.834   7.155   8.180  0.1433  0.0420  0.1599
  897loPI   C5A12661  16.786   7.149   8.652 -0.0530 -0.2791  0.2229
  897loPI   C6A12662  16.602   7.160   8.939 -0.0832  0.1955  0.1685
  897loPI   C1B12663  16.998   7.061   6.924  0.0910 -0.0260 -0.0563
  897loPI   C2B12664  17.089   7.049   7.283 -0.0848 -0.3013  0.0171
  897loPI   C3B12665  17.103   7.071   7.638  0.2982  0.3605 -0.0809
  897loPI   C4B12666  17.251   7.320   7.913 -0.1126  0.2820  0.1642
  898loPI    C112667   1.438   2.704   5.752  0.0585 -0.0488 -0.1888
  898loPI    C212668   1.104   2.911   5.678 -0.0396 -0.1586 -0.0576
  898loPI    C312669   1.335   2.790   5.375 -0.1442 -0.1245 -0.1519
  898loPI   PO412670   1.353   2.474   5.912  0.1351 -0.1871  0.1416
  898loPI   GL112671   1.173   2.399   6.288 -0.0851  0.2012 -0.4433
  898loPI   GL212672   0.939   2.568   6.296 -0.0932  0.2867  0.4117
  898loPI   C1A12673   1.411   2.263   6.585 -0.0459  0.3020 -0.2582
  898loPI   C2A12674   1.695   2.347   6.918  0.3710 -0.1605  0.1262
  898loPI   C3A12675   2.043   2.157   7.123  0.3005  0.0583 -0.0663
  898loPI   C4A12676   2.504   1.924   7.196  0.1106 -0.1328 -0.0858
  898loPI   C5A12677   2.654   1.983   7.683  0.3501  0.0076 -0.2726
  898loPI   C6A12678   2.819   2.201   8.011 -0.0840 -0.0885  0.1180
  898loPI   C1B12679   1.066   2.525   6.820  0.0100  0.2649  0.2075
  898loPI   C2B12680   1.014   2.478   7.252 -0.0351 -0.2658  0.0653
  898loPI   C3B12681   0.600   2.352   7.474  0.3452  0.2882 -0.1200
  898loPI   C4B12682   0.187   2.214   7.495  0.1389 -0.1108 -0.2573
  899loPI    C112683   7.968  11.550   5.672  0.1996  0.0268 -0.1298
  899loPI    C212684   8.290  11.558   5.434  0.1479  0.1510 -0.1962
  899loPI    C312685   7.923  11.585   5.276  0.1137  0.2438 -0.1024
  899loPI   PO412686   8.047  11.644   5.964  0.1150  0.1441  0.0635
  899loPI   GL112687   8.079  11.478   6.447  0.1246 -0.0097  0.0355
  899loPI   GL212688   8.433  11.374   6.596  0.0285 -0.4270 -0.0746
  899loPI   C1A12689   8.034  11.368   6.903 -0.2533 -0.2187 -0.2997
  899loPI   C2A12690   7.953  11.604   7.273  0.0869  0.3035 -0.0697
  899loPI   C3A12691   7.904  11.652   7.753 -0.1998 -0.1990  0.0854
  899loPI   C4A12692   7.844  11.591   8.103 -0.1743 -0.1112 -0.0961
  899loPI   C5A12693   7.841  11.702   8.531  0.0973 -0.2260 -0.2083
  899loPI   C6A12694   7.544  11.946   8.874  0.0318  0.1005 -0.0749
  899loPI   C1B12695   8.414  11.609   7.040  0.0188  0.1539  0.4318
  899loPI   C2B12696   8.395  11.694   7.561 -0.1211 -0.0631 -0.1338
  899loPI   C3B12697   8.377  11.632   7.986 -0.1463  0.1350 -0.4871
  899loPI   C4B12698   8.256  11.384   8.384  0.1756  0.2738  0.2132
  900loPI    C112699   7.461   8.121   5.752 -0.1319  0.1061  0.0171
  900loPI    C212700   7.619   8.260   5.412 -0.1937  0.1203 -0.0060
  900loPI    C312701   7.434   7.905   5.416 -0.1047  0.0742  0.0355
  900loPI   PO412702   7.311   8.264   5.839 -0.3182 -0.1271 -0.2795
  900loPI   GL112703   7.139   8.435   6.172  0.1235  0.1866 -0.3797
  900loPI   GL212704   7.328   8.235   6.317 -0.2596 -0.0128  0.0643
  900loPI   C1A12705   6.931   8.321   6.610 -0.1548 -0.1125  0.1153
  900loPI   C2A12706   6.807   8.161   6.972 -0.1563  0.0736 -0.1830
  900loPI   C3A12707   6.687   8.050   7.321 -0.0807 -0.1956 -0.1455
  900loPI   C4A12708   6.608   8.083   7.781 -0.0692 -0.0015  0.0333
  900loPI   C5A12709   6.599   8.038   8.234 -0.0847 -0.2354 -0.4445
  900loPI   C6A12710   6.187   8.087   8.369  0.2081  0.0981 -0.0028
  900loPI   C1B12711   7.383   8.190   6.707 -0.0905 -0.1169  0.0208
  900loPI   C2B12712   7.291   8.178   7.186  0.0576  0.2550 -0.1301
  900loPI   C3B12713   7.451   8.269   7.613  0.4234 -0.0143 -0.0383
  900loPI   C4B12714   7.405   8.487   7.916 -0.1093 -0.0407 -0.0971
  901loPI    C112715   1.656   0.984   5.372  0.0561  0.1111  0.0277
  901loPI    C212716   1.855   0.969   5.025  0.0133 -0.1328  0.0114
  901loPI    C312717   1.490   0.808   5.054 -0.1518  0.2385  0.0638
  901loPI   PO412718   1.900   0.995   5.513 -0.2142  0.3326 -0.1174
  901loPI   GL112719   2.048   0.685   5.832 -0.2177 -0.0170  0.0414
  901loPI   GL212720   1.715   0.630   5.791  0.0320  0.1990 -0.2886
  901loPI   C1A12721   1.912   0.650   6.230  0.1973  0.1318 -0.1384
  901loPI   C2A12722   1.878   0.567   6.657 -0.0175  0.1537  0.2615
  901loPI   C3A12723   1.851   0.596   7.075  0.2150  0.0600 -0.0739
  901loPI   C4A12724   2.083   0.656   7.462 -0.3775  0.2702  0.1151
  901loPI   C5A12725   2.358   0.444   7.677  0.0433  0.2286 -0.2009
  901loPI   C6A12726   2.777   0.495   7.775 -0.1427 -0.2657  0.0691
  901loPI   C1B12727   1.381   0.646   6.098 -0.4957 -0.0880  0.2599
  901loPI   C2B12728   1.355   0.470   6.575  0.0029 -0.0435 -0.0462
  901loPI   C3B12729   1.377   0.311   6.876 -0.2944  0.0609  0.0036
  901loPI   C4B12730   1.577   0.044   7.138  0.0841 -0.1620  0.5304
  902loPI    C112731  14.367   3.376   5.071 -0.0100  0.1147 -0.1282
  902loPI    C212732  14.382   3.057   4.831 -0.0294 -0.0758  0.1201
  902loPI    C312733  14.117   3.347   4.760  0.0953 -0.0356 -0.2004
  902loPI   PO412734  14.335   3.274   5.372  0.2039 -0.0469  0.1882
  902loPI   GL112735  14.138   3.096   5.638  0.2777  0.2779 -0.2426
  902loPI   GL212736  13.974   2.885   5.562  0.2914  0.0103 -0.0111
  902loPI   C1A12737  14.201   2.896   6.040 -0.1563  0.0423 -0.3174
  902loPI   C2A12738  14.192   2.930   6.490  0.0021  0.3765 -0.1510
  902loPI   C3A12739  14.200   3.020   6.900  0.2129 -0.0722  0.1683
  902loPI   C4A12740  14.342   2.933   7.340 -0.4882 -0.0522 -0.0406
  902loPI   C5A12741  14.158   3.002   7.656 -0.0487 -0.1562 -0.0237
  902loPI   C6A12742  13.926   2.976   8.017 -0.1431  0.0778  0.1583
  902loPI   C1B12743  13.751   2.812   5.960 -0.1112 -0.1488  0.1561
  902loPI   C2B12744  13.764   2.941   6.321  0.2612  0.2563  0.3253
  902loPI   C3B12745  13.700   2.951   6.738 -0.2680 -0.0796 -0.0889
  902loPI   C4B12746  13.806   2.895   7.181  0.2126  0.1735 -0.0273
  903loPI    C112747   8.803   0.599   5.383  0.0490  0.0029 -0.1379
  903loPI    C212748   8.701   0.955   5.232 -0.1004 -0.0021 -0.0513
  903loPI    C312749   8.526   0.623   5.095  0.0364 -0.0427 -0.1296
  903loPI   PO412750   8.787   0.625   5.679  0.1160 -0.2068  0.0197
  903loPI   GL112751   8.948   0.413   6.026  0.0191 -0.0132 -0.1458
  903loPI   GL212752   8.725   0.234   6.061  0.0361  0.1751  0.0193
  903loPI   C1A12753   8.762   0.667   6.336 -0.0026  0.3233  0.2237
  903loPI   C2A12754   8.819   0.693   6.741 -0.2549 -0.3482 -0.1779
  903loPI   C3A12755   8.724   0.645   7.223  0.0586  0.1059  0.0636
  903loPI   C4A12756   8.557   0.382   7.531 -0.0119  0.0241 -0.1433
  903loPI   C5A12757   8.407   0.241   7.850  0.0832  0.1143  0.1222
  903loPI   C6A12758   7.999   0.231   7.955  0.1259 -0.2280  0.1060
  903loPI   C1B12759   8.518   0.289   6.558 -0.3208  0.3905  0.1309
  903loPI   C2B12760   8.339  -0.047   6.705 -0.1714 -0.2172  0.2572
  903loPI   C3B12761   8.074   0.015   7.061 -0.1034 -0.1918 -0.2985
  903loPI   C4B12762   8.013   0.287   7.346  0.1295 -0.1733 -0.1174
  904loPI    C112763   5.554  17.934   5.485 -0.2521  0.0361  0.0187
  904loPI    C212764   5.639  17.723   5.155  0.1066  0.0372  0.1061
  904loPI    C312765   5.610  18.122   5.136 -0.3728  0.0029 -0.0190
  904loPI   PO412766   5.621  17.831   5.692 -0.1862 -0.2087  0.0728
  904loPI   GL112767   5.726  17.963   6.094 -0.1268 -0.2027 -0.0814
  904loPI   GL212768   6.011  17.976   6.265  0.0793  0.2416 -0.0852
  904loPI   C1A12769   5.561  17.783   6.436 -0.1259 -0.2117  0.1862
  904loPI   C2A12770   5.544  17.883   6.917  0.2768  0.1772 -0.2088
  904loPI   C3A12771   5.615  17.865   7.334 -0.1435 -0.0837 -0.1681
  904loPI   C4A12772   5.714  18.005   7.694 -0.0866 -0.0575 -0.0152
  904loPI   C5A12773   5.821  17.926   8.167 -0.1924  0.0519 -0.2495
  904loPI   C6A12774   5.922  17.942   8.468 -0.1144  0.1139 -0.1514
  904loPI   C1B12775   6.079  17.962   6.733  0.0474 -0.0967  0.2225
  904loPI   C2B12776   6.021  18.066   7.091  0.0521  0.1665  0.0827
  904loPI   C3B12777   6.153  17.948   7.444 -0.0046 -0.1952  0.0059
  904loPI   C4B12778   6.333  18.068   7.806  0.0599 -0.0937  0.1257
  905loPI    C112779   2.825  10.397   5.655  0.1240 -0.0853  0.0874
  905loPI    C212780   2.641  10.472   5.308  0.2247 -0.1303  0.0240
  905loPI    C312781   2.617  10.736   5.607 -0.1076 -0.2254  0.0857
  905loPI   PO412782   2.711  10.183   5.695 -0.1534 -0.1269 -0.1915
  905loPI   GL112783   2.392  10.018   5.901  0.0145  0.0589 -0.0033
  905loPI   GL212784   2.351  10.370   6.023  0.0764  0.1394 -0.0088
  905loPI   C1A12785   2.476   9.998   6.392 -0.0287  0.3122  0.1720
  905loPI   C2A12786   2.208  10.111   6.855  0.1980 -0.2070 -0.0085
  905loPI   C3A12787   2.229  10.174   7.369 -0.2827  0.1588  0.0028
  905loPI   C4A12788   1.845  10.334   7.584  0.0659 -0.0101 -0.0503
  905loPI   C5A12789   1.606  10.109   7.731 -0.0270  0.0246 -0.1649
  905loPI   C6A12790   1.191  10.090   7.918  0.1599  0.0323  0.2025
  905loPI   C1B12791   2.439  10.584   6.412  0.0575  0.0669  0.1461
  905loPI   C2B12792   2.324  10.586   6.795 -0.2641  0.3386  0.0788
  905loPI   C3B12793   2.164  10.661   7.282 -0.2035  0.1464 -0.0791
  905loPI   C4B12794   2.207  10.978   7.637  0.2417 -0.0101  0.0976
  906loPI    C112795   8.659  16.792   5.370 -0.1114 -0.1300  0.0923
  906loPI    C212796   8.440  16.910   5.683 -0.0351  0.1144  0.0558
  906loPI    C312797   8.839  16.937   5.696 -0.0258  0.0207 -0.0208
  906loPI   PO412798   8.358  16.571   5.327 -0.1052 -0.0290 -0.1155
  906loPI   GL112799   8.244  16.489   5.834 -0.3163  0.0992  0.1384
  906loPI   GL212800   8.269  16.177   5.810  0.0182  0.2200 -0.2037
  906loPI   C1A12801   8.145  16.518   6.262  0.0908 -0.1243 -0.1716
  906loPI   C2A12802   8.410  16.566   6.584 -0.0432 -0.1445 -0.0120
  906loPI   C3A12803   8.731  16.674   6.864 -0.2547  0.0269  0.2743
  906loPI   C4A12804   8.780  16.592   7.258  0.0118 -0.0235 -0.3226
  906loPI   C5A12805   9.040  16.478   7.587 -0.2114  0.1616 -0.0043
  906loPI   C6A12806   9.398  16.358   7.873 -0.0819 -0.3374  0.2231
  906loPI   C1B12807   8.287  16.015   6.212  0.1977  0.0767  0.2678
  906loPI   C2B12808   8.248  16.071   6.685 -0.1096  0.0705 -0.4883
  906loPI   C3B12809   8.268  16.282   7.055 -0.0378  0.0216 -0.3890
  906loPI   C4B12810   8.290  16.758   7.075  0.1992  0.1098  0.1019
  907loPI    C112811  12.515  10.962   5.844 -0.1201 -0.1476  0.0758
  907loPI    C212812  12.424  10.627   5.646 -0.1745  0.0715 -0.2786
  907loPI    C312813  12.289  10.980   5.514 -0.1588  0.2305  0.1181
  907loPI   PO412814  12.745  10.921   5.900  0.1008 -0.2505 -0.3022
  907loPI   GL112815  12.767  10.928   6.344 -0.1427  0.0523 -0.0171
  907loPI   GL212816  12.759  11.144   6.330 -0.1731 -0.0997  0.0381
  907loPI   C1A12817  12.718  10.722   6.742  0.1397  0.1136  0.1081
  907loPI   C2A12818  12.730  10.778   7.196  0.2592 -0.3549 -0.0653
  907loPI   C3A12819  12.684  10.601   7.445 -0.2222  0.1278 -0.3895
  907loPI   C4A12820  12.814  10.229   7.660 -0.1158 -0.1086  0.3161
  907loPI   C5A12821  12.672  10.091   8.066 -0.1360 -0.1462 -0.2124
  907loPI   C6A12822  12.335  10.071   8.391  0.3864  0.0291  0.0076
  907loPI   C1B12823  12.486  11.159   6.653  0.0537 -0.4359 -0.0644
  907loPI   C2B12824  12.414  11.191   7.043 -0.1296 -0.3185  0.1682
  907loPI   C3B12825  11.998  11.240   7.230  0.3158 -0.2152 -0.0498
  907loPI   C4B12826  11.716  11.407   7.564 -0.2306 -0.0518 -0.1024
  908loPI    C112827   0.261  13.631   5.443  0.0333 -0.1449 -0.1192
  908loPI    C212828   0.465  13.926   5.620 -0.1026 -0.2037  0.1413
  908loPI    C312829   0.549  13.823   5.243  0.0047  0.1087  0.0766
  908loPI   PO412830   0.197  13.512   5.635  0.1629 -0.0237  0.1050
  908loPI   GL112831   0.237  13.653   5.972  0.0962  0.1620  0.1356
  908loPI   GL212832   0.144  13.922   6.130  0.3328 -0.1067  0.3177
  908loPI   C1A12833   0.327  13.452   6.330 -0.1125  0.0836 -0.1466
  908loPI   C2A12834   0.402  13.457   6.824  0.2428  0.2130 -0.1293
  908loPI   C3A12835   0.424  13.560   7.252  0.0037  0.1258  0.2474
  908loPI   C4A12836   0.369  13.846   7.531 -0.0285 -0.0874  0.0255
  908loPI   C5A12837   0.491  13.747   7.960 -0.0773 -0.1890  0.2323
  908loPI   C6A12838   0.961  13.615   7.960  0.1997 -0.0587  0.0022
  908loPI   C1B12839   0.326  14.069   6.426  0.1435 -0.1405 -0.1742
  908loPI   C2B12840   0.455  13.926   6.867  0.1340 -0.2646 -0.1979
  908loPI   C3B12841   0.746  14.044   7.215  0.0137  0.4273 -0.1190
  908loPI   C4B12842   0.877  14.113   7.645 -0.0197 -0.2047  0.2604
  909loPI    C112843  18.099   2.289   5.357 -0.1904 -0.2163  0.1189
  909loPI    C212844  17.778   2.457   5.188  0.0177  0.0095 -0.0590
  909loPI    C312845  18.026   2.235   4.968  0.0713 -0.0308  0.0415
  909loPI   PO412846  17.981   2.194   5.572 -0.1619 -0.5147  0.0023
  909loPI   GL112847  17.954   2.269   5.943  0.2822 -0.0734  0.0382
  909loPI   GL212848  17.839   2.459   6.226 -0.0629  0.0178 -0.0625
  909loPI   C1A12849  17.935   1.997   6.432  0.0282  0.0784  0.0440
  909loPI   C2A12850  17.863   2.097   6.874 -0.1960  0.0011  0.2637
  909loPI   C3A12851  17.903   2.257   7.355 -0.1929 -0.0692  0.0738
  909loPI   C4A12852  18.004   2.640   7.669 -0.0704  0.3060 -0.2612
  909loPI   C5A12853  17.929   3.106   7.656 -0.0089  0.0131 -0.1082
  909loPI   C6A12854  17.661   3.384   7.585  0.0741 -0.2514 -0.1993
  909loPI   C1B12855  17.635   2.381   6.521  0.1957 -0.0988  0.0042
  909loPI   C2B12856  17.367   2.360   6.868  0.1291  0.3986  0.4108
  909loPI   C3B12857  17.440   2.065   7.249  0.0712 -0.2821 -0.1326
  909loPI   C4B12858  17.489   2.091   7.643  0.2875  0.0383 -0.2106
  910loPI    C112859  13.494   2.699   5.124  0.0725 -0.1546  0.0441
  910loPI    C212860  13.370   2.319   5.136 -0.0198 -0.1214  0.1648
  910loPI    C312861  13.111   2.612   5.049  0.0489 -0.0848  0.0822
  910loPI   PO412862  13.524   2.755   5.350 -0.0271  0.0790 -0.5101
  910loPI   GL112863  13.521   2.500   5.664 -0.3676  0.0933 -0.0347
  910loPI   GL212864  13.256   2.422   5.612  0.1966  0.0667  0.0933
  910loPI   C1A12865  13.459   2.368   6.150 -0.0029 -0.3906 -0.4533
  910loPI   C2A12866  13.665   2.474   6.539 -0.0117 -0.1153  0.1459
  910loPI   C3A12867  13.758   2.430   6.984  0.1381  0.0883 -0.0282
  910loPI   C4A12868  13.771   2.475   7.547  0.0217  0.2807 -0.2178
  910loPI   C5A12869  13.570   2.794   7.733 -0.4169 -0.1387  0.2125
  910loPI   C6A12870  13.608   3.244   7.635  0.3375  0.1982 -0.3477
  910loPI   C1B12871  12.980   2.537   5.934  0.1192 -0.1221 -0.0826
  910loPI   C2B12872  12.964   2.510   6.404  0.1321 -0.0410  0.2298
  910loPI   C3B12873  12.966   2.308   6.691  0.1419 -0.1377 -0.5514
  910loPI   C4B12874  13.019   2.163   7.097  0.3170 -0.1377  0.1625
  911loPI    C112875   9.172   2.211   5.673  0.0046 -0.1111  0.1694
  911loPI    C212876   8.853   2.199   5.912 -0.0524  0.1741  0.1112
  911loPI    C312877   8.809   2.290   5.525  0.0388 -0.2852 -0.0126
  911loPI   PO412878   9.440   2.052   5.797 -0.0243  0.1864  0.2268
  911loPI   GL112879   9.680   1.852   6.095  0.0544 -0.2450 -0.1402
  911loPI   GL212880   9.509   1.694   6.311 -0.2792 -0.0309 -0.2744
  911loPI   C1A12881   9.980   1.891   6.394 -0.2068  0.0483  0.0057
  911loPI   C2A12882  10.119   1.817   6.827 -0.2318  0.0596 -0.0301
  911loPI   C3A12883  10.104   1.829   7.167  0.1072 -0.1868 -0.0025
  911loPI   C4A12884  10.156   1.850   7.690 -0.0124  0.0213  0.0900
  911loPI   C5A12885  10.143   2.115   8.026 -0.2952 -0.1593  0.1282
  911loPI   C6A12886  10.290   2.331   8.405  0.5059  0.0511 -0.0019
  911loPI   C1B12887   9.559   1.791   6.748 -0.1677  0.2842 -0.0451
  911loPI   C2B12888   9.532   1.817   7.136 -0.0489  0.0460  0.3255
  911loPI   C3B12889   9.627   1.675   7.540  0.2703  0.0194 -0.0030
  911loPI   C4B12890   9.869   1.531   7.868 -0.0818  0.4886  0.0317
  912loPI    C112891  17.194  16.051   5.611 -0.0619  0.0612  0.0895
  912loPI    C212892  16.811  15.939   5.631 -0.1065  0.1764 -0.0955
  912loPI    C312893  16.928  16.285   5.795 -0.0790  0.1356 -0.0285
  912loPI   PO412894  17.364  15.840   5.802 -0.2085  0.3248  0.0108
  912loPI   GL112895  17.117  15.829   6.082 -0.3523 -0.2301  0.1427
  912loPI   GL212896  17.341  15.759   6.335 -0.4033 -0.2512  0.2244
  912loPI   C1A12897  16.750  15.992   6.190  0.0388  0.3518 -0.0027
  912loPI   C2A12898  16.579  16.093   6.567  0.0049  0.0267 -0.1453
  912loPI   C3A12899  16.435  16.259   6.922  0.1657 -0.3999 -0.2055
  912loPI   C4A12900  16.568  16.261   7.332  0.2459 -0.0028 -0.2575
  912loPI   C5A12901  16.608  16.544   7.645 -0.3081 -0.2299  0.0714
  912loPI   C6A12902  16.685  16.948   7.937  0.0709 -0.1221  0.2939
  912loPI   C1B12903  17.378  15.632   6.728  0.0302 -0.2120  0.1692
  912loPI   C2B12904  17.164  15.651   7.118 -0.1229 -0.0821 -0.1803
  912loPI   C3B12905  17.159  15.805   7.537 -0.1140  0.4745  0.0454
  912loPI   C4B12906  17.198  15.848   7.963 -0.1822 -0.3072 -0.1165
  913loPI    C112907   0.715  16.814   5.008  0.0087  0.1061  0.0429
  913loPI    C212908   0.370  16.709   4.834  0.0279  0.0437  0.0421
  913loPI    C312909   0.652  16.896   4.621 -0.0278  0.1459  0.0572
  913loPI   PO412910   0.658  16.800   5.276  0.1184 -0.0403  0.0340
  913loPI   GL112911   0.457  16.741   5.627  0.1582  0.1792 -0.3851
  913loPI   GL212912   0.463  17.009   5.721  0.4238  0.2257  0.0786
  913loPI   C1A12913   0.595  16.720   6.141 -0.0398 -0.0477  0.0685
  913loPI   C2A12914   0.586  16.696   6.608 -0.1180  0.0385  0.2530
  913loPI   C3A12915   0.640  16.523   7.044  0.3761 -0.2840 -0.1796
  913loPI   C4A12916   0.840  16.441   7.408 -0.2125 -0.1916  0.4693
  913loPI   C5A12917   0.985  16.270   7.697 -0.1063  0.1387 -0.2143
  913loPI   C6A12918   1.448  16.365   7.956 -0.2231  0.2098 -0.2798
  913loPI   C1B12919   0.049  16.913   5.929 -0.1322  0.1611 -0.3535
  913loPI   C2B12920  -0.192  16.986   6.283 -0.2517  0.0011  0.3364
  913loPI   C3B12921  -0.313  16.913   6.694 -0.1015  0.3473  0.0860
  913loPI   C4B12922  -0.571  16.962   6.950  0.1083  0.1976 -0.0872
  914loPI    C112923  17.634  13.457   5.074 -0.0310  0.1168 -0.1506
  914loPI    C212924  17.937  13.384   4.823 -0.1495 -0.0735 -0.2403
  914loPI    C312925  17.729  13.724   4.791 -0.0015  0.0185 -0.2342
  914loPI   PO412926  17.720  13.428   5.310  0.4452 -0.1076 -0.1319
  914loPI   GL112927  17.601  13.659   5.654 -0.0592  0.1197 -0.1891
  914loPI   GL212928  17.544  13.940   5.648  0.1360  0.2132 -0.2022
  914loPI   C1A12929  17.516  13.669   6.187 -0.2268 -0.0595 -0.0943
  914loPI   C2A12930  17.479  13.737   6.634 -0.0185  0.0423 -0.0034
  914loPI   C3A12931  17.575  13.730   7.062  0.2685  0.0443  0.2495
  914loPI   C4A12932  17.396  13.784   7.448 -0.2601  0.0621 -0.0528
  914loPI   C5A12933  17.347  13.441   7.743  0.3026  0.4838 -0.0116
  914loPI   C6A12934  17.461  13.008   7.780 -0.1878 -0.0188 -0.3512
  914loPI   C1B12935  17.366  14.095   5.974  0.2674 -0.0746 -0.2099
  914loPI   C2B12936  17.309  14.103   6.363  0.2704  0.0049 -0.0171
  914loPI   C3B12937  17.384  14.154   6.893 -0.0130  0.0474 -0.0057
  914loPI   C4B12938  17.173  14.098   7.149  0.0171  0.0314  0.2233
  915loPI    C112939  16.247   5.991   5.654 -0.1485 -0.0796  0.0012
  915loPI    C212940  15.994   5.987   5.344  0.0027  0.1482 -0.1282
  915loPI    C312941  16.384   6.053   5.283  0.0869 -0.1381  0.0765
  915loPI   PO412942  16.040   6.103   5.839  0.3584 -0.0118  0.2377
  915loPI   GL112943  15.725   5.940   6.164 -0.0635 -0.3756 -0.2800
  915loPI   GL212944  15.930   5.617   6.200 -0.1580 -0.1422  0.1761
  915loPI   C1A12945  15.744   5.795   6.573 -0.2773 -0.0944 -0.2448
  915loPI   C2A12946  15.832   5.756   6.999  0.5996  0.0651 -0.1524
  915loPI   C3A12947  15.649   5.664   7.355  0.0477 -0.2148  0.0832
  915loPI   C4A12948  15.299   5.496   7.603  0.1406 -0.3342  0.0738
  915loPI   C5A12949  15.105   5.588   8.072  0.2468 -0.2236  0.0498
  915loPI   C6A12950  14.714   5.661   8.348 -0.0678 -0.1711 -0.2078
  915loPI   C1B12951  16.229   5.395   6.613 -0.0867 -0.2622 -0.1400
  915loPI   C2B12952  16.238   5.412   7.051 -0.1855  0.1376  0.0132
  915loPI   C3B12953  16.405   5.365   7.466 -0.0563 -0.1063  0.3396
  915loPI   C4B12954  16.579   5.463   7.901  0.2067 -0.1047 -0.0792
  916loPI    C112955  12.477  17.795   5.601 -0.3133  0.2390  0.1302
  916loPI    C212956  12.563  17.853   5.215 -0.3480  0.0894  0.0994
  916loPI    C312957  12.393  18.146   5.428 -0.0128  0.2949  0.0924
  916loPI   PO412958  12.705  17.656   5.761 -0.1428 -0.1184  0.1228
  916loPI   GL112959  12.857  17.896   6.179  0.1568  0.0173 -0.0873
  916loPI   GL212960  12.629  17.673   6.243  0.0780  0.0817 -0.0572
  916loPI   C1A12961  13.122  18.016   6.478 -0.0634 -0.0842  0.0091
  916loPI   C2A12962  13.017  18.148   6.878 -0.0005 -0.3093 -0.1091
  916loPI   C3A12963  12.976  18.129   7.258  0.2109 -0.2352  0.0666
  916loPI   C4A12964  13.072  17.938   7.608 -0.1964  0.3139 -0.2741
  916loPI   C5A12965  13.005  17.698   8.001  0.2386  0.0038  0.1058
  916loPI   C6A12966  12.731  17.440   8.099  0.2199 -0.1329  0.0490
  916loPI   C1B12967  12.589  17.708   6.637 -0.1371  0.0644 -0.0719
  916loPI   C2B12968  12.683  17.741   7.049  0.0963  0.0416  0.2158
  916loPI   C3B12969  12.520  17.649   7.467 -0.4629 -0.0793  0.0461
  916loPI   C4B12970  12.329  17.630   7.874 -0.1215  0.3590 -0.0444
  917loPI    C112971   9.181   5.802   5.666  0.0372 -0.0468 -0.0828
  917loPI    C212972   8.944   5.481   5.648  0.2377 -0.2101  0.1370
  917loPI    C312973   9.341   5.436   5.651  0.2666  0.0380  0.2050
  917loPI   PO412974   9.201   6.002   5.829  0.3899  0.1019  0.0251
  917loPI   GL112975   9.141   6.023   6.356  0.3586 -0.0388 -0.0212
  917loPI   GL212976   8.792   5.946   6.280  0.1784 -0.2120 -0.2219
  917loPI   C1A12977   9.189   6.040   6.858 -0.0358  0.2587 -0.0869
  917loPI   C2A12978   9.000   5.908   7.230 -0.1082 -0.1016 -0.3272
  917loPI   C3A12979   8.829   5.599   7.500  0.1315 -0.2028 -0.1306
  917loPI   C4A12980   8.580   5.537   7.906 -0.0800  0.2646 -0.0386
  917loPI   C5A12981   8.454   5.306   8.270 -0.1955 -0.3270 -0.1028
  917loPI   C6A12982   8.104   5.141   8.474  0.2211 -0.2342 -0.0224
  917loPI   C1B12983   8.667   6.216   6.693 -0.0566  0.0810 -0.0643
  917loPI   C2B12984   8.391   6.287   7.090  0.3366 -0.1220  0.0746
  917loPI   C3B12985   8.296   6.458   7.553 -0.0820 -0.0618  0.1756
  917loPI   C4B12986   8.188   6.491   8.000 -0.1959  0.3173 -0.1246
  918loPI    C112987   5.025   5.363   5.619  0.0548 -0.1609  0.0425
  918loPI    C212988   4.673   5.433   5.444  0.0839 -0.3675 -0.1022
  918loPI    C312989   5.005   5.411   5.223  0.2154 -0.0041  0.0521
  918loPI   PO412990   4.945   5.194   5.788  0.1450  0.0519  0.0831
  918loPI   GL112991   5.026   5.222   6.151  0.0047 -0.1364  0.0015
  918loPI   GL212992   5.274   5.541   6.284 -0.0168  0.1512 -0.0455
  918loPI   C1A12993   5.164   5.214   6.669 -0.1878  0.2373  0.1446
  918loPI   C2A12994   5.121   5.399   7.054 -0.3265  0.0211  0.3731
  918loPI   C3A12995   5.198   5.335   7.489 -0.1571  0.0872 -0.0360
  918loPI   C4A12996   5.481   5.477   7.830 -0.0094  0.1460  0.1192
  918loPI   C5A12997   5.831   5.677   8.110  0.2355 -0.4808 -0.1380
  918loPI   C6A12998   5.856   5.825   8.574  0.0161 -0.2089 -0.1940
  918loPI   C1B12999   4.852   5.703   6.521  0.0923  0.3591  0.1695
  918loPI   C2B13000   4.723   5.647   6.870 -0.0435  0.0126  0.1123
  918loPI   C3B13001   4.718   5.612   7.301 -0.5034  0.0266 -0.1490
  918loPI   C4B13002   4.523   5.638   7.592  0.0848  0.0421  0.0201
  919loPI    C113003  14.917  11.640   5.934 -0.0722  0.2029 -0.2008
  919loPI    C213004  14.922  11.518   5.553  0.0127  0.2184 -0.2049
  919loPI    C313005  15.183  11.793   5.678  0.0804  0.1077 -0.1004
  919loPI   PO413006  14.703  11.655   6.014  0.2492  0.1112 -0.1733
  919loPI   GL113007  14.785  12.121   6.253 -0.2993 -0.4164  0.0609
  919loPI   GL213008  15.148  12.070   6.184  0.0181  0.0655 -0.0865
  919loPI   C1A13009  14.681  12.115   6.671  0.3224 -0.0158  0.1355
  919loPI   C2A13010  14.713  12.082   7.002 -0.1031 -0.0909  0.1144
  919loPI   C3A13011  14.707  12.179   7.406 -0.1641 -0.1135 -0.1615
  919loPI   C4A13012  14.851  12.137   7.769 -0.0927 -0.0453 -0.0581
  919loPI   C5A13013  15.158  12.048   8.214  0.2620 -0.1534  0.1398
  919loPI   C6A13014  15.547  12.114   8.170  0.1896  0.0327  0.0863
  919loPI   C1B13015  15.145  12.081   6.634 -0.2142  0.1053 -0.3051
  919loPI   C2B13016  15.194  12.145   7.122  0.3222  0.0318 -0.1623
  919loPI   C3B13017  15.193  12.137   7.431  0.3194 -0.0948  0.2957
  919loPI   C4B13018  15.308  12.333   7.767  0.0764  0.1026  0.0857
  920loPI    C113019   6.510   3.317   5.588 -0.1865  0.0789  0.1776
  920loPI    C213020   6.640   3.693   5.541 -0.0965  0.0465  0.1649
  920loPI    C313021   6.320   3.564   5.337  0.0619  0.0215 -0.0724
  920loPI   PO413022   6.693   3.330   5.867 -0.3273  0.2344  0.0907
  920loPI   GL113023   6.607   3.457   6.296  0.1438 -0.0108 -0.2800
  920loPI   GL213024   6.984   3.366   6.346  0.2398  0.1385 -0.0691
  920loPI   C1A13025   6.880   3.857   6.581  0.1931  0.2086  0.4124
  920loPI   C2A13026   6.788   3.841   6.982 -0.1202 -0.2156 -0.0476
  920loPI   C3A13027   6.931   3.805   7.408 -0.1836 -0.1413 -0.2248
  920loPI   C4A13028   6.828   3.870   7.809 -0.1827  0.0291 -0.0127
  920loPI   C5A13029   7.162   3.782   8.073  0.0958  0.2254 -0.2480
  920loPI   C6A13030   7.575   3.741   8.101 -0.0877  0.1319  0.1004
  920loPI   C1B13031   6.954   3.349   6.872  0.2669 -0.0313 -0.0061
  920loPI   C2B13032   6.899   3.276   7.286  0.3312  0.0249 -0.0051
  920loPI   C3B13033   6.847   3.359   7.771 -0.1075 -0.2647 -0.1089
  920loPI   C4B13034   6.902   3.340   8.211 -0.0438  0.0098  0.2466
  921loPI    C113035   5.861  12.575   5.698 -0.2069 -0.1144 -0.0042
  921loPI    C213036   6.164  12.752   5.505 -0.1249 -0.0296  0.1997
  921loPI    C313037   5.786  12.842   5.410 -0.0852  0.0153  0.0829
  921loPI   PO413038   5.975  12.471   5.978 -0.2732  0.3073 -0.1488
  921loPI   GL113039   6.032  12.649   6.394  0.2429  0.0667 -0.1974
  921loPI   GL213040   6.231  12.873   6.510 -0.0674 -0.1136  0.0119
  921loPI   C1A13041   5.935  12.490   6.801 -0.1685 -0.3484  0.1751
  921loPI   C2A13042   5.986  12.536   7.214  0.0533  0.1994 -0.1174
  921loPI   C3A13043   5.846  12.481   7.504 -0.1502  0.0392 -0.2785
  921loPI   C4A13044   5.800  12.700   7.860 -0.0263  0.3243  0.0217
  921loPI   C5A13045   5.416  12.797   8.139 -0.0986 -0.2834 -0.1512
  921loPI   C6A13046   5.504  12.657   8.552 -0.0650  0.2804  0.2091
  921loPI   C1B13047   6.257  12.886   6.993 -0.0992 -0.4188 -0.0494
  921loPI   C2B13048   6.335  12.876   7.412 -0.2352 -0.0580  0.4779
  921loPI   C3B13049   6.506  12.994   7.857 -0.0309  0.0697  0.0672
  921loPI   C4B13050   6.815  12.876   8.177 -0.2182 -0.2384 -0.0053
  922loPI    C113051  15.269   0.328   5.394  0.1565 -0.1351 -0.2197
  922loPI    C213052  15.139   0.439   5.032 -0.0600  0.0581 -0.0856
  922loPI    C313053  14.994   0.617   5.360 -0.0319 -0.2706  0.1094
  922loPI   PO413054  15.562   0.240   5.355  0.0973  0.1342  0.2858
  922loPI   GL113055  15.498  -0.193   5.584 -0.0316  0.0950 -0.1512
  922loPI   GL213056  15.373  -0.039   5.825  0.2271 -0.0745  0.2376
  922loPI   C1A13057  15.803  -0.211   5.907  0.2037 -0.1134 -0.2990
  922loPI   C2A13058  15.863  -0.193   6.400  0.0522  0.1188 -0.1305
  922loPI   C3A13059  15.782  -0.145   6.795  0.2614 -0.0614  0.0273
  922loPI   C4A13060  15.900  -0.073   7.117 -0.2256  0.0810  0.1667
  922loPI   C5A13061  15.871  -0.156   7.523 -0.0523  0.0555 -0.2910
  922loPI   C6A13062  15.990   0.061   7.875 -0.1473 -0.0899  0.2224
  922loPI   C1B13063  15.547   0.179   6.146 -0.0826 -0.0345  0.0853
  922loPI   C2B13064  15.448   0.222   6.513  0.0095  0.0009 -0.1991
  922loPI   C3B13065  15.509   0.228   6.904 -0.3084  0.1533 -0.0481
  922loPI   C4B13066  15.521   0.209   7.377 -0.0840  0.0968  0.1220
  923loPI    C113067   4.415   8.328   5.293 -0.1193  0.1740 -0.0329
  923loPI    C213068   4.623   8.619   5.114 -0.0194  0.0364 -0.1431
  923loPI    C313069   4.281   8.488   4.952  0.0536 -0.0648 -0.2167
  923loPI   PO413070   4.455   8.386   5.567  0.3053  0.4530  0.1967
  923loPI   GL113071   4.286   8.396   6.079 -0.0413 -0.1572 -0.3059
  923loPI   GL213072   4.437   8.723   6.245  0.0789 -0.1475 -0.2658
  923loPI   C1A13073   4.214   8.209   6.501  0.0477 -0.0310  0.0751
  923loPI   C2A13074   4.206   8.096   6.957 -0.0870  0.0621 -0.2451
  923loPI   C3A13075   4.209   8.308   7.339 -0.3295  0.0293  0.1072
  923loPI   C4A13076   3.844   8.436   7.635 -0.3599  0.2384 -0.0901
  923loPI   C5A13077   3.535   8.375   7.915  0.1828  0.1119  0.0591
  923loPI   C6A13078   3.449   7.927   8.193  0.6999 -0.1722 -0.1377
  923loPI   C1B13079   4.552   8.609   6.637 -0.2859 -0.1555  0.0757
  923loPI   C2B13080   4.723   8.567   7.022  0.3051  0.2877 -0.0801
  923loPI   C3B13081   4.674   8.484   7.450  0.0449 -0.1828  0.2156
  923loPI   C4B13082   4.765   8.188   7.858  0.0185  0.2989 -0.0130
  924loPI    C113083  17.850  10.838   5.246 -0.0551 -0.0600 -0.1689
  924loPI    C213084  18.148  10.573   5.277  0.0163  0.0299 -0.0807
  924loPI    C313085  18.218  10.936   5.125 -0.0314  0.0775  0.0102
  924loPI   PO413086  17.736  10.750   5.494 -0.1128  0.0782  0.0347
  924loPI   GL113087  17.965  10.753   5.842 -0.2035 -0.0641  0.0661
  924loPI   GL213088  18.050  11.073   6.080  0.4125 -0.4666  0.2050
  924loPI   C1A13089  17.838  10.578   6.141  0.1007  0.0165 -0.0974
  924loPI   C2A13090  18.083  10.470   6.576 -0.1223  0.0366  0.1120
  924loPI   C3A13091  18.242  10.551   7.005  0.3129  0.1146  0.1002
  924loPI   C4A13092  18.345  10.778   7.325 -0.0720  0.1274 -0.3744
  924loPI   C5A13093  18.676  10.750   7.624 -0.1210 -0.0869 -0.1146
  924loPI   C6A13094  19.147  10.583   7.800  0.0412 -0.0188  0.0403
  924loPI   C1B13095  17.829  11.010   6.441  0.0515  0.2537  0.0517
  924loPI   C2B13096  17.828  10.815   6.867 -0.3210  0.1594 -0.0308
  924loPI   C3B13097  17.566  10.706   7.012 -0.0557 -0.1634  0.0532
  924loPI   C4B13098  17.331  10.730   7.296  0.0950 -0.0450 -0.0849
  925loPI    C113099  15.042  12.452   5.903  0.0094  0.0120 -0.1727
  925loPI    C213100  14.992  12.462   5.506 -0.0418 -0.0150 -0.1671
  925loPI    C313101  14.838  12.161   5.719 -0.1720  0.0950 -0.1045
  925loPI   PO413102  14.932  12.654   5.983 -0.0672  0.0476  0.1747
  925loPI   GL113103  14.876  12.962   6.325 -0.0358  0.1618  0.1840
  925loPI   GL213104  14.565  12.972   6.376  0.0178 -0.2808 -0.1362
  925loPI   C1A13105  15.117  13.231   6.643 -0.2364  0.3079  0.0672
  925loPI   C2A13106  15.066  13.248   7.057 -0.1249 -0.0614 -0.0072
  925loPI   C3A13107  15.109  13.235   7.507  0.0361 -0.1162  0.4141
  925loPI   C4A13108  15.074  13.416   7.893 -0.1794  0.2507  0.1060
  925loPI   C5A13109  15.213  13.166   8.270 -0.1796 -0.0470 -0.4197
  925loPI   C6A13110  15.027  12.957   8.612  0.1115 -0.3035  0.1293
  925loPI   C1B13111  14.634  13.023   6.806 -0.2173  0.0862 -0.0382
  925loPI   C2B13112  14.605  13.051   7.264 -0.1213  0.1067 -0.2930
  925loPI   C3B13113  14.612  13.039   7.777  0.0992  0.2063  0.1938
  925loPI   C4B13114  14.711  13.129   8.204 -0.2272 -0.2614 -0.0705
  926loPI    C113115  10.672   4.905   5.861 -0.0417  0.1550  0.1053
  926loPI    C213116  10.452   4.663   5.630  0.0746  0.2254 -0.0822
  926loPI    C313117  10.553   5.027   5.499  0.1197  0.2768  0.0924
  926loPI   PO413118  10.745   4.773   6.068 -0.3747  0.1081  0.3571
  926loPI   GL113119  10.577   4.723   6.522  0.0326 -0.2638 -0.2651
  926loPI   GL213120  10.917   4.732   6.584  0.3242  0.1149  0.0114
  926loPI   C1A13121  10.580   4.444   6.841 -0.0578 -0.3140 -0.2515
  926loPI   C2A13122  10.774   4.193   7.171 -0.0043  0.1025  0.0776
  926loPI   C3A13123  10.658   3.943   7.526 -0.2637  0.3245 -0.1732
  926loPI   C4A13124  10.813   3.441   7.706  0.1093 -0.0730 -0.1407
  926loPI   C5A13125  11.087   3.004   7.725 -0.0370 -0.0346 -0.1446
  926loPI   C6A13126  11.052   2.592   7.881  0.0707  0.0273 -0.0187
  926loPI   C1B13127  10.995   4.675   7.001  0.1809  0.5093 -0.0202
  926loPI   C2B13128  10.713   4.767   7.252 -0.0588  0.0382 -0.2839
  926loPI   C3B13129  10.568   4.615   7.654  0.0471 -0.1393 -0.1415
  926loPI   C4B13130  10.591   4.296   7.985 -0.1607  0.1418  0.0840
  927loPI    C113131   2.903   6.987   5.405  0.0402  0.1279  0.0825
  927loPI    C213132   3.115   7.323   5.358  0.0316  0.0968 -0.1926
  927loPI    C313133   2.990   7.119   5.037 -0.1970 -0.0228 -0.0297
  927loPI   PO413134   2.779   7.032   5.737 -0.2082 -0.0138  0.3237
  927loPI   GL113135   2.615   7.124   6.078 -0.2508  0.0130 -0.1656
  927loPI   GL213136   2.979   7.224   6.174  0.1852 -0.2047 -0.0486
  927loPI   C1A13137   2.240   7.318   6.393  0.0491  0.0717  0.3350
  927loPI   C2A13138   2.237   7.464   6.725  0.0226  0.1015  0.1469
  927loPI   C3A13139   2.026   7.419   7.118  0.0457 -0.0752 -0.0691
  927loPI   C4A13140   1.829   7.435   7.517 -0.1432 -0.0481 -0.1300
  927loPI   C5A13141   1.519   7.168   7.626 -0.2470 -0.0046  0.2421
  927loPI   C6A13142   1.173   7.221   7.857 -0.1354 -0.0199  0.2026
  927loPI   C1B13143   3.009   6.880   6.431  0.1481  0.2120 -0.0562
  927loPI   C2B13144   3.129   6.756   6.852 -0.1607 -0.1122 -0.1220
  927loPI   C3B13145   3.159   6.940   7.268  0.5036 -0.1571  0.0817
  927loPI   C4B13146   3.311   6.935   7.690 -0.2871 -0.2472  0.0221
  928loPI    C113147   2.444  11.221   5.303  0.0749  0.0053  0.0286
  928loPI    C213148   2.811  11.067   5.269 -0.0303 -0.2712  0.1179
  928loPI    C313149   2.714  11.399   5.068  0.3013 -0.1320  0.1811
  928loPI   PO413150   2.393  11.183   5.527 -0.1216 -0.2343 -0.1693
  928loPI   GL113151   2.493  11.120   5.988 -0.2206  0.2938  0.2364
  928loPI   GL213152   2.376  11.425   6.010 -0.2195  0.2140  0.1862
  928loPI   C1A13153   2.456  11.056   6.438 -0.2451  0.1100 -0.1173
  928loPI   C2A13154   2.186  11.126   6.685  0.3426  0.2956  0.4074
  928loPI   C3A13155   2.119  11.472   6.945  0.4797 -0.0311 -0.3675
  928loPI   C4A13156   2.351  11.800   7.078  0.0579  0.1697 -0.1078
  928loPI   C5A13157   2.434  12.019   7.442 -0.3824 -0.2348  0.1158
  928loPI   C6A13158   2.660  12.102   7.700 -0.0964  0.0959  0.0594
  928loPI   C1B13159   2.259  11.563   6.455 -0.0507 -0.1915 -0.1271
  928loPI   C2B13160   2.073  11.844   6.612 -0.1318 -0.1803  0.1213
  928loPI   C3B13161   1.786  11.875   6.807 -0.0469  0.0272 -0.0511
  928loPI   C4B13162   1.486  12.049   6.972 -0.0845  0.2675 -0.0416
  929loPI    C113163  17.926  14.230   5.260  0.2241  0.2630 -0.0431
  929loPI    C213164  17.621  13.989   5.168  0.1427  0.2414  0.2693
  929loPI    C313165  17.738  14.272   4.910 -0.0449  0.1547  0.0858
  929loPI   PO413166  17.863  14.320   5.575  0.1042  0.1694  0.0950
  929loPI   GL113167  17.876  14.220   5.968  0.1349  0.3680 -0.1540
  929loPI   GL213168  17.686  14.533   5.997 -0.2669 -0.3044 -0.2686
  929loPI   C1A13169  17.787  14.102   6.463  0.3080 -0.1173 -0.1054
  929loPI   C2A13170  17.891  14.146   6.950  0.3181 -0.4541 -0.1038
  929loPI   C3A13171  17.818  14.113   7.364  0.1071  0.2050  0.0446
  929loPI   C4A13172  17.713  14.113   7.729  0.1068 -0.1780 -0.0778
  929loPI   C5A13173  17.282  13.991   7.865  0.0134  0.2447 -0.1796
  929loPI   C6A13174  16.852  14.053   8.122 -0.3264  0.3035  0.0532
  929loPI   C1B13175  17.552  14.546   6.397 -0.0584 -0.1269  0.1966
  929loPI   C2B13176  17.592  14.596   6.799  0.0543 -0.3024 -0.1578
  929loPI   C3B13177  17.679  14.534   7.197  0.2896  0.0421  0.3071
  929loPI   C4B13178  17.721  14.601   7.618 -0.1537 -0.0161  0.2120
  930loPI    C113179   3.231  15.124   5.033 -0.2518  0.3333 -0.0676
  930loPI    C213180   3.449  15.326   4.766  0.3088  0.1398  0.2278
  930loPI    C313181   3.544  14.949   4.856 -0.3200 -0.0423  0.1735
  930loPI   PO413182   3.227  15.224   5.308  0.3237 -0.0203 -0.3110
  930loPI   GL113183   3.000  15.195   5.667  0.3220  0.2474 -0.4133
  930loPI   GL213184   2.970  15.464   5.877 -0.2927  0.2933  0.0824
  930loPI   C1A13185   2.921  15.040   6.059 -0.0262  0.1299 -0.0060
  930loPI   C2A13186   2.870  14.943   6.561  0.0394  0.2055  0.2157
  930loPI   C3A13187   3.056  14.799   6.899  0.1322  0.0651 -0.0677
  930loPI   C4A13188   3.045  14.394   7.051 -0.2916 -0.0857 -0.1122
  930loPI   C5A13189   3.025  14.101   7.411 -0.2134  0.0720 -0.1696
  930loPI   C6A13190   2.916  14.109   7.889  0.1839 -0.0116 -0.2154
  930loPI   C1B13191   2.869  15.494   6.330 -0.4501  0.1371 -0.0859
  930loPI   C2B13192   2.761  15.656   6.750 -0.0903  0.1540  0.1784
  930loPI   C3B13193   2.648  15.765   7.127  0.2342  0.1444 -0.0236
  930loPI   C4B13194   2.590  15.814   7.593  0.0784  0.1868 -0.1510
  931loPI    C113195  14.441  12.605   5.567  0.3367 -0.2209 -0.0208
  931loPI    C213196  14.462  12.271   5.349 -0.1535 -0.1067 -0.2559
  931loPI    C313197  14.641  12.605   5.221 -0.0030 -0.1731 -0.2213
  931loPI   PO413198  14.476  12.541   5.838 -0.2111  0.0523  0.1251
  931loPI   GL113199  14.397  12.509   6.254  0.0620  0.1336 -0.0964
  931loPI   GL213200  14.153  12.668   6.240  0.1127 -0.1287 -0.1597
  931loPI   C1A13201  14.411  12.558   6.758 -0.1165 -0.2597  0.0196
  931loPI   C2A13202  14.405  12.529   7.279 -0.1756  0.1111 -0.2375
  931loPI   C3A13203  14.486  12.555   7.760  0.0101 -0.3125 -0.1492
  931loPI   C4A13204  14.792  12.575   8.138  0.0200  0.2047 -0.2721
  931loPI   C5A13205  15.209  12.572   8.320 -0.2632 -0.2414  0.0275
  931loPI   C6A13206  15.638  12.641   8.239  0.1169  0.0540  0.0174
  931loPI   C1B13207  14.069  12.887   6.586 -0.1434 -0.2801  0.0019
  931loPI   C2B13208  14.151  12.937   7.008  0.2203 -0.0776  0.3133
  931loPI   C3B13209  14.164  12.942   7.582  0.2545 -0.0319 -0.3181
  931loPI   C4B13210  13.941  13.124   8.017 -0.0429  0.0140  0.1538
  932loPI    C113211   7.279   6.120   5.584 -0.1323 -0.0457 -0.0417
  932loPI    C213212   7.465   6.423   5.401 -0.1971  0.0691  0.0811
  932loPI    C313213   7.581   6.047   5.332  0.1698  0.1449  0.2563
  932loPI   PO413214   7.218   6.213   5.824 -0.0956 -0.1721  0.1326
  932loPI   GL113215   7.141   6.135   6.239 -0.1798  0.0748  0.1567
  932loPI   GL213216   7.497   6.101   6.260 -0.4077 -0.1166  0.0736
  932loPI   C1A13217   7.133   6.299   6.697 -0.2746  0.0951  0.1856
  932loPI   C2A13218   7.004   6.431   7.045 -0.1531 -0.1873 -0.1567
  932loPI   C3A13219   6.976   6.410   7.490  0.0641  0.0496 -0.0509
  932loPI   C4A13220   6.914   6.183   7.950  0.1621 -0.0046  0.0008
  932loPI   C5A13221   6.970   5.727   8.097 -0.0783 -0.1746  0.0052
  932loPI   C6A13222   6.849   5.262   8.320  0.1133 -0.1500  0.0502
  932loPI   C1B13223   7.567   6.481   6.499 -0.0508  0.0050  0.0137
  932loPI   C2B13224   7.615   6.516   6.873 -0.2563  0.2681 -0.0540
  932loPI   C3B13225   7.503   6.348   7.266 -0.0689  0.3438 -0.1327
  932loPI   C4B13226   7.418   6.145   7.619  0.1721 -0.0257  0.3202
  933loPI    C113227   5.354  11.323   5.669 -0.0646 -0.1585 -0.1521
  933loPI    C213228   5.062  11.560   5.534  0.0017  0.0151  0.0049
  933loPI    C313229   5.379  11.480   5.302  0.0006  0.1167 -0.0321
  933loPI   PO413230   5.341  11.356   5.868 -0.0927 -0.0900 -0.1359
  933loPI   GL113231   5.254  11.186   6.200 -0.2382  0.0545  0.1201
  933loPI   GL213232   5.199  10.869   6.197 -0.2118  0.0737 -0.1757
  933loPI   C1A13233   5.079  11.233   6.538 -0.4955 -0.0701  0.3870
  933loPI   C2A13234   5.099  11.139   6.931 -0.2116  0.0206 -0.2411
  933loPI   C3A13235   4.911  11.142   7.377  0.0182 -0.1860 -0.1193
  933loPI   C4A13236   4.912  11.105   7.769 -0.2207  0.2816  0.0919
  933loPI   C5A13237   5.020  11.455   8.059  0.0146  0.0882  0.0027
  933loPI   C6A13238   5.116  11.828   7.988 -0.0758 -0.1797 -0.1481
  933loPI   C1B13239   5.360  10.790   6.623 -0.0193  0.0562  0.2458
  933loPI   C2B13240   5.235  10.706   7.119  0.1165  0.3082 -0.3022
  933loPI   C3B13241   5.154  10.725   7.499 -0.3745  0.0837  0.0647
  933loPI   C4B13242   5.234  10.797   7.915 -0.3355  0.6450 -0.4344
  934loPI    C113243  15.370  16.750   5.221  0.0680 -0.0590  0.0772
  934loPI    C213244  15.511  16.382   5.288 -0.0234 -0.0887  0.1076
  934loPI    C313245  15.440  16.503   4.914 -0.0759 -0.1332  0.1031
  934loPI   PO413246  15.179  16.746   5.419  0.2431 -0.1381 -0.0092
  934loPI   GL113247  15.288  16.741   5.827  0.4564  0.0298  0.2286
  934loPI   GL213248  15.508  16.411   5.978  0.1019  0.0399  0.1500
  934loPI   C1A13249  15.410  16.845   6.260 -0.1067 -0.1983 -0.0017
  934loPI   C2A13250  15.363  16.704   6.652 -0.0079  0.0079  0.0129
  934loPI   C3A13251  15.333  16.596   7.060  0.3156  0.1841 -0.0019
  934loPI   C4A13252  15.193  16.778   7.393 -0.0888 -0.1858  0.0368
  934loPI   C5A13253  15.028  17.019   7.808 -0.2187 -0.1484  0.0974
  934loPI   C6A13254  15.227  17.051   8.256 -0.2064 -0.1979 -0.1369
  934loPI   C1B13255  15.766  16.488   6.237  0.0283 -0.1490 -0.3400
  934loPI   C2B13256  15.839  16.653   6.624 -0.0654  0.2843 -0.1153
  934loPI   C3B13257  15.842  16.830   7.050  0.0901  0.1672  0.0892
  934loPI   C4B13258  15.738  16.681   7.480  0.2182 -0.1095 -0.2326
  935loPI    C113259  11.675   6.785   5.644 -0.1053 -0.1718  0.0897
  935loPI    C213260  11.469   7.089   5.485  0.1841 -0.0694 -0.0965
  935loPI    C313261  11.860   7.129   5.559  0.1820 -0.3291  0.0681
  935loPI   PO413262  11.533   6.694   5.827 -0.1724 -0.2124  0.0170
  935loPI   GL113263  11.515   6.739   6.206  0.3539  0.1490  0.1856
  935loPI   GL213264  11.576   6.599   6.430  0.1024  0.3278 -0.0459
  935loPI   C1A13265  11.990   6.839   6.485 -0.1607 -0.0102 -0.0325
  935loPI   C2A13266  12.434   6.784   6.647  0.1099 -0.1835 -0.1579
  935loPI   C3A13267  12.492   6.892   7.107  0.1633  0.0934 -0.2358
  935loPI   C4A13268  12.701   6.861   7.533 -0.0584  0.2220  0.1726
  935loPI   C5A13269  12.837   6.958   7.969  0.2535 -0.3194  0.3714
  935loPI   C6A13270  12.623   7.189   8.294  0.2509 -0.4266  0.0578
  935loPI   C1B13271  11.477   6.515   6.832  0.0874 -0.1839  0.1605
  935loPI   C2B13272  11.552   6.437   7.242 -0.1572 -0.0506  0.1025
  935loPI   C3B13273  11.380   6.182   7.661  0.2355 -0.0771 -0.0323
  935loPI   C4B13274  11.086   6.200   7.923  0.0906 -0.0953  0.1875
  936loPI    C113275  15.954  13.120   5.800 -0.0651  0.2466  0.2594
  936loPI    C213276  15.922  13.432   5.551 -0.1910 -0.0975 -0.1680
  936loPI    C313277  16.276  13.254   5.604 -0.1253  0.0934  0.0525
  936loPI   PO413278  15.682  13.205   5.911  0.1638  0.0686  0.0012
  936loPI   GL113279  15.656  13.313   6.393 -0.1109  0.0213  0.3218
  936loPI   GL213280  15.429  13.171   6.315  0.1636 -0.2829  0.1758
  936loPI   C1A13281  15.559  13.298   6.896 -0.0439 -0.1941  0.0379
  936loPI   C2A13282  15.649  13.350   7.289 -0.1742  0.0934 -0.2702
  936loPI   C3A13283  15.543  13.503   7.673  0.0603  0.1822 -0.0667
  936loPI   C4A13284  15.580  13.669   8.103 -0.1026 -0.1019  0.1874
  936loPI   C5A13285  15.623  14.056   8.132  0.2776  0.0722  0.0379
  936loPI   C6A13286  15.998  14.339   8.189  0.0891  0.0411  0.1598
  936loPI   C1B13287  15.511  12.856   6.640  0.1437 -0.4597  0.2773
  936loPI   C2B13288  15.458  12.848   7.104 -0.1086 -0.3175  0.0087
  936loPI   C3B13289  15.516  12.902   7.517 -0.2490  0.3642  0.0905
  936loPI   C4B13290  15.488  13.074   7.905  0.0935 -0.4679  0.1817
  937loPI    C113291   6.623   4.173   5.423  0.0620 -0.0737  0.0215
  937loPI    C213292   6.270   4.079   5.262  0.0728 -0.1242  0.0272
  937loPI    C313293   6.516   4.329   5.070  0.0381 -0.0966  0.0186
  937loPI   PO413294   6.551   4.236   5.708 -0.1827 -0.2830 -0.2514
  937loPI   GL113295   6.450   4.340   6.216 -0.4727  0.0503 -0.0812
  937loPI   GL213296   6.288   4.040   6.345 -0.4704  0.0532  0.0348
  937loPI   C1A13297   6.751   4.347   6.474 -0.0496 -0.3344  0.0212
  937loPI   C2A13298   6.790   4.280   6.831 -0.4002 -0.0727 -0.1542
  937loPI   C3A13299   6.874   4.277   7.272  0.2719 -0.4054  0.1379
  937loPI   C4A13300   6.940   4.408   7.717 -0.3342 -0.1399 -0.1600
  937loPI   C5A13301   6.994   4.792   7.926  0.0218 -0.1146 -0.4047
  937loPI   C6A13302   7.306   5.218   7.916  0.1745 -0.1417 -0.0390
  937loPI   C1B13303   6.386   4.026   6.755  0.0450  0.2565 -0.0485
  937loPI   C2B13304   6.410   4.006   7.272  0.2516  0.1803  0.1019
  937loPI   C3B13305   6.440   4.098   7.823  0.0693 -0.1212  0.0150
  937loPI   C4B13306   6.355   3.939   8.227  0.2810  0.3781 -0.2283
  938loPI    C113307   9.009   5.011   5.796 -0.0822  0.0571 -0.0988
  938loPI    C213308   9.269   4.709   5.826 -0.1289  0.0261 -0.0032
  938loPI    C313309   9.270   4.941   5.501 -0.1859 -0.1631 -0.1401
  938loPI   PO413310   8.998   5.067   5.951  0.1229 -0.1415 -0.0974
  938loPI   GL113311   9.126   4.964   6.513  0.1000 -0.0081  0.0470
  938loPI   GL213312   9.266   5.230   6.523  0.2346  0.1721  0.0879
  938loPI   C1A13313   8.795   4.590   6.600 -0.3809 -0.1346 -0.3341
  938loPI   C2A13314   8.661   4.465   6.880 -0.0802 -0.0209 -0.4529
  938loPI   C3A13315   8.677   4.388   7.246 -0.0128 -0.0334  0.1707
  938loPI   C4A13316   8.558   4.040   7.531 -0.0334  0.0439 -0.1757
  938loPI   C5A13317   8.598   3.881   7.967 -0.0037 -0.0596  0.2886
  938loPI   C6A13318   8.784   3.911   8.257  0.0204  0.1706  0.1544
  938loPI   C1B13319   9.458   4.930   6.929  0.0200 -0.2644  0.1389
  938loPI   C2B13320   9.601   4.521   7.196  0.4434 -0.2822 -0.0563
  938loPI   C3B13321   9.651   4.432   7.567  0.1502  0.2542  0.3524
  938loPI   C4B13322   9.636   4.570   8.056 -0.0975  0.1734  0.3956
  939loPI    C113323  11.821  11.068   5.664 -0.0870 -0.1227  0.1662
  939loPI    C213324  11.827  10.778   5.388 -0.0421 -0.0388  0.0782
  939loPI    C313325  11.873  11.160   5.278 -0.4408  0.0351  0.1524
  939loPI   PO413326  11.939  10.988   5.944 -0.0221 -0.0317 -0.2302
  939loPI   GL113327  11.810  10.884   6.368 -0.1581 -0.1976 -0.0038
  939loPI   GL213328  12.207  10.851   6.384  0.0787 -0.1012  0.0449
  939loPI   C1A13329  12.037  11.274   6.501 -0.1737 -0.5001  0.0492
  939loPI   C2A13330  12.217  11.536   6.800 -0.3215 -0.1919  0.1913
  939loPI   C3A13331  12.215  11.669   7.239 -0.1209 -0.0343 -0.3620
  939loPI   C4A13332  12.442  11.420   7.495  0.1448 -0.2322  0.4146
  939loPI   C5A13333  12.601  11.096   7.572  0.3561  0.2574  0.0310
  939loPI   C6A13334  12.576  10.876   7.867  0.1935 -0.2789  0.0491
  939loPI   C1B13335  12.079  10.920   6.809  0.1151 -0.0777 -0.0227
  939loPI   C2B13336  11.802  10.785   7.137  0.2801  0.2955 -0.1061
  939loPI   C3B13337  11.545  10.409   7.289 -0.3642 -0.1501 -0.0867
  939loPI   C4B13338  11.237  10.258   7.556  0.1232 -0.2861  0.0220
  940loPI    C113339  17.084  12.972   5.126  0.1605 -0.1711 -0.0590
  940loPI    C213340  16.811  12.830   5.382 -0.0302 -0.0904 -0.2152
  940loPI    C313341  16.820  12.697   5.005  0.1005 -0.0394 -0.2307
  940loPI   PO413342  17.289  12.981   5.285 -0.2014  0.1084 -0.2098
  940loPI   GL113343  17.422  13.199   5.689 -0.3730 -0.3131  0.2098
  940loPI   GL213344  17.068  13.131   5.716 -0.1790  0.1024  0.1754
  940loPI   C1A13345  17.618  13.199   6.086  0.2177 -0.0467 -0.1433
  940loPI   C2A13346  17.723  13.174   6.431 -0.4878  0.1230  0.1207
  940loPI   C3A13347  17.708  13.242   6.810 -0.0761  0.0832  0.0671
  940loPI   C4A13348  17.681  13.323   7.329  0.3330 -0.0248  0.1431
  940loPI   C5A13349  17.852  13.382   7.774  0.1202  0.0497  0.2393
  940loPI   C6A13350  17.685  13.659   7.998 -0.2524 -0.1025  0.1052
  940loPI   C1B13351  17.042  13.200   6.163  0.1206 -0.1481 -0.3558
  940loPI   C2B13352  17.196  13.365   6.527  0.2024 -0.1586  0.0158
  940loPI   C3B13353  17.174  13.439   6.990 -0.0955  0.0242  0.0255
  940loPI   C4B13354  17.216  13.252   7.299  0.1997 -0.1300 -0.2107
  941loPI    C113355   4.480  10.797   5.538 -0.1198  0.2382  0.1839
  941loPI    C213356   4.163  10.595   5.401 -0.1054  0.2899  0.0725
  941loPI    C313357   4.506  10.593   5.195 -0.0444  0.2658  0.1730
  941loPI   PO413358   4.282  10.955   5.734 -0.2990 -0.2580 -0.1884
  941loPI   GL113359   4.140  10.865   6.085  0.2243 -0.2113 -0.1429
  941loPI   GL213360   4.315  10.530   6.032 -0.0910 -0.0170  0.2825
  941loPI   C1A13361   4.147  10.768   6.513 -0.1638  0.1335 -0.0993
  941loPI   C2A13362   4.138  10.787   6.888  0.1489  0.0919  0.0919
  941loPI   C3A13363   4.121  10.984   7.285  0.0286 -0.1428 -0.0604
  941loPI   C4A13364   3.902  10.870   7.680 -0.2407 -0.1840  0.2867
  941loPI   C5A13365   3.888  10.445   7.891  0.3472  0.2687  0.3974
  941loPI   C6A13366   3.766  10.169   7.673 -0.0950  0.1386  0.3327
  941loPI   C1B13367   4.547  10.254   6.223 -0.3480  0.0331 -0.1474
  941loPI   C2B13368   4.761  10.204   6.565  0.0007  0.0623 -0.0118
  941loPI   C3B13369   5.085  10.252   6.826  0.3465 -0.0482  0.1418
  941loPI   C4B13370   5.158  10.238   7.269 -0.1439  0.2336  0.4965
  942loPI    C113371  16.568   6.871   5.812  0.2244  0.0368  0.1963
  942loPI    C213372  16.957   6.863   5.717  0.1521 -0.0918 -0.1007
  942loPI    C313373  16.702   7.078   5.497  0.0556  0.0043  0.1021
  942loPI   PO413374  16.537   6.944   6.118  0.6665  0.2656 -0.0856
  942loPI   GL113375  16.498   6.732   6.484 -0.2725  0.0524  0.1895
  942loPI   GL213376  16.594   6.345   6.470 -0.0706  0.3737  0.1894
  942loPI   C1A13377  16.695   6.660   6.869 -0.1801 -0.1816 -0.0377
  942loPI   C2A13378  16.662   6.793   7.330  0.0782  0.1310 -0.2249
  942loPI   C3A13379  16.548   6.905   7.832 -0.0185  0.0648  0.2169
  942loPI   C4A13380  16.385   6.878   8.300 -0.1456  0.0798  0.3131
  942loPI   C5A13381  16.074   6.703   8.622 -0.1086  0.0593 -0.0383
  942loPI   C6A13382  15.630   6.417   8.561 -0.0396  0.2779  0.2006
  942loPI   C1B13383  16.498   6.258   6.965  0.1029 -0.0710  0.0266
  942loPI   C2B13384  16.548   6.319   7.360 -0.0533 -0.1909  0.0703
  942loPI   C3B13385  16.689   6.357   7.765  0.3697 -0.3523  0.0607
  942loPI   C4B13386  16.583   6.432   8.152 -0.3265 -0.1504 -0.1909
  943loPI    C113387   3.929   0.205   6.268  0.2197 -0.0761 -0.2369
  943loPI    C213388   3.856   0.477   5.984 -0.5036 -0.1419 -0.1319
  943loPI    C313389   3.942   0.594   6.357 -0.2101 -0.0604 -0.2227
  943loPI   PO413390   3.774   0.013   6.247  0.1721  0.1034  0.3100
  943loPI   GL113391   3.763  -0.409   6.474 -0.0715  0.3228  0.0566
  943loPI   GL213392   3.762  -0.112   6.696  0.0204  0.2322  0.1840
  943loPI   C1A13393   4.005  -0.565   6.878  0.3439 -0.0500  0.2041
  943loPI   C2A13394   4.179  -0.357   7.101  0.3034  0.2342  0.1349
  943loPI   C3A13395   4.340  -0.360   7.506  0.0106  0.4123  0.0724
  943loPI   C4A13396   4.209  -0.645   7.802  0.3658 -0.1732  0.0884
  943loPI   C5A13397   3.876  -0.720   7.945 -0.1552 -0.2464 -0.1067
  943loPI   C6A13398   3.486  -0.827   8.005 -0.2169  0.0059 -0.1564
  943loPI   C1B13399   3.614  -0.278   7.133 -0.1195  0.0183 -0.0130
  943loPI   C2B13400   3.356  -0.216   7.429  0.0347 -0.2555 -0.2186
  943loPI   C3B13401   3.153  -0.029   7.658 -0.2220 -0.1799 -0.1944
  943loPI   C4B13402   2.780  -0.151   7.912 -0.2085 -0.5034 -0.1159
  944loPI    C113403   7.718   1.551   5.765  0.0985 -0.0467  0.1596
  944loPI    C213404   8.101   1.463   5.688  0.1040  0.0260  0.1018
  944loPI    C313405   7.995   1.840   5.769  0.0157  0.0379 -0.0648
  944loPI   PO413406   7.668   1.319   5.929  0.1826  0.3335 -0.3282
  944loPI   GL113407   7.498   1.167   6.341  0.1437  0.0987 -0.0382
  944loPI   GL213408   7.364   1.386   6.576 -0.3641  0.0611  0.3004
  944loPI   C1A13409   7.471   0.951   6.686 -0.1074 -0.0010 -0.1684
  944loPI   C2A13410   7.379   0.955   7.142 -0.1461  0.1600  0.0760
  944loPI   C3A13411   7.358   0.934   7.559  0.1324  0.1116 -0.1282
  944loPI   C4A13412   7.091   0.647   7.685 -0.1814  0.1604 -0.4196
  944loPI   C5A13413   6.781   0.571   7.400 -0.2408 -0.2498 -0.0960
  944loPI   C6A13414   6.698   0.571   7.020  0.0998 -0.0290 -0.4525
  944loPI   C1B13415   7.470   1.416   6.996  0.0182 -0.1070 -0.1466
  944loPI   C2B13416   7.669   1.315   7.422 -0.0745  0.1660 -0.1038
  944loPI   C3B13417   7.806   1.098   7.757  0.0299 -0.1216  0.0279
  944loPI   C4B13418   7.738   0.648   7.801  0.0963  0.0196 -0.1289
  945loPI    C113419   7.692  13.655   5.747 -0.1391  0.1289  0.1330
  945loPI    C213420   7.309  13.692   5.638 -0.0847  0.0438 -0.0942
  945loPI    C313421   7.600  13.798   5.385  0.0452 -0.1318 -0.0210
  945loPI   PO413422   7.755  13.448   5.825  0.3066  0.2634  0.2770
  945loPI   GL113423   7.962  13.278   6.218 -0.3998 -0.1208 -0.0720
  945loPI   GL213424   7.649  13.291   6.265  0.0139  0.5125 -0.3197
  945loPI   C1A13425   8.069  13.188   6.606  0.0743  0.1299  0.1487
  945loPI   C2A13426   8.009  13.187   7.018 -0.1511  0.3073 -0.2313
  945loPI   C3A13427   7.946  13.231   7.436  0.1604 -0.1499  0.1417
  945loPI   C4A13428   8.090  13.523   7.731 -0.0235  0.3820 -0.0682
  945loPI   C5A13429   7.804  13.450   8.137  0.0697  0.0212  0.2592
  945loPI   C6A13430   7.856  13.669   8.458 -0.2075 -0.0171  0.1073
  945loPI   C1B13431   7.564  13.313   6.739 -0.1256  0.0852 -0.0911
  945loPI   C2B13432   7.559  13.441   7.194  0.0680 -0.1647  0.0276
  945loPI   C3B13433   7.442  13.456   7.672 -0.0751  0.0311  0.1248
  945loPI   C4B13434   7.320  13.207   8.105 -0.2213 -0.1466 -0.0748
  946loPI    C113435   6.196   8.020   5.549  0.0251 -0.0981  0.0351
  946loPI    C213436   6.406   7.684   5.495  0.1635 -0.0325  0.1593
  946loPI    C313437   6.032   7.666   5.636  0.0729 -0.1518 -0.0904
  946loPI   PO413438   6.410   8.192   5.676  0.0809 -0.0038  0.2160
  946loPI   GL113439   6.480   8.241   6.267  0.2592  0.2414  0.3131
  946loPI   GL213440   6.469   8.352   6.440  0.0452 -0.0421  0.0490
  946loPI   C1A13441   6.583   7.872   6.521  0.0561 -0.4506  0.0514
  946loPI   C2A13442   6.542   7.761   6.932 -0.0121 -0.3253 -0.2520
  946loPI   C3A13443   6.600   7.586   7.362 -0.0930  0.0908  0.0883
  946loPI   C4A13444   6.823   7.549   7.790 -0.0475  0.0707  0.0714
  946loPI   C5A13445   7.108   7.345   8.053  0.0895 -0.2119  0.0010
  946loPI   C6A13446   7.304   7.227   8.449 -0.1732  0.3767  0.1617
  946loPI   C1B13447   6.320   8.231   6.866 -0.5999 -0.0753  0.0654
  946loPI   C2B13448   6.334   8.366   7.261  0.1917  0.0585  0.2735
  946loPI   C3B13449   6.328   8.596   7.649 -0.0361  0.3215 -0.0401
  946loPI   C4B13450   6.284   8.423   8.004 -0.2173  0.2055 -0.1428
  947loPI    C113451   6.433   2.226   5.860  0.0367 -0.0058 -0.0574
  947loPI    C213452   6.473   2.056   5.500  0.0854  0.2046 -0.1528
  947loPI    C313453   6.754   2.306   5.636  0.1705 -0.0341  0.1217
  947loPI   PO413454   6.474   2.034   6.112 -0.0140 -0.1384  0.1000
  947loPI   GL113455   6.681   1.887   6.410  0.0571  0.0578 -0.2628
  947loPI   GL213456   6.936   1.672   6.476  0.3140  0.3470 -0.3022
  947loPI   C1A13457   6.747   1.984   6.799 -0.0282 -0.1093 -0.0899
  947loPI   C2A13458   6.650   1.974   7.244  0.0908  0.3689 -0.1909
  947loPI   C3A13459   6.826   1.785   7.700  0.1316  0.0691 -0.2000
  947loPI   C4A13460   7.063   1.710   8.069 -0.0477 -0.2687  0.2723
  947loPI   C5A13461   7.226   1.363   8.335  0.0668  0.0964 -0.0490
  947loPI   C6A13462   7.682   1.316   8.393 -0.1342 -0.0573  0.1554
  947loPI   C1B13463   6.976   1.570   6.887 -0.0355 -0.1577 -0.1444
  947loPI   C2B13464   7.025   1.685   7.246 -0.0918 -0.0722  0.3919
  947loPI   C3B13465   7.183   1.447   7.568 -0.2060 -0.1151 -0.2225
  947loPI   C4B13466   7.359   1.278   7.895 -0.0001  0.1331 -0.3655
  948loPI    C113467  16.173   6.518   5.560 -0.0243  0.0287  0.0771
  948loPI    C213468  16.250   6.881   5.411  0.1930 -0.0267  0.0512
  948loPI    C313469  16.182   6.573   5.164 -0.1136  0.0192  0.0735
  948loPI   PO413470  16.038   6.625   5.767 -0.0445 -0.0255 -0.3103
  948loPI   GL113471  16.032   6.510   6.210 -0.2002  0.0389 -0.0353
  948loPI   GL213472  15.993   6.809   6.304 -0.0980  0.1691  0.0752
  948loPI   C1A13473  16.105   6.365   6.485  0.1255 -0.2916 -0.1241
  948loPI   C2A13474  15.960   6.272   6.835  0.0124  0.1511 -0.2487
  948loPI   C3A13475  15.922   6.205   7.187 -0.0679  0.3548  0.0180
  948loPI   C4A13476  15.892   6.066   7.556  0.2307  0.0501  0.3182
  948loPI   C5A13477  15.727   5.914   7.865  0.2602  0.0243  0.0269
  948loPI   C6A13478  15.406   6.069   8.165  0.0024  0.0523  0.2040
  948loPI   C1B13479  15.712   6.625   6.600  0.1288 -0.3301 -0.2901
  948loPI   C2B13480  15.649   6.655   6.996  0.0196 -0.0319 -0.3287
  948loPI   C3B13481  15.493   6.550   7.318  0.0515  0.1122 -0.1624
  948loPI   C4B13482  15.645   6.432   7.716 -0.1349 -0.1438  0.0489
  949loPI    C113483  13.730  10.438   5.553 -0.0769 -0.0155  0.0708
  949loPI    C213484  13.746  10.117   5.316  0.2361 -0.0975  0.1985
  949loPI    C313485  14.084  10.297   5.432  0.0668  0.2207  0.2079
  949loPI   PO413486  13.681  10.380   5.777 -0.3420  0.2129  0.1106
  949loPI   GL113487  13.716  10.489   6.144 -0.0511 -0.3479  0.0473
  949loPI   GL213488  13.866  10.690   6.318 -0.1085  0.2896  0.0286
  949loPI   C1A13489  13.892  10.203   6.520  0.0752 -0.0127  0.0259
  949loPI   C2A13490  13.945   9.964   6.889  0.0338 -0.1807  0.0512
  949loPI   C3A13491  14.114   9.889   7.299 -0.1558  0.0783 -0.0566
  949loPI   C4A13492  14.332   9.822   7.686 -0.1823 -0.0979  0.1758
  949loPI   C5A13493  14.352  10.096   8.045 -0.1971 -0.2023 -0.2285
  949loPI   C6A13494  14.451   9.902   8.416 -0.1767  0.2827  0.2518
  949loPI   C1B13495  13.616  10.646   6.646 -0.2292 -0.1426  0.0725
  949loPI   C2B13496  13.613  10.508   6.978 -0.0831 -0.2769 -0.1715
  949loPI   C3B13497  13.659  10.715   7.440 -0.3327  0.2300  0.0595
  949loPI   C4B13498  13.858  10.404   7.759 -0.2717  0.0740 -0.0326
  950loPI    C113499  13.975   8.179   5.716 -0.2641 -0.4514  0.0648
  950loPI    C213500  13.762   7.921   5.497 -0.2862 -0.0716 -0.3760
  950loPI    C313501  13.606   8.276   5.595 -0.1290 -0.0849 -0.0664
  950loPI   PO413502  13.977   8.102   5.919  0.3148 -0.4220 -0.0541
  950loPI   GL113503  13.799   8.142   6.382 -0.3833  0.0516 -0.0362
  950loPI   GL213504  13.704   8.453   6.477 -0.2455  0.3373 -0.4118
  950loPI   C1A13505  13.715   8.144   6.858 -0.2568 -0.0055  0.0172
  950loPI   C2A13506  13.649   8.161   7.275  0.0863  0.1552  0.2497
  950loPI   C3A13507  13.888   8.280   7.671 -0.1101  0.1006 -0.2080
  950loPI   C4A13508  14.006   8.312   8.166  0.1148  0.0093  0.0217
  950loPI   C5A13509  13.818   8.191   8.621  0.5113  0.1706 -0.1519
  950loPI   C6A13510  14.006   8.183   8.967 -0.2373  0.0374 -0.0226
  950loPI   C1B13511  13.903   8.633   6.898 -0.0674  0.2444  0.0847
  950loPI   C2B13512  13.982   8.589   7.291  0.0899 -0.0693 -0.0513
  950loPI   C3B13513  14.164   8.637   7.747 -0.2081  0.3028 -0.0802
  950loPI   C4B13514  14.122   8.814   8.218  0.2041 -0.1280  0.3200
  951loPI    C113515  11.780  16.120   5.526 -0.0035  0.0563 -0.1462
  951loPI    C213516  11.515  15.958   5.273 -0.0293 -0.1341  0.0008
  951loPI    C313517  11.883  15.803   5.305  0.0083 -0.0451  0.0033
  951loPI   PO413518  11.728  16.063   5.881  0.0286 -0.3079  0.0006
  951loPI   GL113519  11.420  16.055   6.139  0.0150 -0.1051 -0.1400
  951loPI   GL213520  11.036  15.955   6.117 -0.3462 -0.2610 -0.2698
  951loPI   C1A13521  11.529  16.092   6.572 -0.2155 -0.0283  0.2770
  951loPI   C2A13522  11.594  16.060   6.977 -0.1687  0.0980  0.1193
  951loPI   C3A13523  11.757  16.326   7.377  0.2617  0.3241 -0.0236
  951loPI   C4A13524  11.911  16.348   7.779 -0.0703 -0.1896  0.0026
  951loPI   C5A13525  12.044  16.322   8.205 -0.1633 -0.0930  0.1478
  951loPI   C6A13526  12.106  16.706   8.496  0.0648  0.1126  0.2130
  951loPI   C1B13527  11.135  15.802   6.480  0.1882 -0.0301 -0.1659
  951loPI   C2B13528  11.114  15.848   6.863  0.1906 -0.0326  0.1018
  951loPI   C3B13529  11.192  15.938   7.259  0.3193  0.3173 -0.0879
  951loPI   C4B13530  11.180  15.973   7.621  0.0426 -0.1550  0.1793
  952loPI    C113531  11.574   4.040   5.594  0.0611  0.2629 -0.1187
  952loPI    C213532  11.738   4.032   5.229  0.0353  0.0623 -0.1272
  952loPI    C313533  11.965   3.971   5.552 -0.0216 -0.2261 -0.1395
  952loPI   PO413534  11.387   3.804   5.664  0.1450  0.2037  0.2286
  952loPI   GL113535  11.544   3.660   5.954  0.2343  0.0476 -0.1823
  952loPI   GL213536  11.687   3.886   6.071  0.2117  0.0603  0.2737
  952loPI   C1A13537  11.393   3.411   6.429 -0.0666  0.1556 -0.1267
  952loPI   C2A13538  11.335   3.247   6.889 -0.0746  0.0020 -0.2221
  952loPI   C3A13539  11.468   3.063   7.263  0.0997 -0.0928 -0.0885
  952loPI   C4A13540  11.552   3.027   7.651  0.0468 -0.0348 -0.1711
  952loPI   C5A13541  11.556   2.696   7.934  0.1102  0.2261  0.2050
  952loPI   C6A13542  11.803   2.369   8.112  0.2776  0.0313 -0.0551
  952loPI   C1B13543  11.641   3.872   6.408  0.0154 -0.1783  0.1280
  952loPI   C2B13544  11.547   3.708   6.824  0.1202 -0.0112  0.3688
  952loPI   C3B13545  11.538   3.586   7.213  0.5349  0.1399 -0.2573
  952loPI   C4B13546  11.404   3.508   7.688  0.0744  0.1036  0.0773
  953loPI    C113547  16.688   3.776   5.069 -0.1952  0.0333 -0.0398
  953loPI    C213548  16.886   4.093   4.927 -0.0029 -0.0177  0.1113
  953loPI    C313549  16.512   4.021   4.806  0.1048  0.0206 -0.2576
  953loPI   PO413550  16.745   3.678   5.326 -0.0205 -0.0067 -0.2111
  953loPI   GL113551  16.899   3.681   5.803  0.2716 -0.0310 -0.0075
  953loPI   GL213552  16.766   3.344   5.773 -0.0109  0.0574 -0.2071
  953loPI   C1A13553  16.871   3.605   6.227 -0.0040  0.1128  0.0667
  953loPI   C2A13554  16.575   3.447   6.484  0.0829  0.5843 -0.0451
  953loPI   C3A13555  16.380   3.519   6.860 -0.0213  0.0646 -0.1926
  953loPI   C4A13556  16.473   3.763   7.281 -0.0573 -0.2711  0.0331
  953loPI   C5A13557  16.736   3.932   7.517 -0.0092  0.0819  0.1682
  953loPI   C6A13558  16.999   4.073   7.736 -0.0490 -0.0818  0.2862
  953loPI   C1B13559  16.437   3.289   6.003  0.1247  0.4233 -0.2377
  953loPI   C2B13560  16.074   3.138   6.270 -0.0011 -0.0290  0.3256
  953loPI   C3B13561  15.624   3.206   6.172  0.3988 -0.0091  0.0826
  953loPI   C4B13562  15.401   3.411   5.813 -0.0392 -0.1612  0.1024
  954loPI    C113563  10.475   3.399   5.386  0.0118  0.0641  0.0989
  954loPI    C213564  10.755   3.388   5.100 -0.1007 -0.1146 -0.0064
  954loPI    C313565  10.391   3.530   5.018 -0.1021 -0.0697  0.0764
  954loPI   PO413566  10.612   3.266   5.550  0.2702  0.0977 -0.1086
  954loPI   GL113567  10.559   3.160   6.050 -0.0874  0.2086  0.4198
  954loPI   GL213568  10.407   2.950   6.275  0.2090 -0.3207 -0.1757
  954loPI   C1A13569  10.883   3.149   6.396  0.0805  0.1162  0.0569
  954loPI   C2A13570  11.060   2.773   6.583 -0.0135 -0.2165 -0.1504
  954loPI   C3A13571  11.284   2.656   6.975  0.1698 -0.0266 -0.3141
  954loPI   C4A13572  11.682   2.621   7.020  0.1987  0.1648  0.1155
  954loPI   C5A13573  11.954   2.894   7.339 -0.4214 -0.0405 -0.1709
  954loPI   C6A13574  12.018   2.823   7.827  0.0805  0.0781 -0.0541
  954loPI   C1B13575  10.515   2.791   6.684 -0.0770 -0.3849 -0.2788
  954loPI   C2B13576  10.465   2.730   7.130 -0.2406  0.0025  0.0030
  954loPI   C3B13577  10.513   2.630   7.582 -0.1524 -0.0848 -0.2779
  954loPI   C4B13578  10.283   2.613   7.954 -0.0680  0.2437 -0.4233
  955loPI    C113579  14.753  13.464   5.412  0.1154  0.0102 -0.0084
  955loPI    C213580  14.502  13.700   5.208 -0.0317  0.0218  0.1827
  955loPI    C313581  14.889  13.685   5.108 -0.1369 -0.1230 -0.2222
  955loPI   PO413582  14.656  13.497   5.689 -0.1892 -0.3129  0.2112
  955loPI   GL113583  14.400  13.488   6.097  0.3057  0.2009 -0.1497
  955loPI   GL213584  14.202  13.224   6.180 -0.2230 -0.1958 -0.2044
  955loPI   C1A13585  14.200  13.725   6.248  0.1322 -0.1394 -0.2698
  955loPI   C2A13586  14.059  13.844   6.628 -0.1327  0.3653 -0.3286
  955loPI   C3A13587  14.135  13.955   7.000 -0.1703 -0.0015  0.1801
  955loPI   C4A13588  14.394  14.110   7.248 -0.1054  0.2163 -0.0041
  955loPI   C5A13589  14.292  14.425   7.517  0.0241  0.0801  0.4985
  955loPI   C6A13590  13.937  14.496   7.786 -0.1717  0.0392 -0.1944
  955loPI   C1B13591  14.285  13.362   6.618  0.1317  0.3652  0.0930
  955loPI   C2B13592  14.285  13.421   7.085  0.1911 -0.2767  0.3371
  955loPI   C3B13593  14.181  13.422   7.464 -0.4007 -0.1211 -0.1824
  955loPI   C4B13594  14.292  13.506   7.876  0.0447 -0.2108  0.1242
  956loPI    C113595   3.653   6.128   5.703 -0.1629  0.0410  0.0397
  956loPI    C213596   3.354   5.992   5.475 -0.1326 -0.2927  0.1931
  956loPI    C313597   3.282   6.267   5.756 -0.2112 -0.0472 -0.0632
  956loPI   PO413598   3.866   5.854   5.752  0.0450  0.1202  0.0469
  956loPI   GL113599   3.930   5.577   6.177  0.1663  0.1405 -0.0683
  956loPI   GL213600   3.745   5.528   6.241 -0.2232  0.0469 -0.0858
  956loPI   C1A13601   4.096   5.496   6.574  0.0488 -0.1536 -0.1175
  956loPI   C2A13602   4.147   5.459   6.988  0.3497  0.2102  0.1160
  956loPI   C3A13603   4.130   5.382   7.377  0.1349 -0.0306 -0.0279
  956loPI   C4A13604   4.185   5.248   7.757  0.2062 -0.2585 -0.1440
  956loPI   C5A13605   4.548   5.249   7.986 -0.0641  0.0411  0.1485
  956loPI   C6A13606   4.995   5.135   7.906 -0.1756  0.1799  0.2344
  956loPI   C1B13607   3.641   5.419   6.701  0.2640  0.2437 -0.3097
  956loPI   C2B13608   3.658   5.492   7.111 -0.1503 -0.2280  0.1376
  956loPI   C3B13609   3.773   5.672   7.525  0.2963  0.2239  0.1922
  956loPI   C4B13610   3.956   5.578   7.974  0.2936  0.1174  0.1128
  957loPI    C113611   7.557  11.849   5.734  0.0405  0.2642 -0.0046
  957loPI    C213612   7.240  11.702   5.929  0.1670  0.0189  0.0214
  957loPI    C313613   7.192  11.882   5.574  0.0193 -0.1743 -0.0583
  957loPI   PO413614   7.671  11.945   6.091 -0.2788  0.2217 -0.2388
  957loPI   GL113615   7.838  11.894   6.526  0.1721  0.0637  0.0606
  957loPI   GL213616   7.645  11.837   6.726  0.1446 -0.0047  0.0413
  957loPI   C1A13617   8.105  11.880   6.835 -0.3817  0.0117 -0.1287
  957loPI   C2A13618   8.166  12.045   7.185  0.0850  0.0505  0.0748
  957loPI   C3A13619   8.393  12.175   7.464  0.2412 -0.0467  0.0834
  957loPI   C4A13620   8.442  12.507   7.849  0.3147  0.1992  0.0535
  957loPI   C5A13621   7.998  12.590   8.120 -0.0706 -0.1021  0.0602
  957loPI   C6A13622   7.553  12.694   8.226 -0.1171 -0.2725 -0.1268
  957loPI   C1B13623   7.581  11.919   7.179 -0.0580 -0.1925 -0.1507
  957loPI   C2B13624   7.482  11.933   7.619 -0.0529 -0.0551 -0.1817
  957loPI   C3B13625   7.607  12.015   7.991 -0.0026  0.3602  0.0088
  957loPI   C4B13626   7.737  12.155   8.346  0.3610  0.0678  0.1242
  958loPI    C113627   8.319   2.072   5.510  0.1326 -0.2653 -0.1178
  958loPI    C213628   8.438   2.246   5.169  0.1609  0.1060  0.0762
  958loPI    C313629   8.057   2.134   5.214  0.1929 -0.0977 -0.1373
  958loPI   PO413630   8.459   1.935   5.587  0.0066  0.1449  0.0685
  958loPI   GL113631   8.548   1.807   5.985 -0.0632  0.0940  0.1395
  958loPI   GL213632   8.297   1.643   6.225 -0.1399  0.1363 -0.1137
  958loPI   C1A13633   8.726   1.951   6.388  0.0323 -0.0170  0.5894
  958loPI   C2A13634   8.715   2.059   6.873  0.0634  0.0375  0.0174
  958loPI   C3A13635   8.670   2.134   7.302 -0.0832  0.0711 -0.3657
  958loPI   C4A13636   8.837   2.083   7.743 -0.3081  0.3435 -0.0463
  958loPI   C5A13637   9.002   1.885   8.146  0.0239  0.0261  0.2216
  958loPI   C6A13638   9.122   1.776   8.601  0.1848 -0.0449 -0.0897
  958loPI   C1B13639   8.208   1.798   6.671 -0.0345  0.1470 -0.0452
  958loPI   C2B13640   8.205   2.015   7.065  0.0127 -0.3047 -0.2560
  958loPI   C3B13641   8.215   2.031   7.515 -0.0887  0.0522  0.0851
  958loPI   C4B13642   8.123   2.015   7.895 -0.1200 -0.1489 -0.1607
  959loPI    C113643  12.273   8.132   6.113  0.3514  0.1415 -0.0679
  959loPI    C213644  12.395   7.844   5.864 -0.0831 -0.0427 -0.0770
  959loPI    C313645  12.160   8.138   5.729 -0.1596 -0.0349  0.0711
  959loPI   PO413646  12.278   7.895   6.324  0.3175 -0.0802  0.0422
  959loPI   GL113647  12.006   7.872   6.533 -0.1556  0.1017  0.1740
  959loPI   GL213648  11.801   8.092   6.519 -0.1561  0.0782 -0.0286
  959loPI   C1A13649  11.723   7.676   6.806  0.1446  0.1591  0.0046
  959loPI   C2A13650  11.537   7.699   7.243  0.1460 -0.0335 -0.2608
  959loPI   C3A13651  11.513   7.372   7.622  0.0906  0.0334  0.5167
  959loPI   C4A13652  11.521   7.118   7.985 -0.0250 -0.0071  0.1629
  959loPI   C5A13653  11.264   6.734   8.130  0.2010  0.0324 -0.1571
  959loPI   C6A13654  11.385   6.354   8.321  0.2677  0.1877 -0.3529
  959loPI   C1B13655  11.937   8.227   6.867  0.1417 -0.0034 -0.0069
  959loPI   C2B13656  11.815   8.277   7.298  0.2770 -0.1581  0.1896
  959loPI   C3B13657  11.930   8.355   7.674  0.3190 -0.0244 -0.2684
  959loPI   C4B13658  11.772   8.420   8.171  0.0779  0.4234 -0.2555
  960loPI    C113659   2.411  13.523   5.129  0.0810 -0.2196  0.0802
  960loPI    C213660   2.173  13.512   4.808 -0.0052  0.0959  0.1296
  960loPI    C313661   2.426  13.211   4.880 -0.2300 -0.1391 -0.0443
  960loPI   PO413662   2.241  13.709   5.361 -0.2415  0.2099 -0.1254
  960loPI   GL113663   2.181  13.722   5.730 -0.2481 -0.0858  0.1020
  960loPI   GL213664   1.967  13.838   5.972 -0.0725  0.1711 -0.3042
  960loPI   C1A13665   2.092  13.371   6.135  0.1862 -0.0565 -0.0210
  960loPI   C2A13666   2.072  13.425   6.588  0.1258  0.1604 -0.0222
  960loPI   C3A13667   1.958  13.683   6.991  0.2512  0.0965  0.1272
  960loPI   C4A13668   1.778  14.058   7.258 -0.0607  0.2541 -0.1411
  960loPI   C5A13669   1.709  14.107   7.663  0.1901  0.1213  0.1662
  960loPI   C6A13670   1.400  14.152   7.937  0.1082  0.1900  0.0472
  960loPI   C1B13671   1.725  13.711   6.357  0.0898 -0.3801 -0.1225
  960loPI   C2B13672   1.412  13.503   6.745  0.2452  0.1178  0.3943
  960loPI   C3B13673   1.173  13.249   7.013  0.0110  0.2234 -0.1447
  960loPI   C4B13674   0.999  13.130   7.466 -0.1010 -0.1108  0.0194
  961loPI    C113675  14.832   4.120   5.303  0.1324 -0.1548  0.0478
  961loPI    C213676  14.809   4.317   5.651  0.0221 -0.1904  0.0609
  961loPI    C313677  14.620   4.458   5.328 -0.1027 -0.3024  0.0837
  961loPI   PO413678  15.019   3.980   5.308 -0.0697 -0.3279 -0.0541
  961loPI   GL113679  15.124   3.835   5.656  0.2395 -0.1442  0.0892
  961loPI   GL213680  15.145   4.020   5.871  0.2702  0.1342  0.0597
  961loPI   C1A13681  14.957   3.651   6.126 -0.1383  0.0858  0.1176
  961loPI   C2A13682  14.995   3.987   6.461  0.1305  0.1443  0.1488
  961loPI   C3A13683  14.771   4.195   6.707  0.0457  0.3764 -0.0547
  961loPI   C4A13684  14.721   4.454   6.958 -0.0070 -0.1499  0.1941
  961loPI   C5A13685  14.635   4.791   7.195 -0.1330  0.3707  0.0398
  961loPI   C6A13686  14.214   4.942   7.393  0.3340 -0.1335 -0.3262
  961loPI   C1B13687  15.304   4.224   6.202  0.1206 -0.2310 -0.0331
  961loPI   C2B13688  15.525   3.996   6.599  0.0614 -0.3791 -0.0895
  961loPI   C3B13689  15.352   3.822   7.120  0.2588 -0.1531  0.1225
  961loPI   C4B13690  15.065   4.150   7.419  0.0799  0.0478  0.3144
  962loPI    C113691   7.650   7.523   5.717 -0.0032 -0.0613 -0.0799
  962loPI    C213692   7.564   7.147   5.610  0.0256 -0.0205 -0.2497
  962loPI    C313693   7.698   7.406   5.337 -0.0180  0.1206 -0.1383
  962loPI   PO413694   7.728   7.480   6.022 -0.1896 -0.3083 -0.0652
  962loPI   GL113695   7.474   7.627   6.470 -0.1512 -0.3163  0.3117
  962loPI   GL213696   7.413   7.278   6.502  0.1620  0.0709  0.1170
  962loPI   C1A13697   7.588   7.781   6.887 -0.1182 -0.0752  0.0869
  962loPI   C2A13698   7.813   7.784   7.273 -0.0254  0.0497  0.1538
  962loPI   C3A13699   7.754   7.907   7.672  0.1985  0.3541  0.0721
  962loPI   C4A13700   7.742   8.053   8.080  0.1159 -0.0265  0.0136
  962loPI   C5A13701   7.970   7.984   8.457 -0.0996 -0.0151 -0.1597
  962loPI   C6A13702   8.155   8.003   8.829 -0.3443 -0.1201 -0.1812
  962loPI   C1B13703   7.359   7.366   6.898 -0.0101 -0.3536  0.2518
  962loPI   C2B13704   7.440   7.458   7.265  0.0926  0.2425  0.2359
  962loPI   C3B13705   7.540   7.442   7.768 -0.3921  0.1192  0.0162
  962loPI   C4B13706   7.837   7.375   8.094 -0.0399  0.1335  0.3257
  963loPI    C113707  15.703   2.086   4.924 -0.3093  0.1527  0.0952
  963loPI    C213708  15.878   2.362   5.155 -0.0148  0.1521 -0.1220
  963loPI    C313709  15.865   2.412   4.758 -0.1309 -0.0538 -0.1453
  963loPI   PO413710  15.752   1.867   5.183 -0.3838 -0.5054 -0.2868
  963loPI   GL113711  15.479   1.607   5.513 -0.3353  0.2003  0.4177
  963loPI   GL213712  15.305   1.852   5.636  0.2516  0.1662  0.3196
  963loPI   C1A13713  15.631   1.692   5.936  0.0709 -0.0094  0.0417
  963loPI   C2A13714  15.690   1.813   6.380  0.1341  0.0025  0.0009
  963loPI   C3A13715  15.546   1.984   6.761  0.0240  0.1488  0.0940
  963loPI   C4A13716  15.610   2.063   7.155 -0.1329  0.1852 -0.0377
  963loPI   C5A13717  15.696   1.994   7.640 -0.1519 -0.1474  0.0455
  963loPI   C6A13718  15.758   1.589   7.833  0.0126 -0.0635 -0.0368
  963loPI   C1B13719  15.293   2.141   5.752  0.1646 -0.0023  0.0471
  963loPI   C2B13720  15.447   2.212   6.050 -0.1471 -0.0341  0.3112
  963loPI   C3B13721  15.579   2.279   6.381 -0.2066  0.0192 -0.1401
  963loPI   C4B13722  15.522   2.429   6.832  0.1342 -0.0213 -0.0824
  964loPI    C113723   9.546   1.542   5.588 -0.0363  0.0012  0.1354
  964loPI    C213724   9.920   1.591   5.721 -0.0060  0.0294  0.0404
  964loPI    C313725   9.850   1.366   5.398 -0.0630  0.0852  0.0135
  964loPI   PO413726   9.413   1.552   5.747 -0.2908 -0.1162 -0.1856
  964loPI   GL113727   9.024   1.392   5.895  0.3508  0.0494  0.1914
  964loPI   GL213728   9.058   1.713   6.113  0.2201  0.3643 -0.0339
  964loPI   C1A13729   9.164   1.222   6.277  0.1251  0.2009  0.0433
  964loPI   C2A13730   9.022   1.181   6.738  0.0537 -0.3311  0.1026
  964loPI   C3A13731   8.916   1.222   7.175  0.0717 -0.0313 -0.2109
  964loPI   C4A13732   8.765   1.235   7.580  0.0624  0.2020 -0.3114
  964loPI   C5A13733   8.338   1.206   7.887  0.0028 -0.0223  0.0203
  964loPI   C6A13734   8.414   1.156   8.289 -0.3062  0.1569  0.1678
  964loPI   C1B13735   9.120   1.673   6.558 -0.1599 -0.1747  0.1720
  964loPI   C2B13736   9.058   1.730   7.057 -0.0420  0.0793 -0.0969
  964loPI   C3B13737   9.141   1.670   7.449 -0.1968 -0.2660  0.2614
  964loPI   C4B13738   9.282   1.543   7.906 -0.0720 -0.1474 -0.1841
  965loPI    C113739  13.573   9.078   5.960 -0.0972  0.1733  0.4171
  965loPI    C213740  13.661   8.921   6.317  0.0739  0.1460  0.3636
  965loPI    C313741  13.931   9.146   6.125  0.0647 -0.0182  0.1537
  965loPI   PO413742  13.243   9.140   6.122 -0.1164 -0.1878 -0.0574
  965loPI   GL113743  13.079   8.919   6.425 -0.1771  0.1545  0.1744
  965loPI   GL213744  13.247   8.622   6.348  0.1448 -0.1262 -0.1721
  965loPI   C1A13745  13.281   9.250   6.765 -0.1120  0.1868  0.0919
  965loPI   C2A13746  13.128   9.565   7.088  0.0310 -0.0377 -0.1951
  965loPI   C3A13747  12.704   9.594   7.339 -0.0268 -0.0714 -0.0332
  965loPI   C4A13748  12.516   9.571   7.643  0.1045 -0.1470  0.0806
  965loPI   C5A13749  12.506   9.466   7.999  0.1325 -0.0684 -0.1186
  965loPI   C6A13750  12.417   9.323   8.423  0.0271  0.1448 -0.2910
  965loPI   C1B13751  13.373   8.710   6.813 -0.3180 -0.0894 -0.2114
  965loPI   C2B13752  13.462   8.581   7.170 -0.3796 -0.1298  0.2748
  965loPI   C3B13753  13.424   8.569   7.514  0.0255  0.0159 -0.2726
  965loPI   C4B13754  13.713   8.694   7.913  0.1250 -0.0790 -0.0660
  966loPI    C113755  10.140  18.160   5.659 -0.1200  0.0541  0.0991
  966loPI    C213756   9.980  18.515   5.569  0.2960  0.2206 -0.0073
  966loPI    C313757   9.986  18.223   5.296  0.0977  0.1828  0.0272
  966loPI   PO413758  10.349  18.262   5.799 -0.0136 -0.0328  0.0955
  966loPI   GL113759  10.481  18.194   6.211 -0.0738  0.1149  0.1243
  966loPI   GL213760  10.720  18.091   6.188 -0.1141 -0.1493  0.0149
  966loPI   C1A13761  10.276  18.184   6.566  0.0355  0.2994  0.1958
  966loPI   C2A13762  10.294  18.229   7.083 -0.0501  0.1746  0.1972
  966loPI   C3A13763  10.445  18.372   7.498  0.4309  0.0533 -0.1577
  966loPI   C4A13764  10.700  18.268   7.785  0.0477  0.0459 -0.3383
  966loPI   C5A13765  10.812  17.876   8.131  0.0358  0.2948 -0.3431
  966loPI   C6A13766  11.211  17.647   8.108 -0.0575  0.0506  0.0832
  966loPI   C1B13767  10.875  17.833   6.440  0.0648  0.0990  0.1783
  966loPI   C2B13768  11.114  17.777   6.822 -0.0767  0.1555 -0.1292
  966loPI   C3B13769  11.192  17.761   7.296 -0.3156 -0.0025  0.1527
  966loPI   C4B13770  11.120  18.047   7.630  0.0462 -0.1730  0.0610
  967loPI    C113771  14.382  16.733   5.238  0.0487 -0.0354 -0.1490
  967loPI    C213772  14.555  16.695   4.880  0.0423 -0.2850 -0.1275
  967loPI    C313773  14.735  16.907   5.168 -0.0044  0.0088 -0.3097
  967loPI   PO413774  14.119  16.836   5.290  0.1293  0.2503  0.1369
  967loPI   GL113775  14.014  17.114   5.560  0.1318  0.0138  0.3277
  967loPI   GL213776  14.295  17.015   5.721 -0.0019 -0.1678  0.2715
  967loPI   C1A13777  13.968  17.301   6.007 -0.0869  0.0139 -0.1822
  967loPI   C2A13778  14.116  17.286   6.310  0.1077  0.0495  0.0980
  967loPI   C3A13779  14.087  17.390   6.691 -0.0415 -0.1773 -0.0096
  967loPI   C4A13780  13.971  17.295   7.135  0.1082  0.0043  0.2833
  967loPI   C5A13781  13.855  17.190   7.480  0.0100  0.0932  0.3210
  967loPI   C6A13782  13.777  17.235   7.858 -0.0376  0.0450 -0.1524
  967loPI   C1B13783  14.386  16.844   6.155  0.2199  0.0722  0.3396
  967loPI   C2B13784  14.383  16.828   6.571  0.1525  0.1174 -0.1876
  967loPI   C3B13785  14.394  16.915   7.031 -0.2956 -0.3829 -0.0070
  967loPI   C4B13786  14.331  17.195   7.503 -0.1437  0.0825 -0.0620
  968loPI    C113787   5.456   0.635   5.539  0.2530  0.2429  0.1117
  968loPI    C213788   5.642   0.328   5.363  0.0170  0.2630 -0.1814
  968loPI    C313789   5.751   0.703   5.278  0.1107  0.2676 -0.0447
  968loPI   PO413790   5.371   0.567   5.761  0.0317 -0.0138  0.3073
  968loPI   GL113791   5.453   0.558   6.211  0.0683 -0.2630  0.0042
  968loPI   GL213792   5.329   0.322   6.264 -0.0152  0.0590  0.2357
  968loPI   C1A13793   5.345   0.547   6.686  0.0564  0.2382  0.0662
  968loPI   C2A13794   5.268   0.515   7.112 -0.2230 -0.3224  0.0009
  968loPI   C3A13795   5.186   0.680   7.482  0.1901  0.2485  0.2051
  968loPI   C4A13796   5.036   0.702   7.949  0.2356  0.3201 -0.2582
  968loPI   C5A13797   4.699   0.521   8.125 -0.1161  0.0810  0.0743
  968loPI   C6A13798   4.233   0.400   8.061  0.1521 -0.0655 -0.0124
  968loPI   C1B13799   4.888   0.307   6.498 -0.4275 -0.2236  0.0571
  968loPI   C2B13800   4.739   0.301   6.898  0.0407 -0.0921  0.4460
  968loPI   C3B13801   4.892   0.335   7.354 -0.0047 -0.0779  0.0968
  968loPI   C4B13802   5.077   0.222   7.743 -0.1487 -0.3126 -0.0495
  969loPI    C113803  11.496  17.585   5.785 -0.0573 -0.0115  0.2007
  969loPI    C213804  11.344  17.884   5.567  0.1731 -0.0716 -0.0477
  969loPI    C313805  11.583  17.612   5.396  0.3882 -0.1013  0.2881
  969loPI   PO413806  11.396  17.415   5.899 -0.0297  0.1075 -0.0261
  969loPI   GL113807  11.371  17.450   6.273  0.0207 -0.0900 -0.0216
  969loPI   GL213808  11.373  17.085   6.272 -0.2083 -0.0664 -0.0775
  969loPI   C1A13809  11.588  17.715   6.541 -0.0020  0.0981 -0.1475
  969loPI   C2A13810  11.613  17.730   6.933  0.1171  0.0526  0.1013
  969loPI   C3A13811  11.685  17.731   7.332 -0.1659  0.1687  0.0099
  969loPI   C4A13812  11.740  17.667   7.737 -0.2191 -0.0737  0.2403
  969loPI   C5A13813  11.721  17.584   8.174 -0.1168 -0.1762  0.0319
  969loPI   C6A13814  11.825  17.133   8.412  0.1738 -0.0967  0.0901
  969loPI   C1B13815  11.404  17.249   6.697  0.4383  0.1144  0.1391
  969loPI   C2B13816  11.438  17.327   7.152  0.0336  0.0625  0.2243
  969loPI   C3B13817  11.431  17.293   7.652  0.0525 -0.1028 -0.0637
  969loPI   C4B13818  11.262  17.138   8.061  0.0134 -0.1804  0.0039
  970loPI    C113819   0.930   3.599   5.722 -0.1380 -0.1222 -0.2628
  970loPI    C213820   0.690   3.877   5.563 -0.0407  0.0274 -0.1508
  970loPI    C313821   1.046   3.802   5.397 -0.0202  0.0480 -0.1160
  970loPI   PO413822   1.013   3.709   5.935 -0.1851 -0.0125 -0.3403
  970loPI   GL113823   1.269   3.611   6.245  0.1293 -0.2533  0.1483
  970loPI   GL213824   1.002   3.416   6.363  0.1024 -0.0160  0.0373
  970loPI   C1A13825   1.159   3.928   6.544 -0.1423  0.1459 -0.1373
  970loPI   C2A13826   1.037   3.941   6.911 -0.0130 -0.1317 -0.4447
  970loPI   C3A13827   1.152   3.969   7.362 -0.0689 -0.2731  0.1623
  970loPI   C4A13828   1.008   3.961   7.787 -0.1504  0.0412 -0.3303
  970loPI   C5A13829   0.886   3.772   8.138 -0.1462 -0.0340 -0.0224
  970loPI   C6A13830   0.637   3.759   8.366  0.0148 -0.0697 -0.0864
  970loPI   C1B13831   1.279   3.466   6.784 -0.2782 -0.3051  0.2553
  970loPI   C2B13832   1.262   3.482   7.203 -0.2253 -0.4089  0.1517
  970loPI   C3B13833   1.561   3.654   7.494 -0.1247 -0.1045  0.0951
  970loPI   C4B13834   2.005   3.796   7.528  0.0260  0.0322  0.2135
  971loPI    C113835  10.389  10.642   5.694 -0.3893 -0.1877 -0.0412
  971loPI    C213836  10.319  10.954   5.455 -0.1318  0.0124  0.1389
  971loPI    C313837  10.502  10.629   5.311 -0.0883  0.0827  0.0339
  971loPI   PO413838  10.370  10.864   5.935 -0.2356  0.3461  0.0952
  971loPI   GL113839  10.568  11.027   6.305  0.1742  0.0755  0.0754
  971loPI   GL213840  10.742  10.791   6.536 -0.1604  0.1515 -0.3468
  971loPI   C1A13841  10.454  11.111   6.753  0.2095 -0.1067 -0.2197
  971loPI   C2A13842  10.318  11.073   7.172  0.1878  0.1997 -0.0551
  971loPI   C3A13843  10.472  11.226   7.555 -0.1727  0.0568 -0.2720
  971loPI   C4A13844  10.274  11.149   8.026  0.5102  0.1144  0.4558
  971loPI   C5A13845  10.280  10.897   8.379  0.0373 -0.0000  0.2642
  971loPI   C6A13846  10.309  10.454   8.399 -0.3373  0.1203  0.1081
  971loPI   C1B13847  10.686  10.514   6.915  0.0465 -0.0707  0.1257
  971loPI   C2B13848  10.759  10.318   7.164 -0.0274  0.0730  0.0464
  971loPI   C3B13849  10.674  10.184   7.611 -0.0598  0.0689  0.0972
  971loPI   C4B13850  10.859  10.202   7.955 -0.0922  0.1012  0.1700
  972loPI    C113851  11.667   3.037   5.290 -0.1600  0.0174  0.0126
  972loPI    C213852  11.620   2.738   5.028  0.0490 -0.0175  0.0139
  972loPI    C313853  11.717   3.104   4.899  0.1713 -0.0392  0.0428
  972loPI   PO413854  11.818   3.025   5.465  0.3360  0.1128 -0.4726
  972loPI   GL113855  11.978   2.590   5.444  0.2221 -0.0266  0.0520
  972loPI   GL213856  11.851   2.230   5.412  0.4184 -0.0462 -0.0795
  972loPI   C1A13857  12.284   2.360   5.795  0.2764  0.0563  0.0652
  972loPI   C2A13858  12.514   2.042   6.155  0.1082 -0.1675  0.1364
  972loPI   C3A13859  12.637   1.983   6.532  0.1079  0.2457 -0.1313
  972loPI   C4A13860  12.437   1.846   6.799 -0.2063  0.3886 -0.0477
  972loPI   C5A13861  12.220   1.582   7.131 -0.0283  0.2231  0.2136
  972loPI   C6A13862  11.785   1.223   7.192 -0.0263  0.0420  0.0392
  972loPI   C1B13863  11.900   1.903   5.793 -0.0881 -0.0686 -0.5690
  972loPI   C2B13864  11.881   1.514   5.940 -0.0423 -0.3972 -0.1340
  972loPI   C3B13865  11.771   1.167   6.241  0.1651 -0.0638 -0.1633
  972loPI   C4B13866  11.762   1.123   6.627 -0.4059  0.3336 -0.3372
  973loPI    C113867  17.375  11.456   5.666 -0.1336  0.0504  0.0122
  973loPI    C213868  17.428  11.149   5.415  0.1352  0.0423  0.0758
  973loPI    C313869  17.458  11.525   5.281  0.1104  0.0391  0.0612
  973loPI   PO413870  17.548  11.357   5.874  0.0074  0.0500 -0.0190
  973loPI   GL113871  17.636  11.410   6.271  0.0352  0.2629  0.2252
  973loPI   GL213872  17.366  11.586   6.374  0.2755 -0.2196  0.0274
  973loPI   C1A13873  17.958  11.501   6.523 -0.0613  0.3608  0.2587
  973loPI   C2A13874  18.384  11.660   6.585 -0.0407  0.1776 -0.0532
  973loPI   C3A13875  18.812  11.722   6.822 -0.0817  0.0391 -0.2095
  973loPI   C4A13876  19.020  11.929   7.198 -0.3902 -0.4056  0.4316
  973loPI   C5A13877  19.035  12.362   7.294  0.1283  0.0489  0.3319
  973loPI   C6A13878  18.993  12.686   7.526  0.1236 -0.1079 -0.1190
  973loPI   C1B13879  17.665  11.765   6.746 -0.2443 -0.3524 -0.4190
  973loPI   C2B13880  17.954  11.603   7.109 -0.0368  0.3585  0.1033
  973loPI   C3B13881  18.266  11.495   7.391 -0.1077 -0.0179  0.0225
  973loPI   C4B13882  18.542  11.276   7.590 -0.0531  0.0489  0.0737
  974loPI    C113883  10.909   9.361   6.048 -0.1810  0.0511  0.1076
  974loPI    C213884  10.989   9.073   6.313  0.2269  0.0673  0.0091
  974loPI    C313885  11.023   8.999   5.922  0.0081  0.1556 -0.0278
  974loPI   PO413886  10.936   9.593   6.256  0.1318  0.1019  0.2128
  974loPI   GL113887  10.629   9.889   6.363  0.0203 -0.0504  0.4997
  974loPI   GL213888  10.711  10.174   6.438 -0.1993  0.0943  0.0394
  974loPI   C1A13889  10.792   9.861   6.837  0.1292 -0.4097 -0.0420
  974loPI   C2A13890  10.731   9.502   7.132 -0.0366 -0.3054 -0.0691
  974loPI   C3A13891  10.686   9.241   7.460  0.0115 -0.5136  0.0026
  974loPI   C4A13892  10.704   9.113   7.821  0.0406 -0.1500 -0.2614
  974loPI   C5A13893  10.943   8.750   8.100  0.0568  0.2394 -0.1780
  974loPI   C6A13894  11.014   8.583   8.425 -0.3259 -0.1859 -0.0985
  974loPI   C1B13895  10.373  10.338   6.469  0.1548 -0.4070  0.0040
  974loPI   C2B13896   9.949  10.312   6.710  0.4143 -0.0061 -0.1758
  974loPI   C3B13897   9.888  10.147   7.110 -0.0808  0.0131  0.2158
  974loPI   C4B13898   9.896  10.319   7.551 -0.0217 -0.0231 -0.1136
  975loPI    C113899  18.174   7.863   5.612  0.0007 -0.0054  0.1531
  975loPI    C213900  18.436   7.583   5.498 -0.0535  0.0372 -0.0806
  975loPI    C313901  18.523   7.970   5.448  0.0214  0.0642  0.2422
  975loPI   PO413902  18.100   7.731   5.816  0.0708 -0.1314 -0.0331
  975loPI   GL113903  18.098   7.721   6.209  0.0113 -0.0715  0.1077
  975loPI   GL213904  17.854   7.483   6.498  0.0979  0.1165  0.0253
  975loPI   C1A13905  18.183   7.990   6.582 -0.0785 -0.1337  0.1538
  975loPI   C2A13906  18.430   8.033   7.004  0.2381 -0.0113  0.4101
  975loPI   C3A13907  18.471   8.004   7.428 -0.1320 -0.0649 -0.0996
  975loPI   C4A13908  18.508   8.186   7.778 -0.0449  0.1003 -0.4243
  975loPI   C5A13909  18.331   8.351   8.189 -0.2180 -0.1100 -0.2156
  975loPI   C6A13910  18.200   8.644   8.534  0.0727 -0.2272  0.0141
  975loPI   C1B13911  17.996   7.519   6.830 -0.1715 -0.1645  0.2507
  975loPI   C2B13912  18.132   7.630   7.093  0.0204  0.2034 -0.0548
  975loPI   C3B13913  18.062   7.708   7.530 -0.0953  0.3930 -0.1323
  975loPI   C4B13914  18.035   8.007   7.958  0.1319  0.0258  0.0334
  976loPI    C113915   6.794   1.783   5.790  0.0420  0.0372 -0.0840
  976loPI    C213916   6.618   1.530   6.045 -0.1546  0.0254 -0.2289
  976loPI    C313917   6.838   1.388   5.743  0.0274  0.0380 -0.1042
  976loPI   PO413918   6.950   1.997   5.980 -0.2066 -0.2010 -0.1079
  976loPI   GL113919   7.191   2.115   6.308 -0.1959  0.2235 -0.0447
  976loPI   GL213920   6.974   2.290   6.598 -0.3554 -0.0919 -0.3652
  976loPI   C1A13921   7.317   1.916   6.699 -0.1512  0.0158 -0.1955
  976loPI   C2A13922   7.126   2.209   7.174 -0.0647 -0.4052 -0.1783
  976loPI   C3A13923   6.880   2.354   7.544  0.0867  0.0296 -0.0841
  976loPI   C4A13924   6.676   2.242   7.928  0.0848  0.0641  0.1021
  976loPI   C5A13925   6.641   2.019   8.187 -0.2012  0.0018 -0.0693
  976loPI   C6A13926   6.309   1.829   8.418 -0.0417  0.2620 -0.3027
  976loPI   C1B13927   6.656   2.417   6.960 -0.4088 -0.4191 -0.1844
  976loPI   C2B13928   6.453   2.425   7.333  0.1420  0.0949 -0.0776
  976loPI   C3B13929   6.333   2.537   7.706  0.1388  0.3272 -0.0973
  976loPI   C4B13930   6.317   2.549   8.084  0.2894 -0.2133 -0.0190
  977loPI    C113931   6.540  16.729   5.912 -0.1244 -0.2185  0.0634
  977loPI    C213932   6.554  16.604   5.532 -0.1341  0.0132 -0.0147
  977loPI    C313933   6.312  16.423   5.794 -0.0716 -0.1957 -0.1001
  977loPI   PO413934   6.553  17.044   5.933  0.1949 -0.1555  0.1450
  977loPI   GL113935   6.326  17.159   6.161  0.1249 -0.5258  0.3764
  977loPI   GL213936   6.127  16.927   6.130  0.1625 -0.0593  0.1079
  977loPI   C1A13937   6.346  17.112   6.588  0.0016  0.1249 -0.3414
  977loPI   C2A13938   6.405  17.138   7.057  0.2152  0.2948 -0.0527
  977loPI   C3A13939   6.451  17.048   7.469 -0.2363 -0.1714 -0.0857
  977loPI   C4A13940   6.430  17.099   7.903  0.0577 -0.2537  0.1451
  977loPI   C5A13941   6.756  17.146   8.198 -0.1325 -0.1918  0.1434
  977loPI   C6A13942   6.732  17.237   8.655  0.1212  0.3103 -0.1263
  977loPI   C1B13943   6.185  16.558   6.388  0.0041 -0.2376  0.0017
  977loPI   C2B13944   6.278  16.681   6.854  0.0722  0.0495 -0.0775
  977loPI   C3B13945   6.393  16.617   7.295  0.0014 -0.1060  0.1502
  977loPI   C4B13946   6.734  16.631   7.542 -0.2270 -0.1322  0.0630
  978loPI    C113947  11.596   9.225   5.857  0.0953  0.0798 -0.2171
  978loPI    C213948  11.365   9.087   5.562 -0.1292  0.1233 -0.0639
  978loPI    C313949  11.679   8.873   5.685 -0.0282  0.1094 -0.3384
  978loPI   PO413950  11.411   9.291   6.098  0.0607  0.0076  0.1954
  978loPI   GL113951  11.408   9.160   6.520  0.0780  0.0919 -0.0104
  978loPI   GL213952  11.250   9.459   6.642 -0.0614 -0.3632 -0.1504
  978loPI   C1A13953  11.411   9.065   6.931  0.1877  0.0860 -0.1597
  978loPI   C2A13954  11.148   9.094   7.360 -0.1331  0.2122 -0.0823
  978loPI   C3A13955  11.179   9.145   7.823  0.2467  0.0624  0.0748
  978loPI   C4A13956  11.074   9.435   8.046 -0.1929 -0.2662  0.1786
  978loPI   C5A13957  10.890   9.806   8.231  0.1452  0.1295 -0.1223
  978loPI   C6A13958  10.575  10.043   8.320 -0.0288 -0.0070 -0.2315
  978loPI   C1B13959  11.251   9.534   7.044  0.0282  0.2340  0.1008
  978loPI   C2B13960  11.270   9.532   7.476 -0.0815  0.2336 -0.1385
  978loPI   C3B13961  11.470   9.722   7.866 -0.0729  0.0587  0.4975
  978loPI   C4B13962  11.439   9.690   8.304 -0.0127  0.1436 -0.0055
  979loPI    C113963   7.364  17.578   5.468 -0.1167  0.1452 -0.1160
  979loPI    C213964   7.280  17.459   5.095 -0.3188 -0.0719 -0.0045
  979loPI    C313965   7.322  17.849   5.177  0.0728 -0.0417 -0.3207
  979loPI   PO413966   7.195  17.441   5.632  0.1205  0.0625 -0.1141
  979loPI   GL113967   7.156  17.380   5.968 -0.2271  0.0542 -0.3409
  979loPI   GL213968   7.315  17.671   6.058 -0.2539 -0.0740  0.0704
  979loPI   C1A13969   7.424  17.157   6.292 -0.1313  0.0895 -0.2557
  979loPI   C2A13970   7.502  17.177   6.670 -0.3057 -0.1010  0.0170
  979loPI   C3A13971   7.716  17.259   7.056  0.0635  0.0483  0.0500
  979loPI   C4A13972   7.842  17.036   7.391  0.2148  0.1635 -0.0693
  979loPI   C5A13973   8.049  17.187   7.730  0.2287  0.2835  0.1303
  979loPI   C6A13974   8.177  17.523   8.132 -0.1182  0.0535 -0.0398
  979loPI   C1B13975   7.328  17.619   6.560 -0.1294 -0.0930  0.1790
  979loPI   C2B13976   7.300  17.553   6.917  0.3228  0.1217 -0.0452
  979loPI   C3B13977   7.278  17.343   7.354 -0.0431  0.2200  0.0384
  979loPI   C4B13978   7.488  17.260   7.790  0.2856 -0.1068  0.2673
  980loPI    C113979   0.600   0.889   5.539  0.0733  0.0366 -0.0727
  980loPI    C213980   0.639   0.494   5.494 -0.1265  0.0371 -0.2679
  980loPI    C313981   0.850   0.743   5.263 -0.0086  0.0460 -0.1521
  980loPI   PO413982   0.451   0.861   5.735 -0.1082  0.0671 -0.0155
  980loPI   GL113983   0.093   0.835   6.016 -0.0261 -0.2431 -0.2734
  980loPI   GL213984   0.182   0.636   6.099 -0.0696 -0.1204 -0.2570
  980loPI   C1A13985  -0.303   0.953   6.095 -0.0449 -0.1052 -0.1611
  980loPI   C2A13986  -0.557   1.067   6.398  0.2821 -0.0561  0.1108
  980loPI   C3A13987  -0.526   0.867   6.735 -0.1459 -0.0152 -0.1902
  980loPI   C4A13988  -0.561   0.725   7.134 -0.0964  0.0608 -0.1688
  980loPI   C5A13989  -0.619   0.808   7.605  0.1042  0.0457  0.0878
  980loPI   C6A13990  -0.912   0.855   7.995  0.1702  0.0962 -0.1545
  980loPI   C1B13991   0.014   0.666   6.532  0.3917 -0.0215  0.0918
  980loPI   C2B13992  -0.067   0.756   7.033 -0.0566  0.2430  0.1022
  980loPI   C3B13993   0.045   0.664   7.406 -0.0429 -0.1979 -0.0716
  980loPI   C4B13994   0.220   1.125   7.535 -0.1540 -0.0607 -0.3109
  981loPI    C113995  13.702   5.566   5.503  0.0023 -0.0947  0.0797
  981loPI    C213996  14.079   5.666   5.415 -0.0260  0.0213  0.0881
  981loPI    C313997  13.776   5.837   5.218 -0.0742 -0.0760  0.0772
  981loPI   PO413998  13.710   5.353   5.477  0.2146  0.0796 -0.0960
  981loPI   GL113999  13.818   5.029   5.831  0.1664 -0.1595  0.0016
  981loPI   GL214000  13.676   4.672   5.922 -0.1044 -0.3066  0.1479
  981loPI   C1A14001  13.645   5.090   6.321  0.2395 -0.4307  0.4374
  981loPI   C2A14002  13.726   5.103   6.699 -0.1073  0.3582  0.0420
  981loPI   C3A14003  13.660   4.945   7.121  0.2311  0.0739  0.0763
  981loPI   C4A14004  13.700   4.711   7.471  0.0438 -0.3299 -0.1328
  981loPI   C5A14005  13.966   4.721   7.790 -0.5188  0.1005 -0.1572
  981loPI   C6A14006  14.454   4.584   7.844 -0.1331  0.1435  0.0125
  981loPI   C1B14007  13.808   4.490   6.284  0.3208  0.2957  0.0447
  981loPI   C2B14008  13.698   4.456   6.759 -0.2089  0.1736  0.2303
  981loPI   C3B14009  13.671   4.296   7.123 -0.2163  0.1090 -0.1236
  981loPI   C4B14010  13.738   4.222   7.494  0.0355 -0.2570 -0.1356
  982loPI    C114011   4.580  11.543   5.350 -0.0166  0.1255  0.1761
  982loPI    C214012   4.245  11.573   5.133 -0.1495  0.0818  0.3726
  982loPI    C314013   4.537  11.844   5.089 -0.1630  0.0586  0.1220
  982loPI   PO414014   4.412  11.417   5.583  0.0841  0.2739  0.0579
  982loPI   GL114015   4.245  11.607   5.927 -0.2335 -0.0546  0.0048
  982loPI   GL214016   3.989  11.803   5.942  0.1592 -0.0556  0.1744
  982loPI   C1A14017   4.356  11.714   6.282 -0.3492  0.1411  0.2143
  982loPI   C2A14018   4.413  11.855   6.662 -0.3834 -0.1890  0.0523
  982loPI   C3A14019   4.473  11.874   7.128 -0.1232  0.0388 -0.1535
  982loPI   C4A14020   4.360  11.959   7.580 -0.0107 -0.3617  0.1960
  982loPI   C5A14021   4.675  12.093   7.925  0.0836  0.1218  0.1512
  982loPI   C6A14022   4.897  12.137   8.351  0.0044  0.0193 -0.1141
  982loPI   C1B14023   3.918  11.767   6.402  0.1980  0.1298 -0.3985
  982loPI   C2B14024   3.911  11.807   6.796  0.4433 -0.0303  0.2247
  982loPI   C3B14025   4.013  11.724   7.277  0.0667 -0.0350 -0.0873
  982loPI   C4B14026   3.945  11.819   7.725 -0.1073 -0.1415  0.2872
  983loPI    C114027   0.195   3.721   5.455  0.1139  0.0301 -0.2128
  983loPI    C214028  -0.098   3.886   5.239 -0.1339 -0.1491 -0.0201
  983loPI    C314029   0.119   3.587   5.086 -0.0497 -0.0170 -0.1627
  983loPI   PO414030   0.188   3.965   5.630  0.0124 -0.0682 -0.2233
  983loPI   GL114031   0.288   3.974   5.953  0.1830  0.1020 -0.1638
  983loPI   GL214032   0.572   3.909   6.086 -0.2728 -0.0270  0.2396
  983loPI   C1A14033   0.145   3.873   6.333  0.1010  0.1470 -0.0067
  983loPI   C2A14034   0.144   3.707   6.846  0.0387  0.0785  0.2424
  983loPI   C3A14035  -0.056   3.686   7.242 -0.0099 -0.3733  0.0895
  983loPI   C4A14036  -0.261   3.776   7.566  0.0735 -0.2720 -0.2150
  983loPI   C5A14037  -0.265   3.742   8.006  0.1616 -0.0422 -0.0640
  983loPI   C6A14038  -0.358   3.455   8.300  0.2158  0.1149 -0.2047
  983loPI   C1B14039   0.611   3.942   6.545 -0.1115  0.0741 -0.1328
  983loPI   C2B14040   0.534   4.033   7.025 -0.1169  0.3322 -0.1552
  983loPI   C3B14041   0.394   3.847   7.403  0.2544 -0.0865 -0.1865
  983loPI   C4B14042   0.600   3.665   7.756 -0.2421 -0.4201 -0.0227
  984loPI    C114043  11.851   9.513   6.203 -0.0693  0.0902 -0.0111
  984loPI    C214044  12.245   9.570   6.163 -0.0190 -0.1441  0.1292
  984loPI    C314045  12.034   9.409   5.863  0.0157 -0.1400  0.1026
  984loPI   PO414046  11.845   9.584   6.402  0.0510 -0.0871  0.1231
  984loPI   GL114047  11.865   9.352   6.707 -0.2112 -0.0390 -0.1880
  984loPI   GL214048  12.226   9.400   6.708 -0.1838  0.0292  0.2129
  984loPI   C1A14049  11.745   9.301   7.196  0.0373  0.0313 -0.3340
  984loPI   C2A14050  11.668   9.187   7.641 -0.3592 -0.0003  0.0252
  984loPI   C3A14051  11.601   9.239   8.056 -0.2989 -0.3047 -0.4144
  984loPI   C4A14052  11.834   9.106   8.329 -0.1354  0.0588 -0.0163
  984loPI   C5A14053  11.894   9.161   8.711  0.3997  0.0559  0.2672
  984loPI   C6A14054  12.253   9.072   8.799 -0.4225  0.0898  0.1673
  984loPI   C1B14055  12.262   9.409   7.141  0.2197 -0.1829 -0.1140
  984loPI   C2B14056  12.192   9.273   7.484  0.4666 -0.1838 -0.4626
  984loPI   C3B14057  12.051   9.356   7.894 -0.2026  0.5701  0.2922
  984loPI   C4B14058  11.900   9.599   8.302  0.0897 -0.1467 -0.4526
  985loPI    C114059   9.308   8.368   5.862 -0.2932 -0.0691 -0.0910
  985loPI    C214060   9.434   8.119   5.575 -0.0505 -0.0067 -0.0412
  985loPI    C314061   9.603   8.479   5.615 -0.4052  0.1728 -0.1181
  985loPI   PO414062   9.262   8.306   6.032 -0.0194  0.2503 -0.0699
  985loPI   GL114063   9.185   8.547   6.373  0.3920  0.1551 -0.1977
  985loPI   GL214064   8.981   8.375   6.575 -0.1735  0.1862 -0.1598
  985loPI   C1A14065   9.266   8.649   6.783 -0.0429 -0.0362 -0.2541
  985loPI   C2A14066   9.323   8.576   7.193  0.0442  0.0127 -0.3814
  985loPI   C3A14067   9.308   8.341   7.625  0.1069  0.0682  0.0944
  985loPI   C4A14068   9.359   8.225   8.016  0.2086 -0.0291  0.0104
  985loPI   C5A14069   9.255   7.824   8.339  0.1503 -0.1653  0.1611
  985loPI   C6A14070   9.082   7.714   8.710 -0.0820 -0.0294 -0.0853
  985loPI   C1B14071   8.768   8.521   6.855  0.1182  0.1340  0.0862
  985loPI   C2B14072   8.871   8.689   7.235 -0.0146 -0.1728 -0.3403
  985loPI   C3B14073   8.865   8.641   7.609  0.0588 -0.1103 -0.4564
  985loPI   C4B14074   9.081   8.684   7.950  0.2284  0.1559 -0.2608
  986loPI    C114075  10.356  12.422   5.757  0.0845  0.0725  0.0860
  986loPI    C214076  10.152  12.744   5.639  0.0412 -0.0630 -0.2167
  986loPI    C314077  10.515  12.671   5.488  0.1143 -0.0773 -0.0362
  986loPI   PO414078  10.102  12.306   5.976 -0.0736 -0.1822 -0.4161
  986loPI   GL114079  10.159  12.381   6.430  0.1605 -0.1225  0.1098
  986loPI   GL214080  10.330  12.136   6.591 -0.0861 -0.0282 -0.2968
  986loPI   C1A14081  10.205  12.698   6.633 -0.1124  0.1471 -0.0360
  986loPI   C2A14082  10.239  12.917   7.009 -0.1869  0.0208  0.0337
  986loPI   C3A14083  10.350  13.059   7.397 -0.3727  0.0013 -0.3032
  986loPI   C4A14084  10.277  13.430   7.719 -0.0542  0.0941  0.2091
  986loPI   C5A14085  10.457  13.575   8.073 -0.2026  0.1058 -0.1387
  986loPI   C6A14086  10.700  13.366   8.335 -0.1733 -0.1810  0.0578
  986loPI   C1B14087  10.300  12.386   7.001 -0.0221 -0.4090 -0.1009
  986loPI   C2B14088  10.299  12.564   7.417 -0.0258  0.2281  0.1342
  986loPI   C3B14089  10.290  12.632   7.813  0.0321  0.1238  0.0717
  986loPI   C4B14090  10.523  12.750   8.225 -0.2542  0.0162  0.2153
  987loPI    C114091  17.850  12.293   5.550  0.0307 -0.3239 -0.0802
  987loPI    C214092  17.578  12.479   5.323 -0.0003 -0.1072  0.1298
  987loPI    C314093  17.966  12.506   5.232 -0.0415 -0.3877 -0.1499
  987loPI   PO414094  17.795  12.345   5.863 -0.1122  0.1980  0.0134
  987loPI   GL114095  17.545  12.402   6.302 -0.0700  0.0688 -0.0362
  987loPI   GL214096  17.869  12.671   6.262  0.2441  0.0748 -0.1202
  987loPI   C1A14097  17.371  12.798   6.472  0.0787 -0.2274  0.0782
  987loPI   C2A14098  17.314  12.771   6.861  0.1395 -0.2339  0.2202
  987loPI   C3A14099  17.424  12.710   7.278  0.1188  0.1185 -0.0992
  987loPI   C4A14100  17.706  12.562   7.603  0.0537 -0.3912  0.3232
  987loPI   C5A14101  17.779  12.693   8.055  0.0153  0.1909 -0.0742
  987loPI   C6A14102  17.574  12.767   8.458 -0.0076 -0.2328  0.3006
  987loPI   C1B14103  17.826  12.703   6.727  0.0921  0.2999  0.1318
  987loPI   C2B14104  17.898  12.822   7.120 -0.1826  0.0839 -0.0400
  987loPI   C3B14105  18.108  12.958   7.473  0.3197  0.0426 -0.1702
  987loPI   C4B14106  18.200  12.983   7.933 -0.4063 -0.0880  0.0204
  988loPI    C114107  12.873   7.905   5.763  0.0857  0.0564  0.2100
  988loPI    C214108  12.675   8.230   5.640  0.2742  0.2126  0.3139
  988loPI    C314109  13.000   8.106   5.442 -0.0480 -0.1747  0.0086
  988loPI   PO414110  12.898   7.957   6.013  0.1107 -0.0050  0.0685
  988loPI   GL114111  12.868   7.810   6.384 -0.0787 -0.0557  0.0801
  988loPI   GL214112  12.701   8.079   6.599  0.0939  0.3074 -0.0432
  988loPI   C1A14113  13.001   7.646   6.751 -0.1959 -0.0585 -0.0199
  988loPI   C2A14114  12.894   7.604   7.092 -0.2470 -0.1321  0.0680
  988loPI   C3A14115  12.631   7.446   7.221 -0.0971  0.1061 -0.0371
  988loPI   C4A14116  12.478   7.308   7.539  0.2824  0.4276 -0.1712
  988loPI   C5A14117  12.259   7.542   7.736 -0.0806 -0.1392  0.0300
  988loPI   C6A14118  11.879   7.447   8.030 -0.0841 -0.0824 -0.2643
  988loPI   C1B14119  12.686   8.094   7.094 -0.1941  0.1027 -0.3063
  988loPI   C2B14120  12.534   8.002   7.497 -0.1758  0.0512 -0.3755
  988loPI   C3B14121  12.639   8.020   7.766  0.2412  0.2439 -0.1033
  988loPI   C4B14122  12.511   7.760   8.236  0.0616 -0.0712 -0.3679
  989loPI    C114123  16.723  11.166   5.932 -0.1294  0.0212  0.0546
  989loPI    C214124  17.089  11.236   6.080 -0.1050  0.1094 -0.0459
  989loPI    C314125  17.042  10.984   5.772 -0.1377  0.0427  0.0132
  989loPI   PO414126  16.633  11.425   5.967 -0.1385 -0.0169  0.0120
  989loPI   GL114127  16.508  11.686   6.245  0.3001 -0.2228  0.0662
  989loPI   GL214128  16.795  11.477   6.427  0.1617 -0.0577 -0.2144
  989loPI   C1A14129  16.414  11.621   6.638  0.0927 -0.0604 -0.3166
  989loPI   C2A14130  16.533  11.471   7.003 -0.2845  0.1553 -0.0675
  989loPI   C3A14131  16.600  10.993   7.226  0.0609 -0.0876  0.0673
  989loPI   C4A14132  16.908  10.851   7.526  0.0268 -0.2663 -0.0323
  989loPI   C5A14133  17.244  10.748   7.839  0.1892 -0.2541 -0.1692
  989loPI   C6A14134  17.712  10.652   7.762 -0.1430  0.2683  0.0415
  989loPI   C1B14135  16.991  11.425   6.754 -0.0549 -0.1444  0.3958
  989loPI   C2B14136  17.249  11.656   7.021 -0.0355 -0.1545 -0.0102
  989loPI   C3B14137  17.555  11.854   7.226 -0.0817  0.0240  0.0307
  989loPI   C4B14138  17.960  11.903   7.495  0.0703  0.0078 -0.2263
  990loPI    C114139  11.457  14.180   5.691  0.0542  0.1746  0.1566
  990loPI    C214140  11.817  14.026   5.609 -0.0425  0.0021  0.0501
  990loPI    C314141  11.547  14.069   5.317 -0.0786  0.2115  0.1130
  990loPI   PO414142  11.538  14.409   5.874  0.0912 -0.1516  0.3994
  990loPI   GL114143  11.924  14.376   6.098  0.1107  0.0638 -0.0662
  990loPI   GL214144  11.972  14.051   6.102  0.0545 -0.0543  0.1528
  990loPI   C1A14145  11.989  14.574   6.468  0.1699 -0.2198 -0.0396
  990loPI   C2A14146  11.913  14.690   6.792  0.0480 -0.0530  0.3375
  990loPI   C3A14147  11.977  14.751   7.185  0.0629 -0.0722  0.1805
  990loPI   C4A14148  12.196  14.798   7.441  0.1113  0.2550 -0.1377
  990loPI   C5A14149  12.185  14.716   7.867 -0.2300  0.1902  0.3442
  990loPI   C6A14150  11.896  14.373   8.043 -0.4743 -0.1393 -0.0143
  990loPI   C1B14151  11.917  14.114   6.640  0.0395  0.2720 -0.1416
  990loPI   C2B14152  11.961  14.223   7.016 -0.0559  0.2708 -0.2417
  990loPI   C3B14153  11.999  14.278   7.530  0.1113  0.0519 -0.0267
  990loPI   C4B14154  12.313  14.165   7.861  0.1713 -0.0429 -0.0604
  991loPI    C114155   0.422   4.899   5.682  0.0165 -0.2716  0.0610
  991loPI    C214156   0.272   4.770   5.335 -0.1673  0.0144  0.0312
  991loPI    C314157   0.654   4.887   5.356  0.0270 -0.5931  0.0769
  991loPI   PO414158   0.293   4.780   5.969  0.0876  0.1406  0.1270
  991loPI   GL114159  -0.137   4.853   6.324  0.0899 -0.3069  0.2537
  991loPI   GL214160  -0.161   4.510   6.348  0.1742 -0.3854  0.0778
  991loPI   C1A14161  -0.239   5.117   6.615  0.0065 -0.0291 -0.1712
  991loPI   C2A14162  -0.234   5.125   7.049  0.1169 -0.0460  0.1805
  991loPI   C3A14163  -0.387   5.151   7.472 -0.1986 -0.3105  0.0709
  991loPI   C4A14164  -0.290   5.230   7.898 -0.1939 -0.1062 -0.0830
  991loPI   C5A14165  -0.066   5.294   8.190 -0.1350  0.0469 -0.3123
  991loPI   C6A14166   0.082   5.570   8.554  0.2627  0.1239 -0.0491
  991loPI   C1B14167  -0.017   4.522   6.716 -0.0649  0.0889 -0.2817
  991loPI   C2B14168  -0.077   4.647   7.128  0.1763  0.1060  0.0721
  991loPI   C3B14169   0.084   4.894   7.509  0.3904  0.1842  0.1526
  991loPI   C4B14170   0.151   4.842   7.879  0.2243 -0.0863 -0.3114
  992loPI    C114171  14.567   0.297   4.908 -0.3642  0.0624 -0.0062
  992loPI    C214172  14.679   0.681   4.890 -0.1676  0.0070  0.0107
  992loPI    C314173  14.385   0.547   4.654 -0.2019  0.1561 -0.0321
  992loPI   PO414174  14.672   0.226   5.140 -0.1463  0.0013  0.3438
  992loPI   GL114175  14.839   0.153   5.596 -0.3082 -0.3170 -0.1010
  992loPI   GL214176  14.716   0.059   5.853 -0.0727  0.1163  0.1484
  992loPI   C1A14177  15.153   0.474   5.847  0.0081  0.2658 -0.1532
  992loPI   C2A14178  15.164   0.545   6.244 -0.1542  0.0488  0.1722
  992loPI   C3A14179  15.168   0.542   6.795  0.1468 -0.2212  0.2464
  992loPI   C4A14180  15.227   0.564   7.188  0.3284  0.1895 -0.0219
  992loPI   C5A14181  15.159   0.684   7.580  0.0436  0.1478 -0.0623
  992loPI   C6A14182  15.212   0.677   7.961 -0.0714  0.1663  0.0842
  992loPI   C1B14183  14.980   0.069   6.190  0.1894 -0.1284  0.0146
  992loPI   C2B14184  14.996   0.079   6.585 -0.1447  0.1707  0.3667
  992loPI   C3B14185  15.085   0.043   6.977  0.0308  0.0933  0.1527
  992loPI   C4B14186  15.042  -0.066   7.341 -0.0657 -0.0005 -0.0441
  993loPI    C114187  10.870   4.386   5.325 -0.2327 -0.0138 -0.1227
  993loPI    C214188  11.098   4.438   5.001 -0.0498 -0.0206  0.0036
  993loPI    C314189  10.917   4.751   5.170  0.1278  0.0356  0.0922
  993loPI   PO414190  11.029   4.234   5.517  0.1665 -0.1819  0.3565
  993loPI   GL114191  11.066   4.103   5.956  0.0566 -0.3384 -0.1198
  993loPI   GL214192  10.827   4.329   6.192  0.0419  0.0383  0.0633
  993loPI   C1A14193  11.097   3.844   6.313  0.0178  0.1915  0.1117
  993loPI   C2A14194  11.002   3.554   6.705  0.1735  0.0228  0.1104
  993loPI   C3A14195  10.825   3.190   6.946  0.4830 -0.0157 -0.2242
  993loPI   C4A14196  10.959   2.894   7.281 -0.1798  0.1640 -0.0067
  993loPI   C5A14197  11.337   2.589   7.444 -0.1725  0.1426  0.0432
  993loPI   C6A14198  11.427   2.253   7.734 -0.1629  0.1012 -0.0856
  993loPI   C1B14199  10.651   4.091   6.511  0.0756  0.1105 -0.1897
  993loPI   C2B14200  10.510   3.703   6.779  0.0784  0.3810  0.3261
  993loPI   C3B14201  10.684   3.620   7.135 -0.0543  0.2633 -0.0052
  993loPI   C4B14202  11.057   3.469   7.294 -0.0202 -0.1164 -0.1876
  994loPI    C114203   7.568   3.275   5.666  0.1793 -0.2383  0.0839
  994loPI    C214204   7.276   3.225   5.935  0.0539  0.5095  0.1081
  994loPI    C314205   7.210   3.137   5.551  0.1100 -0.1970  0.2459
  994loPI   PO414206   7.767   3.198   5.774  0.3270 -0.1966 -0.1677
  994loPI   GL114207   7.805   3.380   6.219  0.0298 -0.1807  0.3139
  994loPI   GL214208   7.507   3.553   6.332 -0.2054 -0.2033 -0.0076
  994loPI   C1A14209   7.967   3.211   6.564  0.0548 -0.3520  0.1604
  994loPI   C2A14210   7.788   3.399   6.862 -0.0004  0.1572 -0.1057
  994loPI   C3A14211   7.859   3.408   7.374 -0.0182 -0.0157 -0.2714
  994loPI   C4A14212   7.869   3.349   7.808 -0.0596 -0.0568  0.0549
  994loPI   C5A14213   7.767   3.269   8.219  0.2124 -0.1407 -0.0862
  994loPI   C6A14214   7.841   3.151   8.650  0.1170 -0.0842  0.0705
  994loPI   C1B14215   7.318   3.597   6.717  0.0794 -0.6496 -0.1660
  994loPI   C2B14216   7.415   3.533   7.171  0.1873  0.0112 -0.2501
  994loPI   C3B14217   7.303   3.441   7.595 -0.0539  0.3494  0.0966
  994loPI   C4B14218   7.326   3.217   8.032 -0.1729  0.0368 -0.2978
  995loPI    C114219  16.039  10.426   6.011  0.1518  0.0353 -0.2938
  995loPI    C214220  16.417  10.311   5.950  0.0964 -0.2397 -0.1381
  995loPI    C314221  16.161  10.327   5.643  0.2157 -0.1163 -0.2327
  995loPI   PO414222  15.946  10.317   6.247  0.1206  0.0434  0.0064
  995loPI   GL114223  15.724  10.408   6.576 -0.1124 -0.0363 -0.1278
  995loPI   GL214224  16.045  10.327   6.723 -0.1766  0.2284 -0.1950
  995loPI   C1A14225  15.687  10.837   6.732  0.2492  0.2951 -0.1539
  995loPI   C2A14226  15.616  11.185   6.948 -0.2046 -0.2165 -0.1432
  995loPI   C3A14227  15.920  11.348   7.279  0.2612  0.0173 -0.0986
  995loPI   C4A14228  16.334  11.384   7.479  0.0085 -0.0524 -0.1209
  995loPI   C5A14229  16.662  11.305   7.743 -0.1085  0.3915 -0.0230
  995loPI   C6A14230  17.050  11.238   7.975 -0.0354 -0.0659 -0.1676
  995loPI   C1B14231  16.095  10.670   6.946 -0.3481  0.3943 -0.0646
  995loPI   C2B14232  15.985  10.770   7.281  0.1978  0.0208  0.1586
  995loPI   C3B14233  16.057  10.956   7.696  0.1596  0.0551  0.1114
  995loPI   C4B14234  16.226  11.204   7.990 -0.2982 -0.0569  0.2081
  996loPI    C114235  11.072   6.534   5.980 -0.1404 -0.1761 -0.1823
  996loPI    C214236  10.732   6.591   5.777 -0.0967 -0.1345 -0.2440
  996loPI    C314237  11.064   6.786   5.670 -0.0911 -0.0551 -0.0862
  996loPI   PO414238  11.075   6.573   6.230 -0.1414  0.3374  0.0248
  996loPI   GL114239  10.887   6.481   6.682 -0.0386 -0.2831  0.0241
  996loPI   GL214240  11.009   6.362   6.875  0.0320 -0.1121  0.1142
  996loPI   C1A14241  10.663   6.699   7.061  0.0227  0.1251  0.0693
  996loPI   C2A14242  10.724   6.966   7.283  0.2258  0.1315  0.1642
  996loPI   C3A14243  10.461   6.960   7.584 -0.0454 -0.0229  0.0144
  996loPI   C4A14244  10.478   7.077   8.035 -0.2757  0.1937 -0.1706
  996loPI   C5A14245  10.526   7.358   8.285 -0.4203  0.2472  0.0163
  996loPI   C6A14246  10.774   7.725   8.455  0.0991  0.0618  0.0731
  996loPI   C1B14247  11.039   6.031   7.097  0.0859  0.1786  0.0462
  996loPI   C2B14248  11.039   5.868   7.455  0.1950 -0.0119 -0.0099
  996loPI   C3B14249  11.219   5.508   7.703  0.1207  0.1615 -0.4325
  996loPI   C4B14250  11.410   5.297   8.041  0.1484 -0.0771 -0.0969
  997loPI    C114251  12.097   0.643   5.265  0.1039 -0.0092  0.0398
  997loPI    C214252  11.982   0.988   5.097  0.0528  0.0971  0.2893
  997loPI    C314253  12.317   0.807   4.973 -0.1168  0.0409 -0.1008
  997loPI   PO414254  12.070   0.732   5.505  0.1750  0.0809  0.0982
  997loPI   GL114255  11.982   0.691   5.930  0.0832 -0.0684 -0.0344
  997loPI   GL214256  11.693   0.818   5.952 -0.0437  0.0759  0.3819
  997loPI   C1A14257  12.115   0.824   6.312  0.0932  0.0981 -0.2756
  997loPI   C2A14258  12.105   0.832   6.792 -0.1308 -0.1801 -0.2728
  997loPI   C3A14259  12.269   1.028   7.150  0.2614  0.3945  0.1791
  997loPI   C4A14260  12.346   0.847   7.588  0.3363  0.3412 -0.0301
  997loPI   C5A14261  12.137   0.688   7.953  0.1644  0.0669 -0.1078
  997loPI   C6A14262  11.973   0.382   8.225 -0.2648 -0.0530  0.0645
  997loPI   C1B14263  11.465   0.809   6.417 -0.0721  0.0680 -0.1090
  997loPI   C2B14264  11.212   0.557   6.674 -0.0370  0.1916 -0.0374
  997loPI   C3B14265  11.064   0.471   7.052  0.3309  0.0285 -0.3819
  997loPI   C4B14266  10.926   0.154   7.294 -0.1444 -0.3708  0.0296
  998loPI    C114267   2.182  17.877   5.575  0.0196 -0.0980 -0.0172
  998loPI    C214268   1.887  18.015   5.342 -0.0843 -0.1651  0.0736
  998loPI    C314269   2.262  18.145   5.289 -0.1737  0.1213  0.1305
  998loPI   PO414270   2.038  17.888   5.791  0.3511 -0.1316  0.2514
  998loPI   GL114271   1.964  17.729   6.165  0.1671  0.0195  0.1740
  998loPI   GL214272   1.815  17.348   6.104  0.1977  0.0816 -0.4754
  998loPI   C1A14273   1.955  17.753   6.610  0.0161  0.0106  0.0274
  998loPI   C2A14274   1.948  18.044   6.954  0.4577  0.0436  0.1036
  998loPI   C3A14275   1.988  18.059   7.357  0.3368  0.1210 -0.2934
  998loPI   C4A14276   1.939  17.846   7.774  0.0624 -0.0345  0.0600
  998loPI   C5A14277   1.596  17.597   8.112  0.1286  0.0484  0.2122
  998loPI   C6A14278   1.217  17.856   8.148  0.2016  0.0508 -0.0068
  998loPI   C1B14279   1.526  17.218   6.511 -0.1792 -0.3114 -0.1331
  998loPI   C2B14280   1.300  16.980   6.856  0.0691  0.0626  0.0507
  998loPI   C3B14281   1.212  16.772   7.143 -0.0811 -0.0751  0.1460
  998loPI   C4B14282   1.129  16.773   7.586 -0.0350  0.0073 -0.0101
  999loPI    C114283   1.966   5.345   5.734  0.1954 -0.0432 -0.0533
  999loPI    C214284   2.165   5.088   5.501 -0.2291 -0.1166 -0.3475
  999loPI    C314285   2.216   5.482   5.453 -0.0298 -0.1360 -0.3039
  999loPI   PO414286   2.004   5.322   5.990 -0.0537 -0.0435 -0.1013
  999loPI   GL114287   2.251   5.319   6.343  0.3434  0.1880 -0.0081
  999loPI   GL214288   2.301   5.625   6.524 -0.1616  0.3069 -0.2163
  999loPI   C1A14289   2.408   5.125   6.769 -0.1967  0.2942  0.1459
  999loPI   C2A14290   2.387   5.105   7.170  0.1076 -0.0255  0.0489
  999loPI   C3A14291   2.055   5.084   7.567 -0.1298  0.2664  0.0114
  999loPI   C4A14292   2.035   4.856   7.822 -0.1388  0.0603  0.0238
  999loPI   C5A14293   2.193   4.767   8.138 -0.3741 -0.0283 -0.0712
  999loPI   C6A14294   2.424   4.469   8.059 -0.2486 -0.1228  0.1304
  999loPI   C1B14295   2.080   5.904   6.838 -0.0493  0.1361 -0.0576
  999loPI   C2B14296   2.000   6.033   7.305 -0.4861 -0.0689 -0.1738
  999loPI   C3B14297   1.957   5.829   7.776 -0.1321  0.1633  0.0443
  999loPI   C4B14298   1.991   5.772   8.122  0.3040 -0.2415  0.3355
 1000loPI    C114299   8.234  14.653   5.155 -0.2032  0.1115 -0.2139
 1000loPI    C214300   8.400  14.804   4.824  0.1765  0.0406 -0.0619
 1000loPI    C314301   8.625  14.601   5.085 -0.1661 -0.1034  0.1280
 1000loPI   PO414302   8.004  14.895   5.294 -0.0160 -0.2800  0.1151
 1000loPI   GL114303   7.870  15.314   5.511  0.2376  0.0559 -0.3373
 1000loPI   GL214304   7.649  15.094   5.614  0.2610  0.0227 -0.1612
 1000loPI   C1A14305   8.106  15.162   5.953  0.0477 -0.1629 -0.4817
 1000loPI   C2A14306   8.353  15.261   6.489 -0.3045 -0.0016 -0.0688
 1000loPI   C3A14307   8.442  15.201   6.873 -0.2010 -0.1092  0.1249
 1000loPI   C4A14308   8.577  15.315   7.234 -0.0604  0.0678 -0.0516
 1000loPI   C5A14309   8.657  15.410   7.614 -0.0852  0.0770  0.0609
 1000loPI   C6A14310   8.955  15.661   7.878  0.0451  0.1949 -0.1687
 1000loPI   C1B14311   7.602  15.206   5.955 -0.0429 -0.1537 -0.0299
 1000loPI   C2B14312   7.786  15.232   6.371 -0.3098  0.0663  0.1933
 1000loPI   C3B14313   7.839  15.192   6.758  0.0639 -0.0978 -0.0483
 1000loPI   C4B14314   7.954  15.129   7.192  0.1689 -0.0911 -0.0648
 1001loPI    C114315   8.382   2.321   5.919 -0.0689 -0.0520  0.1385
 1001loPI    C214316   8.586   2.664   5.952 -0.1572  0.0035  0.1101
 1001loPI    C314317   8.412   2.568   5.605  0.1523 -0.2306  0.0160
 1001loPI   PO414318   8.252   2.339   6.124 -0.1366 -0.0761  0.2983
 1001loPI   GL114319   8.355   2.394   6.528 -0.0829 -0.0374 -0.1053
 1001loPI   GL214320   8.685   2.383   6.436 -0.0203 -0.2593  0.1074
 1001loPI   C1A14321   8.404   2.465   7.006  0.1097  0.0372  0.2619
 1001loPI   C2A14322   8.419   2.540   7.453  0.0206  0.1865 -0.0571
 1001loPI   C3A14323   8.542   2.481   7.862 -0.4788 -0.6020 -0.1085
 1001loPI   C4A14324   8.526   2.234   8.214  0.0875 -0.0809 -0.1627
 1001loPI   C5A14325   8.241   2.041   8.555  0.2750  0.0479  0.0025
 1001loPI   C6A14326   8.188   2.027   8.979  0.1778 -0.2142  0.4396
 1001loPI   C1B14327   8.859   2.582   6.787  0.0826  0.1968  0.0402
 1001loPI   C2B14328   8.956   2.569   7.301 -0.1104 -0.2274 -0.0233
 1001loPI   C3B14329   9.034   2.636   7.792  0.1196  0.1042  0.0416
 1001loPI   C4B14330   9.303   2.799   8.126 -0.2162 -0.2445  0.1480
 1002loPI    C114331  15.028  10.611   6.089  0.3055 -0.1002 -0.0942
 1002loPI    C214332  14.862  10.721   5.742  0.2006  0.0969  0.0168
 1002loPI    C314333  15.173  10.470   5.744 -0.1161 -0.3085 -0.1936
 1002loPI   PO414334  14.819  10.564   6.252  0.0594 -0.0126  0.2079
 1002loPI   GL114335  14.472  10.377   6.349  0.1191 -0.0559  0.2374
 1002loPI   GL214336  14.310  10.037   6.443  0.0385  0.0140 -0.1538
 1002loPI   C1A14337  14.212  10.524   6.680 -0.1903  0.2777 -0.0513
 1002loPI   C2A14338  14.024  10.869   6.800  0.2628  0.2340  0.0629
 1002loPI   C3A14339  13.991  10.928   7.177  0.1073 -0.0128 -0.1321
 1002loPI   C4A14340  14.087  10.805   7.595 -0.3874  0.1505  0.0645
 1002loPI   C5A14341  14.286  10.769   8.026  0.0978  0.0227  0.1480
 1002loPI   C6A14342  14.398  10.995   8.394  0.0597  0.2091  0.1793
 1002loPI   C1B14343  14.436  10.074   6.867  0.1017 -0.2152 -0.1641
 1002loPI   C2B14344  14.665  10.001   7.181  0.0029 -0.3273 -0.0172
 1002loPI   C3B14345  14.813  10.064   7.580 -0.4812 -0.2771 -0.1865
 1002loPI   C4B14346  14.761   9.848   7.990  0.3495 -0.2110  0.2242
 1003loPI    C114347   1.897   7.675   5.275 -0.0891 -0.0149  0.0980
 1003loPI    C214348   1.721   7.509   4.957 -0.0560 -0.0426  0.0940
 1003loPI    C314349   1.528   7.788   5.169  0.0571  0.2339 -0.1596
 1003loPI   PO414350   1.921   7.445   5.482  0.1515  0.2094 -0.1077
 1003loPI   GL114351   1.808   7.414   5.915 -0.0268 -0.1682  0.0720
 1003loPI   GL214352   1.868   7.795   6.081  0.0656 -0.2949 -0.1141
 1003loPI   C1A14353   1.590   7.429   6.263 -0.0646  0.2197  0.0022
 1003loPI   C2A14354   1.170   7.444   6.567 -0.0728  0.2212  0.1060
 1003loPI   C3A14355   0.985   7.537   6.984  0.2543 -0.0532  0.0443
 1003loPI   C4A14356   0.962   7.509   7.379  0.1439  0.2939 -0.2568
 1003loPI   C5A14357   0.788   7.774   7.593 -0.2193 -0.3010 -0.1157
 1003loPI   C6A14358   0.732   8.073   7.903 -0.0197  0.0293 -0.1868
 1003loPI   C1B14359   1.944   7.828   6.525  0.0481  0.3361  0.2385
 1003loPI   C2B14360   1.705   7.895   6.876 -0.0257 -0.1113  0.1883
 1003loPI   C3B14361   1.764   7.879   7.292 -0.2509 -0.1635 -0.1077
 1003loPI   C4B14362   1.779   7.931   7.744  0.1576 -0.0152 -0.1135
 1004loPI    C114363  16.423  12.417   5.607 -0.0720  0.1713  0.2588
 1004loPI    C214364  16.405  12.447   5.208 -0.2861  0.0111  0.2550
 1004loPI    C314365  16.677  12.209   5.379 -0.2802 -0.0218  0.2000
 1004loPI   PO414366  16.425  12.721   5.667  0.1347  0.4093 -0.5321
 1004loPI   GL114367  16.617  12.963   5.872  0.2170 -0.0457  0.2121
 1004loPI   GL214368  16.346  13.016   6.058 -0.0650  0.0491 -0.1038
 1004loPI   C1A14369  16.800  12.815   6.260  0.2820  0.2487  0.2639
 1004loPI   C2A14370  16.863  12.991   6.701 -0.0296  0.0618 -0.2992
 1004loPI   C3A14371  16.916  12.910   7.138  0.1872  0.2277  0.1445
 1004loPI   C4A14372  16.846  12.703   7.471  0.1382 -0.1514 -0.1890
 1004loPI   C5A14373  17.210  12.557   7.718  0.0755  0.1560  0.2468
 1004loPI   C6A14374  17.259  12.653   8.082 -0.0539  0.3373  0.1266
 1004loPI   C1B14375  16.086  13.011   6.436  0.1382  0.0433 -0.3319
 1004loPI   C2B14376  16.019  13.391   6.863 -0.0934 -0.3819  0.1889
 1004loPI   C3B14377  16.175  13.344   7.203  0.1828  0.0092  0.2145
 1004loPI   C4B14378  16.346  13.491   7.679 -0.1338 -0.2777  0.0778
 1005loPI    C114379   1.689   8.971   5.153  0.0773 -0.0127  0.0516
 1005loPI    C214380   1.800   8.609   5.023  0.1569  0.0042  0.0717
 1005loPI    C314381   2.003   8.934   4.907  0.1024  0.0396  0.0755
 1005loPI   PO414382   1.586   8.814   5.447 -0.0978  0.0984  0.0373
 1005loPI   GL114383   1.804   8.790   5.923 -0.1101 -0.3940  0.3698
 1005loPI   GL214384   2.012   8.967   5.949 -0.2755 -0.2282 -0.1105
 1005loPI   C1A14385   1.517   8.667   6.284  0.0399 -0.4241  0.2069
 1005loPI   C2A14386   1.546   8.836   6.656  0.1120  0.5718  0.3181
 1005loPI   C3A14387   1.513   8.896   7.114  0.2510 -0.2175 -0.1345
 1005loPI   C4A14388   1.528   9.087   7.507  0.1484 -0.1819 -0.0450
 1005loPI   C5A14389   1.188   9.165   7.827  0.0955  0.1616  0.1573
 1005loPI   C6A14390   0.851   9.235   7.877  0.0617 -0.1278 -0.0061
 1005loPI   C1B14391   1.885   9.133   6.316  0.0113 -0.0329 -0.1131
 1005loPI   C2B14392   1.920   9.494   6.565  0.1005  0.2792  0.0803
 1005loPI   C3B14393   1.817   9.824   6.786 -0.2741 -0.3214 -0.1937
 1005loPI   C4B14394   1.836   9.880   7.268 -0.1973  0.1440  0.0478
 1006loPI    C114395   9.457  15.720   5.456 -0.1258 -0.1099 -0.1863
 1006loPI    C214396   9.683  15.961   5.681 -0.3752  0.0434 -0.0964
 1006loPI    C314397   9.710  15.977   5.282  0.1130 -0.2722 -0.0849
 1006loPI   PO414398   9.360  15.527   5.712 -0.1186  0.0542  0.1646
 1006loPI   GL114399   9.287  15.337   6.023 -0.3325 -0.3956 -0.0463
 1006loPI   GL214400   9.036  15.624   6.129 -0.0100 -0.0888 -0.0415
 1006loPI   C1A14401   9.284  15.413   6.516  0.1004  0.2013  0.3984
 1006loPI   C2A14402   9.264  15.454   6.923 -0.2332  0.0653  0.2598
 1006loPI   C3A14403   9.259  15.558   7.353  0.0561 -0.2340  0.2016
 1006loPI   C4A14404   9.312  15.410   7.740 -0.0680 -0.1576  0.0226
 1006loPI   C5A14405   9.432  15.813   8.026 -0.1509 -0.0191  0.0622
 1006loPI   C6A14406   9.802  16.113   8.167 -0.2362  0.0330  0.0450
 1006loPI   C1B14407   8.794  15.986   6.189 -0.1596 -0.0665 -0.2289
 1006loPI   C2B14408   8.710  16.386   6.206  0.1436  0.0367  0.1716
 1006loPI   C3B14409   8.570  16.741   6.068  0.1153 -0.1606 -0.2180
 1006loPI   C4B14410   8.468  17.018   6.255 -0.1284  0.1021 -0.2234
 1007loPI    C114411  15.418  15.720   5.457 -0.2511  0.0389  0.2111
 1007loPI    C214412  15.510  15.417   5.702  0.1387 -0.0163  0.0029
 1007loPI    C314413  15.295  15.349   5.371  0.1636 -0.0538 -0.0056
 1007loPI   PO414414  15.585  15.930   5.615 -0.0121  0.1176 -0.0103
 1007loPI   GL114415  15.865  15.983   5.987  0.0401 -0.1839 -0.0121
 1007loPI   GL214416  15.721  15.747   6.038  0.1687 -0.1966 -0.0510
 1007loPI   C1A14417  16.083  16.078   6.377  0.4107  0.1010 -0.2217
 1007loPI   C2A14418  15.974  16.163   6.679  0.1065  0.0986 -0.2339
 1007loPI   C3A14419  16.023  16.397   7.087  0.0853  0.1882 -0.3350
 1007loPI   C4A14420  16.099  16.316   7.527 -0.1844 -0.3135  0.0698
 1007loPI   C5A14421  15.908  16.190   7.848 -0.1894  0.0804 -0.1335
 1007loPI   C6A14422  15.562  16.171   8.105 -0.0185  0.0661 -0.1106
 1007loPI   C1B14423  15.655  15.718   6.471 -0.0275  0.0538 -0.0567
 1007loPI   C2B14424  15.659  15.665   6.945  0.1052  0.1542  0.2322
 1007loPI   C3B14425  15.705  15.755   7.465  0.1212  0.0992  0.0835
 1007loPI   C4B14426  15.779  15.739   7.903  0.1856  0.0310 -0.0058
 1008loPI    C114427  12.101   8.814   6.026 -0.0456 -0.0982 -0.1243
 1008loPI    C214428  12.228   9.109   6.264  0.0357  0.1230 -0.4345
 1008loPI    C314429  11.838   9.021   6.246  0.0227  0.1413 -0.2643
 1008loPI   PO414430  12.300   8.641   6.059 -0.0660 -0.1842  0.2272
 1008loPI   GL114431  12.390   8.480   6.489  0.2354  0.2286  0.2270
 1008loPI   GL214432  12.581   8.833   6.531 -0.0728  0.0296  0.0865
 1008loPI   C1A14433  12.401   8.442   6.882  0.3980 -0.0636 -0.1978
 1008loPI   C2A14434  12.326   8.417   7.283 -0.4116  0.1872  0.0151
 1008loPI   C3A14435  12.424   8.475   7.713 -0.0935 -0.0728  0.1901
 1008loPI   C4A14436  12.582   8.497   8.153  0.2683  0.1481  0.1643
 1008loPI   C5A14437  12.894   8.301   8.419 -0.1679  0.1032  0.2998
 1008loPI   C6A14438  13.274   8.254   8.576 -0.2836 -0.1219  0.1584
 1008loPI   C1B14439  12.439   8.927   6.865 -0.0429  0.0275 -0.0605
 1008loPI   C2B14440  12.458   8.901   7.308  0.4327 -0.3219 -0.1010
 1008loPI   C3B14441  12.494   8.987   7.734 -0.0972 -0.0186  0.1799
 1008loPI   C4B14442  12.271   8.963   8.146 -0.1180 -0.0696 -0.2176
 1009loPI    C114443  17.222  16.592   5.381 -0.0850  0.1106 -0.1157
 1009loPI    C214444  16.880  16.417   5.271  0.0127 -0.0112 -0.2303
 1009loPI    C314445  16.881  16.801   5.386 -0.1966 -0.0717 -0.0185
 1009loPI   PO414446  17.318  16.518   5.515  0.4108  0.0472  0.2935
 1009loPI   GL114447  17.367  16.413   5.913  0.1590 -0.0911  0.0808
 1009loPI   GL214448  17.309  16.626   6.014 -0.3240 -0.0116  0.3199
 1009loPI   C1A14449  17.288  16.239   6.396  0.1047 -0.1430  0.2043
 1009loPI   C2A14450  17.054  15.980   6.669 -0.3661  0.0403  0.0399
 1009loPI   C3A14451  16.967  16.109   7.104 -0.3548  0.0111 -0.1393
 1009loPI   C4A14452  17.028  16.306   7.467  0.1948  0.1058 -0.0322
 1009loPI   C5A14453  17.121  16.435   7.781 -0.0386  0.2396  0.0389
 1009loPI   C6A14454  17.191  16.744   7.944 -0.2293 -0.0636 -0.3089
 1009loPI   C1B14455  17.357  16.786   6.413  0.4481 -0.0385  0.0458
 1009loPI   C2B14456  17.164  16.959   6.794 -0.0157  0.2712  0.2747
 1009loPI   C3B14457  17.140  17.145   7.216  0.1988  0.1124  0.0400
 1009loPI   C4B14458  17.264  17.176   7.662 -0.2917 -0.1842  0.2887
 1010loPI    C114459   7.929   7.916   5.642  0.0033  0.0801 -0.0109
 1010loPI    C214460   8.228   7.799   5.403 -0.0403  0.2253 -0.1376
 1010loPI    C314461   7.866   7.875   5.249 -0.1315  0.0940  0.0087
 1010loPI   PO414462   8.084   8.105   5.809  0.1446  0.2439 -0.0222
 1010loPI   GL114463   8.288   8.051   6.149 -0.3223  0.3495 -0.2942
 1010loPI   GL214464   8.194   7.818   6.309  0.0169 -0.0921 -0.2578
 1010loPI   C1A14465   8.434   8.295   6.525 -0.0265 -0.0764  0.2185
 1010loPI   C2A14466   8.288   8.490   6.935 -0.1849  0.1382  0.2081
 1010loPI   C3A14467   8.313   8.542   7.338  0.0698 -0.1258  0.0311
 1010loPI   C4A14468   8.365   8.455   7.715 -0.2639  0.0593  0.0499
 1010loPI   C5A14469   8.332   8.162   8.074  0.0563 -0.4733 -0.1583
 1010loPI   C6A14470   8.382   8.258   8.488 -0.2264 -0.3854 -0.0958
 1010loPI   C1B14471   7.991   7.363   6.593 -0.3358 -0.1021  0.0023
 1010loPI   C2B14472   7.863   7.324   7.036  0.2683 -0.1542  0.1210
 1010loPI   C3B14473   7.900   7.143   7.450 -0.3090 -0.0983  0.1987
 1010loPI   C4B14474   8.118   7.016   7.781  0.0146 -0.1809  0.0680
 1011loPI    C114475  14.104   8.526   6.145 -0.0464 -0.0233  0.0787
 1011loPI    C214476  13.734   8.526   5.993  0.0714  0.0837 -0.2158
 1011loPI    C314477  14.023   8.737   5.815  0.2399  0.1259  0.1007
 1011loPI   PO414478  14.179   8.676   6.317 -0.0107  0.1818  0.2046
 1011loPI   GL114479  14.520   8.816   6.406  0.0838  0.0760  0.1026
 1011loPI   GL214480  14.283   9.009   6.645 -0.0179  0.4283  0.2334
 1011loPI   C1A14481  14.614   8.650   6.848  0.4790  0.2797  0.0700
 1011loPI   C2A14482  14.628   8.605   7.311 -0.5547  0.1165 -0.0065
 1011loPI   C3A14483  14.698   8.759   7.730  0.0049 -0.2653 -0.0835
 1011loPI   C4A14484  15.034   8.945   7.940  0.4253  0.0443 -0.1525
 1011loPI   C5A14485  15.306   8.781   8.224  0.1654  0.0986 -0.0374
 1011loPI   C6A14486  15.542   8.957   8.511 -0.1844 -0.1205 -0.1161
 1011loPI   C1B14487  14.276   8.923   7.054  0.1489  0.0465 -0.1239
 1011loPI   C2B14488  14.309   8.971   7.422  0.2073  0.1899  0.0882
 1011loPI   C3B14489  14.296   9.132   7.832 -0.3993 -0.1528  0.2546
 1011loPI   C4B14490  14.363   9.505   8.038 -0.0071  0.0725  0.1414
 1012loPI    C114491  15.609   8.689   5.844  0.1786 -0.2101  0.0782
 1012loPI    C214492  15.976   8.842   5.885  0.0361  0.1878 -0.0818
 1012loPI    C314493  15.703   9.034   5.664 -0.3730  0.0734  0.3098
 1012loPI   PO414494  15.507   8.645   6.171  0.0135 -0.0367  0.0040
 1012loPI   GL114495  15.559   8.600   6.509  0.0305  0.0356  0.2615
 1012loPI   GL214496  15.845   8.741   6.550 -0.0806 -0.0650 -0.1384
 1012loPI   C1A14497  15.575   8.518   6.948  0.1182 -0.1017 -0.0018
 1012loPI   C2A14498  15.722   8.551   7.337  0.1328  0.0213 -0.0385
 1012loPI   C3A14499  15.861   8.130   7.651 -0.1335  0.1242  0.3280
 1012loPI   C4A14500  16.177   8.063   7.892 -0.1627 -0.3332 -0.1489
 1012loPI   C5A14501  16.283   8.350   8.209  0.1741  0.1526  0.1795
 1012loPI   C6A14502  16.555   8.647   8.388  0.1816  0.0931  0.1724
 1012loPI   C1B14503  15.961   8.864   6.967  0.1233 -0.0878  0.0421
 1012loPI   C2B14504  16.291   9.019   7.123  0.1437  0.1411 -0.2847
 1012loPI   C3B14505  16.326   9.205   7.559 -0.3408  0.1200 -0.1197
 1012loPI   C4B14506  16.310   9.235   7.998 -0.2128  0.2024 -0.1443
 1013POPI    C114507   3.866   6.596   5.648 -0.0582  0.2088  0.0598
 1013POPI    C214508   3.598   6.541   5.357  0.1018 -0.0697 -0.0398
 1013POPI    C314509   3.965   6.672   5.268  0.1672 -0.2047  0.0296
 1013POPI   PO414510   3.686   6.595   5.862  0.0249 -0.2660  0.2011
 1013POPI   GL114511   3.492   6.475   6.171  0.1010 -0.0188  0.1658
 1013POPI   GL214512   3.115   6.416   6.237  0.0054  0.1123 -0.0623
 1013POPI   C1A14513   3.538   6.696   6.518 -0.0337 -0.0478 -0.1567
 1013POPI   D2A14514   3.733   6.665   6.792  0.0348  0.2549  0.2169
 1013POPI   C3A14515   3.480   6.468   7.107 -0.5034  0.1633  0.0918
 1013POPI   C4A14516   3.268   6.488   7.484 -0.0288  0.0435  0.0373
 1013POPI   C1B14517   3.325   6.301   6.643  0.1237 -0.4258  0.2675
 1013POPI   C2B14518   3.184   6.113   7.107  0.0654  0.2179  0.1349
 1013POPI   C3B14519   3.368   5.896   7.368  0.2274 -0.3749  0.1456
 1013POPI   C4B14520   3.273   5.791   7.859  0.1848  0.1060 -0.2089
 1014POPI    C114521   0.485   4.375   5.651  0.1906  0.1169  0.0369
 1014POPI    C214522   0.766   4.377   5.366  0.1866 -0.2944  0.0249
 1014POPI    C314523   0.409   4.212   5.294 -0.0836  0.2675  0.0241
 1014POPI   PO414524   0.623   4.344   5.861 -0.2018 -0.0727 -0.1576
 1014POPI   GL114525   0.598   4.518   6.217 -0.0255 -0.1884  0.0031
 1014POPI   GL214526   0.345   4.331   6.304 -0.2474  0.2036  0.1204
 1014POPI   C1A14527   0.640   4.872   6.468  0.1600 -0.0923  0.2289
 1014POPI   D2A14528   0.920   4.925   6.769  0.0056 -0.1814 -0.1832
 1014POPI   C3A14529   0.857   4.935   7.230  0.0436 -0.2011  0.0749
 1014POPI   C4A14530   0.578   4.865   7.532 -0.2584  0.1938 -0.3990
 1014POPI   C1B14531   0.415   4.351   6.697  0.1592  0.0339 -0.1824
 1014POPI   C2B14532   0.079   4.161   7.019  0.2112  0.1437 -0.1108
 1014POPI   C3B14533  -0.200   4.269   7.468  0.0518 -0.0773  0.0433
 1014POPI   C4B14534  -0.418   4.235   7.941  0.1184  0.3219  0.1361
 1015POPI    C114535   0.008  17.824   4.935  0.2350  0.0594 -0.1386
 1015POPI    C214536  -0.104  17.529   4.689  0.0901  0.1521 -0.1851
 1015POPI    C314537  -0.380  17.759   4.864  0.1938  0.1102  0.0366
 1015POPI   PO414538   0.203  17.673   5.119  0.5925 -0.1332 -0.1964
 1015POPI   GL114539   0.186  17.769   5.682  0.0495 -0.1023  0.5513
 1015POPI   GL214540   0.123  17.497   5.572 -0.1299  0.0050 -0.1460
 1015POPI   C1A14541   0.042  17.930   6.116  0.1272  0.2117 -0.2499
 1015POPI   D2A14542   0.043  17.922   6.538  0.0313  0.4951  0.0104
 1015POPI   C3A14543   0.203  17.862   7.010  0.2002 -0.4634  0.5668
 1015POPI   C4A14544   0.039  17.945   7.366  0.0604 -0.0403  0.1944
 1015POPI   C1B14545   0.073  17.399   6.025 -0.0371  0.0236  0.0694
 1015POPI   C2B14546   0.272  17.097   6.396  0.1461 -0.0251  0.0170
 1015POPI   C3B14547   0.203  17.018   6.733  0.0189 -0.1904  0.0348
 1015POPI   C4B14548   0.334  16.948   7.145 -0.0427  0.0404  0.3323
 1016POPI    C114549  16.484   8.073   6.109  0.3170 -0.0698  0.0574
 1016POPI    C214550  16.721   7.867   5.862 -0.0616 -0.1364 -0.2597
 1016POPI    C314551  16.419   8.082   5.715 -0.2117 -0.0671  0.1386
 1016POPI   PO414552  16.315   7.943   6.343  0.1267  0.1387  0.1716
 1016POPI   GL114553  16.309   7.712   6.754  0.0093 -0.1482  0.1550
 1016POPI   GL214554  16.014   7.553   6.809 -0.0246 -0.0014 -0.1247
 1016POPI   C1A14555  16.421   7.796   7.181 -0.0574  0.2034  0.0008
 1016POPI   D2A14556  16.294   7.718   7.579 -0.0869  0.0628 -0.0945
 1016POPI   C3A14557  16.252   7.512   8.076  0.0993  0.2322 -0.2046
 1016POPI   C4A14558  16.294   7.363   8.448  0.4936 -0.0052 -0.1213
 1016POPI   C1B14559  16.107   7.411   7.224 -0.1423 -0.1165  0.0485
 1016POPI   C2B14560  16.073   7.194   7.623 -0.1764  0.2592  0.3183
 1016POPI   C3B14561  15.984   6.818   7.979 -0.3315 -0.0415  0.1937
 1016POPI   C4B14562  16.020   6.378   8.163 -0.0651  0.0308 -0.2940
 1017POPI    C114563  11.313   6.061   5.975 -0.0355 -0.0709  0.0224
 1017POPI    C214564  11.431   6.239   5.637  0.0593 -0.0600  0.0609
 1017POPI    C314565  11.044   6.150   5.692  0.0049  0.1683  0.0574
 1017POPI   PO414566  11.403   6.186   6.142  0.1492 -0.3032  0.0491
 1017POPI   GL114567  11.687   6.060   6.448 -0.4111  0.0847 -0.0161
 1017POPI   GL214568  11.463   6.029   6.639  0.2002 -0.0876  0.1251
 1017POPI   C1A14569  11.905   6.274   6.749 -0.3033 -0.2438  0.1316
 1017POPI   D2A14570  12.043   6.671   6.978 -0.1588 -0.4766  0.1324
 1017POPI   C3A14571  12.071   6.688   7.396 -0.1975  0.0937  0.1682
 1017POPI   C4A14572  12.314   6.641   7.739  0.0004 -0.1032  0.2105
 1017POPI   C1B14573  11.595   5.949   7.043 -0.0560  0.0892 -0.0307
 1017POPI   C2B14574  11.635   5.657   7.407  0.1592  0.2516  0.0203
 1017POPI   C3B14575  11.693   5.730   7.863 -0.1060 -0.0838  0.0400
 1017POPI   C4B14576  11.349   5.867   8.107  0.2488 -0.2612  0.2161
 1018POPI    C114577   6.971   9.386   5.919 -0.0169 -0.0265 -0.0290
 1018POPI    C214578   6.603   9.231   5.904 -0.0866  0.1403 -0.0733
 1018POPI    C314579   6.883   9.106   5.647 -0.0960 -0.0258 -0.0043
 1018POPI   PO414580   6.991   9.449   6.155 -0.0933  0.0205  0.2947
 1018POPI   GL114581   6.981   9.402   6.516 -0.3580 -0.2262  0.1218
 1018POPI   GL214582   6.912   9.666   6.565  0.0140 -0.1018 -0.1861
 1018POPI   C1A14583   7.072   9.400   7.017  0.4374 -0.3383  0.0671
 1018POPI   D2A14584   7.129   9.258   7.454 -0.1355  0.0328 -0.0651
 1018POPI   C3A14585   7.519   9.324   7.763  0.1008  0.1287  0.0968
 1018POPI   C4A14586   7.821   9.354   8.096 -0.0993  0.1448  0.1080
 1018POPI   C1B14587   7.001   9.899   6.925  0.2111  0.0592 -0.2177
 1018POPI   C2B14588   7.067  10.112   7.273  0.1845 -0.0545 -0.1731
 1018POPI   C3B14589   6.952  10.083   7.671  0.0548  0.0112  0.3154
 1018POPI   C4B14590   6.971   9.836   7.963  0.4533  0.0205 -0.0744
 1019POPI    C114591   2.601  17.231   5.903  0.0590 -0.2819 -0.0993
 1019POPI    C214592   2.409  17.385   5.588  0.0146 -0.0412  0.0428
 1019POPI    C314593   2.808  17.358   5.584  0.0235  0.0866  0.0195
 1019POPI   PO414594   2.404  17.338   6.098  0.3191 -0.1074  0.0480
 1019POPI   GL114595   2.311  17.393   6.468 -0.3095 -0.1164  0.1507
 1019POPI   GL214596   2.496  17.118   6.531 -0.0222 -0.2117 -0.2396
 1019POPI   C1A14597   2.239  17.476   6.954 -0.4578 -0.0998  0.2966
 1019POPI   D2A14598   2.096  17.460   7.345  0.1298  0.0644  0.4268
 1019POPI   C3A14599   1.825  17.320   7.663  0.1012 -0.0852 -0.1024
 1019POPI   C4A14600   1.487  17.137   7.853 -0.0141 -0.0571 -0.1971
 1019POPI   C1B14601   2.503  16.867   6.860  0.2400  0.1729  0.1484
 1019POPI   C2B14602   2.349  16.997   7.173 -0.2605 -0.1516  0.2370
 1019POPI   C3B14603   2.042  16.917   7.515 -0.1063 -0.0604  0.0568
 1019POPI   C4B14604   1.900  16.552   7.621  0.1328  0.1672  0.0893
 1020POPI    C114605  10.229  13.276   5.571 -0.0483 -0.1133  0.1557
 1020POPI    C214606  10.555  13.177   5.362  0.0524  0.0636  0.2265
 1020POPI    C314607  10.193  13.072   5.229  0.1207  0.1014  0.0066
 1020POPI   PO414608  10.326  13.208   5.836  0.2011  0.2405 -0.1372
 1020POPI   GL114609  10.297  12.863   6.139  0.2209  0.0406 -0.0452
 1020POPI   GL214610  10.059  12.784   6.162  0.0775  0.1283  0.0722
 1020POPI   C1A14611  10.623  13.024   6.476  0.3544  0.1566 -0.0798
 1020POPI   D2A14612  11.013  13.098   6.739  0.0776 -0.0861 -0.0497
 1020POPI   C3A14613  11.191  13.093   7.097  0.0478  0.1756  0.3103
 1020POPI   C4A14614  11.140  13.089   7.515 -0.0008 -0.0321  0.3420
 1020POPI   C1B14615   9.744  12.816   6.477  0.0036  0.0805  0.0197
 1020POPI   C2B14616   9.709  12.941   6.830  0.1357 -0.0874  0.0920
 1020POPI   C3B14617   9.723  13.084   7.276  0.0553 -0.1003  0.0681
 1020POPI   C4B14618   9.909  12.961   7.643  0.2520  0.0603 -0.0792
 1021POPI    C114619   1.042  10.213   5.603  0.4308  0.0505  0.1533
 1021POPI    C214620   1.143  10.253   5.218  0.1033  0.0519  0.0645
 1021POPI    C314621   0.899  10.519   5.390 -0.0792 -0.1736  0.1599
 1021POPI   PO414622   1.363  10.116   5.646  0.1686 -0.0695 -0.2242
 1021POPI   GL114623   1.461  10.136   6.028  0.0729  0.0394 -0.0480
 1021POPI   GL214624   1.215  10.280   6.140  0.3592 -0.1263 -0.0678
 1021POPI   C1A14625   1.543  10.092   6.441 -0.1251 -0.0912 -0.0548
 1021POPI   D2A14626   1.335  10.050   6.835  0.1228 -0.0768 -0.2288
 1021POPI   C3A14627   1.404  10.208   7.257 -0.1449  0.0007 -0.0924
 1021POPI   C4A14628   1.296  10.445   7.563 -0.3534  0.3051 -0.3661
 1021POPI   C1B14629   0.989  10.139   6.524 -0.1108 -0.2764  0.0809
 1021POPI   C2B14630   0.893  10.176   6.981 -0.0783  0.1333 -0.1309
 1021POPI   C3B14631   0.935  10.186   7.385 -0.1290  0.0546 -0.4247
 1021POPI   C4B14632   0.682  10.215   7.656 -0.3204 -0.0145  0.1643
 1022POPI    C114633  10.090  13.586   5.981  0.0240  0.2173 -0.1178
 1022POPI    C214634   9.751  13.628   6.190 -0.0273  0.1288 -0.1823
 1022POPI    C314635   9.774  13.355   5.899  0.0670  0.2029 -0.2453
 1022POPI   PO414636  10.137  13.861   5.946 -0.1446  0.1069 -0.1974
 1022POPI   GL114637  10.114  14.062   6.378  0.1925 -0.0100 -0.0659
 1022POPI   GL214638  10.417  14.034   6.598 -0.3128 -0.4040 -0.3167
 1022POPI   C1A14639  10.065  14.318   6.770  0.1743 -0.1696  0.0842
 1022POPI   D2A14640  10.069  14.471   7.243  0.2892  0.0834 -0.1834
 1022POPI   C3A14641  10.331  14.642   7.517 -0.0650  0.1602 -0.1151
 1022POPI   C4A14642  10.327  14.572   7.967 -0.1905 -0.1067  0.1904
 1022POPI   C1B14643  10.273  14.017   7.064  0.0332  0.0421 -0.0642
 1022POPI   C2B14644  10.537  13.769   7.222  0.2827  0.2452  0.3540
 1022POPI   C3B14645  10.741  13.768   7.653  0.1425  0.0298  0.1278
 1022POPI   C4B14646  11.008  13.753   8.014  0.1038  0.2258  0.2582
 1023POPI    C114647  16.348   9.510   6.047  0.1466 -0.3538  0.2791
 1023POPI    C214648  16.180   9.253   5.790 -0.1107  0.1699 -0.0944
 1023POPI    C314649  16.576   9.311   5.785 -0.0799 -0.0382 -0.1696
 1023POPI   PO414650  16.062   9.505   6.221  0.2539 -0.0410 -0.1004
 1023POPI   GL114651  15.771   9.455   6.629  0.1021 -0.0297 -0.0233
 1023POPI   GL214652  15.517   9.361   6.542 -0.0805 -0.2608 -0.1347
 1023POPI   C1A14653  15.803   9.430   7.071  0.1861  0.1077  0.2043
 1023POPI   D2A14654  15.990   9.608   7.445  0.0622  0.0340  0.1758
 1023POPI   C3A14655  15.939   9.479   7.792 -0.0913  0.1852  0.2207
 1023POPI   C4A14656  15.912   9.307   8.307 -0.3077  0.2791 -0.2135
 1023POPI   C1B14657  15.348   9.517   6.935 -0.1757 -0.0212 -0.0088
 1023POPI   C2B14658  15.510   9.817   7.246  0.0261 -0.0489 -0.3066
 1023POPI   C3B14659  15.730  10.052   7.486  0.0440  0.3331 -0.0559
 1023POPI   C4B14660  15.761  10.487   7.688  0.3957 -0.2020 -0.2582
 1024POPI    C114661   3.434   7.733   5.776  0.0317 -0.1931  0.1461
 1024POPI    C214662   3.573   7.528   5.462  0.1729 -0.0925  0.1420
 1024POPI    C314663   3.530   7.925   5.438 -0.0571 -0.1147  0.1649
 1024POPI   PO414664   3.584   7.639   5.974  0.2538 -0.1122  0.4309
 1024POPI   GL114665   3.482   7.504   6.369  0.1926  0.2622 -0.0008
 1024POPI   GL214666   3.724   7.242   6.571  0.1079 -0.0625  0.0870
 1024POPI   C1A14667   3.181   7.293   6.602  0.1534 -0.0084 -0.0494
 1024POPI   D2A14668   2.827   7.137   6.817 -0.1817  0.1124 -0.0312
 1024POPI   C3A14669   2.760   7.281   7.293 -0.3003 -0.1715  0.0509
 1024POPI   C4A14670   2.757   7.598   7.669  0.0258 -0.2449 -0.0924
 1024POPI   C1B14671   3.508   7.158   6.969 -0.2953  0.0120 -0.2112
 1024POPI   C2B14672   3.643   6.909   7.260 -0.0495 -0.0028  0.1659
 1024POPI   C3B14673   3.837   7.070   7.716  0.0055  0.0473 -0.2767
 1024POPI   C4B14674   4.020   7.297   8.055  0.1203  0.0116  0.0361
 1025POPI    C114675  13.992   7.616   5.772 -0.0914  0.1354 -0.0048
 1025POPI    C214676  14.335   7.425   5.696 -0.1037  0.0042  0.2594
 1025POPI    C314677  14.066   7.477   5.404  0.1389  0.1085  0.0504
 1025POPI   PO414678  14.006   7.597   6.080  0.2465  0.2222  0.0222
 1025POPI   GL114679  14.132   7.524   6.482 -0.1502 -0.3203 -0.2984
 1025POPI   GL214680  14.046   7.781   6.689 -0.0659  0.1255  0.1667
 1025POPI   C1A14681  13.824   7.368   6.742 -0.1017 -0.0398  0.0844
 1025POPI   D2A14682  13.963   7.125   7.073  0.1215  0.0060  0.3353
 1025POPI   C3A14683  13.884   7.277   7.454  0.1741  0.3912  0.1435
 1025POPI   C4A14684  13.568   7.335   7.756 -0.0167  0.1318  0.1705
 1025POPI   C1B14685  13.927   7.743   7.188  0.1203  0.0027  0.2264
 1025POPI   C2B14686  13.890   7.781   7.545  0.0804  0.0509 -0.3306
 1025POPI   C3B14687  13.516   7.898   7.793  0.1594  0.0847  0.1956
 1025POPI   C4B14688  13.478   8.173   8.134  0.0686  0.1726 -0.2635
 1026POPI    C114689  14.291   4.060   5.411  0.0326  0.1034 -0.0064
 1026POPI    C214690  14.443   3.831   5.120 -0.3357 -0.2860  0.0978
 1026POPI    C314691  14.306   4.197   5.035  0.1744 -0.1301 -0.0886
 1026POPI   PO414692  14.428   4.025   5.593  0.0807  0.1635 -0.1206
 1026POPI   GL114693  14.557   3.831   5.913 -0.0580 -0.0810  0.1830
 1026POPI   GL214694  14.384   3.781   6.155 -0.2127  0.2132 -0.0017
 1026POPI   C1A14695  14.751   4.166   6.101  0.1937 -0.1550  0.1411
 1026POPI   D2A14696  14.631   4.622   6.254 -0.3292  0.0865  0.2349
 1026POPI   C3A14697  14.548   4.755   6.588 -0.0978 -0.2500  0.0799
 1026POPI   C4A14698  14.355   5.069   6.873  0.2084  0.0480 -0.3698
 1026POPI   C1B14699  14.472   3.677   6.532 -0.0740  0.1818 -0.1046
 1026POPI   C2B14700  14.379   3.492   7.068  0.1760 -0.0735 -0.0132
 1026POPI   C3B14701  14.475   3.433   7.435 -0.0701 -0.1205  0.2180
 1026POPI   C4B14702  14.744   3.304   7.678  0.2175  0.3193 -0.3097
 1027POPI    C114703   5.543  15.625   5.543 -0.0305  0.0306  0.0725
 1027POPI    C214704   5.881  15.442   5.434 -0.1201 -0.1815  0.1452
 1027POPI    C314705   5.716  15.716   5.194  0.1022 -0.0767  0.1097
 1027POPI   PO414706   5.584  15.615   5.798  0.0921  0.2272 -0.4377
 1027POPI   GL114707   5.616  15.848   6.170  0.2758 -0.2168  0.1497
 1027POPI   GL214708   5.440  16.135   6.049 -0.2305  0.0057 -0.0611
 1027POPI   C1A14709   5.837  16.219   6.404 -0.0192  0.2448 -0.2265
 1027POPI   D2A14710   5.782  16.454   6.869  0.1243 -0.1065 -0.4179
 1027POPI   C3A14711   5.877  16.415   7.196 -0.4385 -0.4247  0.0639
 1027POPI   C4A14712   5.885  16.593   7.559  0.3033  0.1783 -0.1708
 1027POPI   C1B14713   5.102  15.864   6.229  0.1496 -0.1898 -0.0965
 1027POPI   C2B14714   4.980  15.944   6.625 -0.2922 -0.1115 -0.1956
 1027POPI   C3B14715   4.989  15.926   7.065  0.0594  0.0223  0.0535
 1027POPI   C4B14716   5.024  16.103   7.544 -0.1155 -0.0268 -0.0507
 1028POPI    C114717  17.595   3.531   5.260  0.0341 -0.3424 -0.0884
 1028POPI    C214718  17.914   3.311   5.158  0.1894 -0.1623  0.0038
 1028POPI    C314719  17.794   3.612   4.922  0.1548 -0.1594  0.0251
 1028POPI   PO414720  17.566   3.479   5.512 -0.0777  0.1926  0.0994
 1028POPI   GL114721  17.491   3.079   5.886  0.3536 -0.1625 -0.2376
 1028POPI   GL214722  17.272   3.324   6.031 -0.3313 -0.0062 -0.0628
 1028POPI   C1A14723  17.548   2.923   6.279 -0.1232  0.2138  0.0248
 1028POPI   D2A14724  17.375   2.824   6.650 -0.1805 -0.1391  0.1119
 1028POPI   C3A14725  17.369   3.172   7.057  0.3120  0.1901 -0.0848
 1028POPI   C4A14726  17.653   3.510   7.090 -0.1238  0.0872  0.3108
 1028POPI   C1B14727  17.004   2.969   6.287 -0.1767 -0.0635  0.3515
 1028POPI   C2B14728  16.925   2.724   6.734 -0.2155 -0.2866  0.2112
 1028POPI   C3B14729  16.951   2.784   7.114 -0.2060  0.0230 -0.1053
 1028POPI   C4B14730  16.703   2.806   7.560 -0.0249  0.1258  0.0622
 1029POPI    C114731   4.347  14.141   5.540 -0.1142 -0.0318 -0.0218
 1029POPI    C214732   4.295  13.748   5.489 -0.1929 -0.0183 -0.0469
 1029POPI    C314733   4.272  13.995   5.175 -0.0192 -0.0069 -0.0515
 1029POPI   PO414734   4.432  14.118   5.787 -0.2678 -0.0556  0.2380
 1029POPI   GL114735   4.589  14.028   6.180 -0.3293  0.3749  0.0980
 1029POPI   GL214736   4.273  14.133   6.223 -0.3299  0.0263  0.2770
 1029POPI   C1A14737   4.394  13.901   6.638 -0.3394 -0.1228  0.1369
 1029POPI   D2A14738   4.296  13.894   6.983 -0.0660  0.1155  0.1009
 1029POPI   C3A14739   3.807  13.678   6.969 -0.0897 -0.2710 -0.0849
 1029POPI   C4A14740   3.441  13.435   6.995 -0.1150  0.1314 -0.1367
 1029POPI   C1B14741   4.339  14.414   6.562 -0.0619 -0.1923  0.1271
 1029POPI   C2B14742   4.468  14.423   7.016 -0.1223 -0.2212 -0.1869
 1029POPI   C3B14743   4.499  14.440   7.492 -0.0271  0.0906  0.1389
 1029POPI   C4B14744   4.560  14.620   7.836 -0.2414 -0.1641 -0.0310
 1030POPI    C114745   8.052   6.051   5.490  0.0192  0.1342 -0.2009
 1030POPI    C214746   8.292   5.873   5.224 -0.0274 -0.0656 -0.1113
 1030POPI    C314747   8.032   6.152   5.103 -0.0660 -0.1732 -0.2799
 1030POPI   PO414748   8.193   6.168   5.723 -0.0541 -0.0326 -0.0037
 1030POPI   GL114749   8.323   6.028   6.125  0.1138 -0.2471  0.1051
 1030POPI   GL214750   8.026   6.105   6.193 -0.2048  0.0463  0.1029
 1030POPI   C1A14751   8.349   5.758   6.415 -0.1335  0.2382 -0.1131
 1030POPI   D2A14752   8.265   5.882   6.795  0.0669 -0.0356 -0.2383
 1030POPI   C3A14753   8.473   5.814   7.172  0.2668 -0.1188  0.0939
 1030POPI   C4A14754   8.485   6.008   7.701  0.0187  0.3633  0.0731
 1030POPI   C1B14755   7.838   5.798   6.508  0.1288 -0.2643  0.0298
 1030POPI   C2B14756   7.560   5.980   6.806  0.1430 -0.3061  0.0928
 1030POPI   C3B14757   7.277   5.918   7.099  0.1751  0.0880  0.2568
 1030POPI   C4B14758   6.951   5.593   7.065 -0.0808  0.2291 -0.0140
 1031POPI    C114759  13.771   9.553   5.889  0.0753 -0.1195  0.0018
 1031POPI    C214760  13.588   9.896   5.794  0.2247 -0.0502 -0.0387
 1031POPI    C314761  13.387   9.609   5.987  0.1203  0.0896  0.0630
 1031POPI   PO414762  13.987   9.641   6.061 -0.0724  0.0702 -0.1491
 1031POPI   GL114763  13.720   9.755   6.425 -0.0328  0.1665  0.1523
 1031POPI   GL214764  13.639   9.437   6.389 -0.1210  0.1088 -0.1476
 1031POPI   C1A14765  13.607   9.575   6.917  0.1918 -0.2292 -0.1125
 1031POPI   D2A14766  13.723   9.514   7.259  0.0088  0.0806  0.1756
 1031POPI   C3A14767  13.358   9.560   7.540 -0.0094  0.2035 -0.3692
 1031POPI   C4A14768  12.900   9.224   7.650 -0.1349 -0.0175 -0.0709
 1031POPI   C1B14769  13.801   9.085   6.723 -0.0639 -0.0570 -0.2441
 1031POPI   C2B14770  13.793   9.024   7.132 -0.5219 -0.1718 -0.0256
 1031POPI   C3B14771  13.858   9.048   7.549  0.4349  0.1436 -0.1422
 1031POPI   C4B14772  13.896   9.435   7.715  0.0394 -0.2043  0.2356
 1032POPI    C114773   2.899  11.616   5.859 -0.1018 -0.1025  0.0903
 1032POPI    C214774   3.034  11.536   5.491 -0.0580  0.1061  0.0597
 1032POPI    C314775   2.649  11.626   5.547 -0.0051  0.3620  0.0213
 1032POPI   PO414776   2.987  11.877   5.914 -0.1617  0.2051 -0.1894
 1032POPI   GL114777   2.982  11.994   6.245  0.2995  0.1108 -0.5301
 1032POPI   GL214778   2.643  11.805   6.268  0.0992 -0.0501  0.0639
 1032POPI   C1A14779   3.023  11.929   6.732  0.1275  0.0642  0.3862
 1032POPI   D2A14780   2.876  11.945   7.074  0.0785 -0.0926  0.3389
 1032POPI   C3A14781   3.037  12.168   7.340  0.1883  0.0548  0.0876
 1032POPI   C4A14782   3.225  12.239   7.778  0.1273 -0.0793  0.1167
 1032POPI   C1B14783   2.553  12.012   6.653 -0.0901 -0.0504 -0.0534
 1032POPI   C2B14784   2.510  12.294   6.928 -0.2254 -0.5348  0.1041
 1032POPI   C3B14785   2.571  12.723   6.783 -0.1925 -0.2669 -0.0825
 1032POPI   C4B14786   2.585  13.141   6.850  0.0531 -0.0625 -0.1432
 1033POPI    C114787  18.161  11.865   5.705 -0.0398 -0.1300 -0.2286
 1033POPI    C214788  18.004  11.556   5.905 -0.3567  0.2561  0.1378
 1033POPI    C314789  17.798  11.727   5.607 -0.1318  0.0482 -0.1429
 1033POPI   PO414790  18.161  12.038   5.909  0.1741  0.1111 -0.0065
 1033POPI   GL114791  18.273  12.024   6.305 -0.2275  0.2481 -0.2733
 1033POPI   GL214792  17.985  12.147   6.414  0.4221  0.4397  0.2696
 1033POPI   C1A14793  18.605  12.079   6.452 -0.0780  0.0895  0.0602
 1033POPI   D2A14794  18.760  12.248   6.842  0.0103 -0.1341  0.0685
 1033POPI   C3A14795  18.870  12.672   6.950  0.0769  0.3235  0.2774
 1033POPI   C4A14796  18.931  13.100   7.067  0.2149 -0.3281 -0.1121
 1033POPI   C1B14797  18.120  12.015   6.785  0.3088 -0.1776  0.3047
 1033POPI   C2B14798  18.348  12.020   7.075  0.0875 -0.1229 -0.3230
 1033POPI   C3B14799  18.558  12.226   7.336  0.1976 -0.1615 -0.4083
 1033POPI   C4B14800  18.783  12.306   7.708  0.3418  0.0925  0.1891
 1034POPI    C114801   8.727   3.131   5.835 -0.1997  0.0930  0.0174
 1034POPI    C214802   8.423   3.111   5.575  0.0156 -0.0257 -0.2306
 1034POPI    C314803   8.775   2.944   5.484  0.1689  0.1447  0.0362
 1034POPI   PO414804   8.755   3.366   5.920 -0.5036 -0.1038  0.1339
 1034POPI   GL114805   8.831   3.678   6.284  0.0930 -0.0246 -0.1089
 1034POPI   GL214806   8.554   3.467   6.370 -0.0616  0.1458  0.5879
 1034POPI   C1A14807   8.592   3.830   6.638 -0.4429 -0.0646  0.1105
 1034POPI   D2A14808   8.555   3.898   6.986 -0.0673  0.2266 -0.3657
 1034POPI   C3A14809   8.178   3.925   7.275 -0.2423  0.0583  0.2092
 1034POPI   C4A14810   7.816   3.901   7.543 -0.1155  0.1603  0.1881
 1034POPI   C1B14811   8.922   3.511   6.783 -0.3865 -0.0291 -0.3243
 1034POPI   C2B14812   8.861   3.518   7.244 -0.0950 -0.0566 -0.3837
 1034POPI   C3B14813   8.860   3.524   7.686 -0.1737  0.0846 -0.2018
 1034POPI   C4B14814   8.627   3.418   8.074 -0.2766  0.1002 -0.0139
 1035POPI    C114815  17.112  14.023   5.166  0.1687  0.1422 -0.2744
 1035POPI    C214816  16.843  13.745   5.064  0.0794  0.0465  0.2000
 1035POPI    C314817  16.845  14.100   4.879 -0.3935  0.0595  0.2077
 1035POPI   PO414818  17.101  13.984   5.442  0.0484  0.0682 -0.0804
 1035POPI   GL114819  16.826  14.175   5.796 -0.0469 -0.4276  0.3121
 1035POPI   GL214820  17.031  14.474   5.821  0.1476 -0.1069  0.2348
 1035POPI   C1A14821  16.628  13.940   6.065  0.2470 -0.1586 -0.2353
 1035POPI   D2A14822  16.309  13.825   6.472  0.0987 -0.0267 -0.4091
 1035POPI   C3A14823  16.342  13.918   6.881 -0.0030 -0.4115  0.2605
 1035POPI   C4A14824  16.409  13.846   7.312  0.3074  0.0304  0.0093
 1035POPI   C1B14825  16.907  14.426   6.243  0.2822 -0.0320  0.0880
 1035POPI   C2B14826  16.949  14.336   6.692 -0.0809  0.2673  0.0045
 1035POPI   C3B14827  17.151  14.617   7.041  0.1172 -0.0090  0.3919
 1035POPI   C4B14828  17.375  14.925   7.231 -0.0465  0.1153 -0.5395
 1036POPI    C114829  11.903  11.729   6.001 -0.0909  0.2107 -0.1145
 1036POPI    C214830  12.081  11.771   6.357  0.2024  0.0461 -0.2384
 1036POPI    C314831  11.806  12.036   6.238  0.2905  0.2480 -0.0001
 1036POPI   PO414832  11.796  11.512   6.029 -0.1375  0.0115 -0.1799
 1036POPI   GL114833  11.562  11.379   6.349 -0.0595 -0.2056  0.0488
 1036POPI   GL214834  11.383  11.489   6.580 -0.3017 -0.2078 -0.0311
 1036POPI   C1A14835  11.647  11.133   6.791 -0.1088 -0.0533 -0.0616
 1036POPI   D2A14836  11.455  11.255   7.158 -0.2348 -0.2873  0.2024
 1036POPI   C3A14837  11.082  11.220   7.508 -0.1084 -0.0976 -0.4674
 1036POPI   C4A14838  10.920  10.951   7.880  0.0661  0.4993 -0.1532
 1036POPI   C1B14839  11.696  11.663   6.786 -0.1041 -0.2346  0.0567
 1036POPI   C2B14840  11.761  11.842   7.213 -0.0794 -0.2005  0.0430
 1036POPI   C3B14841  11.973  11.826   7.668  0.3461  0.0768 -0.1705
 1036POPI   C4B14842  12.076  11.491   7.868 -0.2056  0.2458 -0.1566
 1037POPI    C114843   5.391  12.561   5.309 -0.0834 -0.2456  0.0809
 1037POPI    C214844   5.514  12.394   4.967  0.1064 -0.2534  0.1518
 1037POPI    C314845   5.238  12.684   4.961  0.1032 -0.2589 -0.0066
 1037POPI   PO414846   5.400  12.316   5.546 -0.0533  0.1163 -0.1551
 1037POPI   GL114847   5.486  12.338   5.976  0.3295  0.2314 -0.1002
 1037POPI   GL214848   5.662  12.188   6.226 -0.1462  0.2144  0.2413
 1037POPI   C1A14849   5.148  12.208   6.273  0.1765  0.1033  0.2361
 1037POPI   D2A14850   4.911  12.098   6.607 -0.1360  0.0003 -0.2558
 1037POPI   C3A14851   4.918  12.062   7.030 -0.1114  0.1424  0.1256
 1037POPI   C4A14852   4.815  12.248   7.510 -0.3095 -0.4296 -0.0922
 1037POPI   C1B14853   5.498  12.262   6.593  0.2646  0.0796  0.1756
 1037POPI   C2B14854   5.373  12.315   6.979  0.2474 -0.0657  0.2222
 1037POPI   C3B14855   5.250  12.502   7.405 -0.0395 -0.0511 -0.1286
 1037POPI   C4B14856   5.402  12.781   7.603  0.2028 -0.1349  0.0450
 1038POPI    C114857  13.006   4.701   5.448 -0.0471  0.0392  0.1527
 1038POPI    C214858  12.768   5.023   5.451 -0.0833  0.0189 -0.1857
 1038POPI    C314859  12.951   4.912   5.113  0.5396  0.1274  0.1017
 1038POPI   PO414860  12.991   4.661   5.790  0.2762 -0.1861 -0.0398
 1038POPI   GL114861  12.706   4.581   6.135  0.0753 -0.0233 -0.1294
 1038POPI   GL214862  12.941   4.315   6.187 -0.0419  0.1266 -0.0434
 1038POPI   C1A14863  12.284   4.528   6.287  0.0909 -0.0193  0.0899
 1038POPI   D2A14864  12.208   4.140   6.359  0.1920  0.0915  0.1350
 1038POPI   C3A14865  12.050   4.046   6.659  0.3043  0.1324 -0.4161
 1038POPI   C4A14866  12.171   3.874   7.072 -0.2736 -0.0485  0.2780
 1038POPI   C1B14867  12.753   4.154   6.546  0.0760  0.1108 -0.4447
 1038POPI   C2B14868  12.631   3.993   7.074  0.1655 -0.1786  0.2707
 1038POPI   C3B14869  12.752   3.831   7.480 -0.0491  0.1324 -0.2300
 1038POPI   C4B14870  12.459   3.643   7.750 -0.2676 -0.2842 -0.1526
 1039POPI    C114871   0.068   3.208   5.520  0.1132 -0.2355  0.2181
 1039POPI    C214872  -0.162   2.896   5.421 -0.0055 -0.0670 -0.0479
 1039POPI    C314873  -0.287   3.157   5.697 -0.0255 -0.1087 -0.0175
 1039POPI   PO414874   0.306   3.036   5.663 -0.1995  0.2692  0.1161
 1039POPI   GL114875   0.213   3.061   6.080 -0.3009 -0.1666 -0.1393
 1039POPI   GL214876  -0.058   2.838   6.108  0.2433  0.0222 -0.0030
 1039POPI   C1A14877  -0.027   3.340   6.297 -0.0318 -0.0218 -0.1036
 1039POPI   D2A14878  -0.307   3.479   6.656 -0.1559  0.0930 -0.1302
 1039POPI   C3A14879  -0.300   3.138   6.906 -0.0969  0.0229 -0.0050
 1039POPI   C4A14880  -0.238   2.987   7.216  0.2712  0.1809  0.0677
 1039POPI   C1B14881  -0.224   2.869   6.490  0.1391 -0.1260 -0.3000
 1039POPI   C2B14882  -0.448   2.644   6.892 -0.1812 -0.1342 -0.1923
 1039POPI   C3B14883  -0.649   2.700   7.298 -0.1182  0.0780 -0.3916
 1039POPI   C4B14884  -0.711   2.587   7.793  0.0135  0.1646 -0.2302
 1040POPI    C114885   7.494   8.748   6.036  0.0432 -0.0613 -0.0689
 1040POPI    C214886   7.482   8.719   5.637 -0.1120  0.0399 -0.0724
 1040POPI    C314887   7.360   9.055   5.817  0.0200  0.0192  0.0576
 1040POPI   PO414888   7.700   8.487   6.098  0.0657 -0.2676 -0.2064
 1040POPI   GL114889   7.894   8.337   6.448  0.0169  0.0511 -0.1872
 1040POPI   GL214890   7.861   8.103   6.611 -0.0379 -0.1191 -0.0038
 1040POPI   C1A14891   7.700   8.468   6.934 -0.0685  0.3039 -0.2525
 1040POPI   D2A14892   7.826   8.383   7.295  0.1097 -0.1659  0.1074
 1040POPI   C3A14893   7.888   8.415   7.816 -0.0925 -0.0623  0.1804
 1040POPI   C4A14894   7.993   8.478   8.218 -0.0798  0.1001 -0.1845
 1040POPI   C1B14895   8.034   8.088   6.916  0.0156  0.3777  0.1144
 1040POPI   C2B14896   8.539   8.129   7.147 -0.1968 -0.1143  0.0151
 1040POPI   C3B14897   8.858   8.161   7.456  0.0556 -0.0952 -0.2098
 1040POPI   C4B14898   8.857   8.192   7.957 -0.0084  0.0410  0.1016
 1041POPI    C114899   4.093   2.297   5.847  0.3465  0.1108 -0.0700
 1041POPI    C214900   3.806   2.525   5.686  0.0534 -0.0942  0.1524
 1041POPI    C314901   4.030   2.290   5.452 -0.1851 -0.1838  0.0116
 1041POPI   PO414902   4.056   2.069   5.974 -0.0888 -0.3784 -0.2747
 1041POPI   GL114903   3.836   1.877   6.255  0.2716  0.3102  0.3841
 1041POPI   GL214904   4.148   1.728   6.305 -0.1651 -0.2118  0.2001
 1041POPI   C1A14905   3.836   1.976   6.692  0.1351 -0.0847 -0.1819
 1041POPI   D2A14906   3.929   1.596   6.849  0.4244 -0.0015  0.2714
 1041POPI   C3A14907   3.808   1.261   7.108 -0.2652  0.0090 -0.0630
 1041POPI   C4A14908   3.691   1.036   7.529  0.0098  0.2097 -0.1174
 1041POPI   C1B14909   4.351   1.903   6.630 -0.1781 -0.1142 -0.0546
 1041POPI   C2B14910   4.437   1.950   7.063 -0.2495 -0.0460  0.0498
 1041POPI   C3B14911   4.481   1.855   7.576 -0.0429 -0.0373 -0.0004
 1041POPI   C4B14912   4.458   1.901   7.989  0.0755 -0.0177 -0.1216
 1042POPI    C114913   5.101  10.901   5.695 -0.1282 -0.1346  0.0146
 1042POPI    C214914   5.238  10.991   5.330 -0.0489  0.1286  0.1068
 1042POPI    C314915   4.854  11.058   5.422 -0.1282 -0.1623 -0.0013
 1042POPI   PO414916   5.233  10.643   5.773  0.1324  0.0235  0.1526
 1042POPI   GL114917   5.067  10.304   6.030 -0.0852 -0.1685 -0.0537
 1042POPI   GL214918   5.198  10.382   6.379 -0.1608  0.1892 -0.0623
 1042POPI   C1A14919   4.998   9.873   6.329 -0.0621  0.1744 -0.1706
 1042POPI   D2A14920   4.962   9.720   6.755  0.2382 -0.1049 -0.0059
 1042POPI   C3A14921   4.816   9.945   7.113 -0.0649  0.1229  0.5221
 1042POPI   C4A14922   4.646   9.932   7.443  0.1959  0.2509  0.1410
 1042POPI   C1B14923   5.644  10.341   6.664  0.1681  0.2383  0.1741
 1042POPI   C2B14924   5.664  10.383   7.072  0.4417  0.1912 -0.0893
 1042POPI   C3B14925   5.702  10.805   7.371  0.1019  0.1727  0.3443
 1042POPI   C4B14926   5.860  11.061   7.516  0.2802  0.0782 -0.2086
 1043POPI    C114927   9.584   3.782   6.129 -0.0769 -0.0691  0.0404
 1043POPI    C214928   9.513   3.617   5.771 -0.0948  0.0521 -0.0124
 1043POPI    C314929   9.733   3.421   6.042 -0.4383 -0.2297  0.0700
 1043POPI   PO414930   9.351   3.801   6.268  0.2610  0.0697 -0.1656
 1043POPI   GL114931   9.327   3.634   6.633 -0.0740 -0.1425  0.0090
 1043POPI   GL214932   9.666   3.550   6.511 -0.2845 -0.1633 -0.0315
 1043POPI   C1A14933   9.343   3.461   7.122  0.0002  0.0385  0.4380
 1043POPI   D2A14934   9.416   3.503   7.442  0.1223 -0.0578  0.1159
 1043POPI   C3A14935   9.323   3.627   7.852  0.2198  0.1006 -0.4152
 1043POPI   C4A14936   9.152   3.610   8.270 -0.1085 -0.0288 -0.0083
 1043POPI   C1B14937   9.824   3.572   6.872 -0.6468  0.0848 -0.3964
 1043POPI   C2B14938   9.895   3.537   7.276 -0.1205  0.1625  0.2378
 1043POPI   C3B14939   9.934   3.342   7.628 -0.0942  0.1390 -0.0795
 1043POPI   C4B14940   9.864   3.588   7.989  0.3217  0.0283  0.3025
 1044POPI    C114941   4.476   7.547   5.856  0.2636 -0.3894  0.3433
 1044POPI    C214942   4.842   7.658   5.740  0.2021 -0.4355  0.0998
 1044POPI    C314943   4.635   7.394   5.523 -0.1219 -0.1347  0.0334
 1044POPI   PO414944   4.581   7.488   6.122  0.5591  0.2427  0.1298
 1044POPI   GL114945   4.540   7.899   6.442 -0.0352 -0.2221  0.4097
 1044POPI   GL214946   4.187   7.702   6.504  0.3731 -0.0920 -0.0645
 1044POPI   C1A14947   4.597   7.655   6.728 -0.0902  0.0428  0.2138
 1044POPI   D2A14948   4.912   7.539   7.018  0.2481 -0.3051 -0.4184
 1044POPI   C3A14949   4.764   7.409   7.419 -0.1478  0.0056  0.1263
 1044POPI   C4A14950   4.570   7.215   7.866  0.2610  0.1034 -0.0437
 1044POPI   C1B14951   4.294   7.593   7.074 -0.0063 -0.1659  0.3068
 1044POPI   C2B14952   4.103   7.845   7.398 -0.2714  0.1443  0.4668
 1044POPI   C3B14953   4.142   7.861   7.818 -0.2367 -0.0804 -0.1141
 1044POPI   C4B14954   3.924   8.072   8.077 -0.1540 -0.1665  0.0645
 1045POPI    C114955  17.019  15.592   5.178  0.0643 -0.0253 -0.1490
 1045POPI    C214956  16.714  15.841   5.110 -0.0045 -0.0664  0.0052
 1045POPI    C314957  17.089  15.963   5.045 -0.0592 -0.0636 -0.3250
 1045POPI   PO414958  16.982  15.399   5.512 -0.0301 -0.0732  0.0197
 1045POPI   GL114959  16.820  14.999   5.771  0.2066  0.0787 -0.1197
 1045POPI   GL214960  16.714  14.890   6.034 -0.3264 -0.0022  0.1377
 1045POPI   C1A14961  16.923  15.259   6.319  0.2748 -0.1353 -0.0297
 1045POPI   D2A14962  16.675  15.557   6.483  0.1475  0.0248 -0.2712
 1045POPI   C3A14963  16.705  15.572   6.941 -0.1532  0.2067  0.0818
 1045POPI   C4A14964  16.665  15.775   7.288  0.0777 -0.0603  0.0535
 1045POPI   C1B14965  16.679  14.817   6.437  0.2791 -0.0988  0.1008
 1045POPI   C2B14966  16.644  14.797   6.845 -0.1458  0.1528 -0.0210
 1045POPI   C3B14967  16.471  14.712   7.273 -0.0323  0.1902  0.3461
 1045POPI   C4B14968  16.432  14.971   7.618 -0.1304  0.0851 -0.0432
 1046POPI    C114969   1.581   4.315   5.547  0.2648 -0.1241  0.0706
 1046POPI    C214970   1.299   4.219   5.280  0.1161 -0.0266  0.1911
 1046POPI    C314971   1.671   4.079   5.237  0.1070  0.0331 -0.0973
 1046POPI   PO414972   1.428   4.592   5.660  0.0010 -0.0698  0.1918
 1046POPI   GL114973   1.287   4.521   6.091 -0.2193  0.0152 -0.2023
 1046POPI   GL214974   1.074   4.346   6.206  0.0308 -0.0485 -0.2794
 1046POPI   C1A14975   1.206   4.787   6.418 -0.0266  0.2780 -0.0517
 1046POPI   D2A14976   1.421   4.945   6.711 -0.1767  0.0534 -0.2409
 1046POPI   C3A14977   1.373   4.941   7.102  0.3249  0.0407  0.2002
 1046POPI   C4A14978   1.398   5.158   7.526 -0.0004 -0.0983 -0.1542
 1046POPI   C1B14979   0.928   4.403   6.655  0.1414  0.0810 -0.0224
 1046POPI   C2B14980   0.891   4.451   7.116  0.2329  0.2288  0.0207
 1046POPI   C3B14981   0.783   4.312   7.463 -0.0107 -0.4887 -0.0455
 1046POPI   C4B14982   0.622   4.424   7.895 -0.0334 -0.1414 -0.1676
 1047POPI    C114983   1.837  16.839   5.390  0.1289  0.0227 -0.1423
 1047POPI    C214984   2.082  16.959   5.681 -0.3294 -0.0772  0.2995
 1047POPI    C314985   2.166  16.628   5.473  0.0774  0.0756  0.2104
 1047POPI   PO414986   1.555  16.964   5.485 -0.3326  0.1412 -0.0253
 1047POPI   GL114987   1.484  17.011   5.825 -0.2472  0.1466  0.1093
 1047POPI   GL214988   1.702  16.601   5.821  0.2433 -0.2877 -0.4672
 1047POPI   C1A14989   1.255  17.015   6.128 -0.2066  0.0734  0.1337
 1047POPI   D2A14990   1.114  16.763   6.385 -0.0124  0.0267  0.1461
 1047POPI   C3A14991   1.063  16.490   6.769  0.0818  0.2492 -0.0908
 1047POPI   C4A14992   1.160  16.189   7.149 -0.1091  0.0339  0.2258
 1047POPI   C1B14993   1.659  16.634   6.287  0.0653 -0.1570  0.2990
 1047POPI   C2B14994   1.537  16.586   6.673 -0.4084  0.1186 -0.1863
 1047POPI   C3B14995   1.645  16.494   7.082  0.0413 -0.0009  0.2491
 1047POPI   C4B14996   1.448  16.370   7.486 -0.0271 -0.2398  0.1947
 1048POPI    C114997   3.204  16.755   5.578 -0.0569  0.1650  0.0793
 1048POPI    C214998   3.574  16.859   5.466 -0.0906  0.2249  0.0229
 1048POPI    C314999   3.307  16.744   5.191 -0.0070 -0.1653  0.0993
 1048POPI   PO415000   3.095  16.966   5.684 -0.1793  0.1888 -0.3152
 1048POPI   GL115001   3.060  16.977   6.083  0.0924 -0.1845  0.0704
 1048POPI   GL215002   3.123  16.773   6.208  0.0236  0.1255 -0.2040
 1048POPI   C1A15003   2.645  16.749   6.211  0.0641 -0.0508  0.0650
 1048POPI   D2A15004   2.306  16.549   6.307 -0.1705 -0.0852  0.4461
 1048POPI   C3A15005   2.267  16.426   6.690 -0.0939  0.0202 -0.0491
 1048POPI   C4A15006   2.125  16.567   7.009  0.0155 -0.0295 -0.0456
 1048POPI   C1B15007   2.986  16.981   6.628 -0.3564  0.3132 -0.1473
 1048POPI   C2B15008   3.242  17.170   6.915 -0.0964 -0.0383 -0.1433
 1048POPI   C3B15009   3.250  17.126   7.267 -0.3006 -0.2080  0.0097
 1048POPI   C4B15010   3.376  17.036   7.592  0.0688  0.1136 -0.0765
 1049POPI    C115011  15.662   6.912   5.956  0.1704  0.0358  0.0871
 1049POPI    C215012  15.702   7.057   5.585 -0.3637  0.0610  0.0318
 1049POPI    C315013  15.515   6.708   5.645  0.1057 -0.1627  0.2453
 1049POPI   PO415014  15.539   7.187   6.161  0.1909 -0.0844  0.1153
 1049POPI   GL115015  15.263   7.077   6.536 -0.1430 -0.0199 -0.0359
 1049POPI   GL215016  15.155   6.836   6.592 -0.1353 -0.4180 -0.0722
 1049POPI   C1A15017  15.536   7.130   6.875  0.1731 -0.0179 -0.0357
 1049POPI   D2A15018  15.686   7.087   7.253  0.2970 -0.0444 -0.2113
 1049POPI   C3A15019  15.563   6.971   7.591  0.0265  0.2211 -0.1488
 1049POPI   C4A15020  15.560   7.099   7.969 -0.3205 -0.1181 -0.2431
 1049POPI   C1B15021  15.208   6.536   6.888 -0.0892 -0.0680 -0.1018
 1049POPI   C2B15022  14.947   6.464   7.154  0.0588 -0.0205 -0.2465
 1049POPI   C3B15023  14.734   6.356   7.609 -0.0193 -0.2175 -0.0699
 1049POPI   C4B15024  14.683   6.212   7.933  0.3403  0.1272 -0.0117
 1050POPI    C115025   9.462  16.396   5.535  0.0616  0.0302 -0.3427
 1050POPI    C215026   9.137  16.607   5.438 -0.1641 -0.1029  0.1006
 1050POPI    C315027   9.131  16.208   5.412 -0.0386 -0.1059  0.1155
 1050POPI   PO415028   9.479  16.416   5.781 -0.2262  0.2425 -0.1106
 1050POPI   GL115029   9.546  16.347   6.149 -0.0727 -0.0616 -0.1528
 1050POPI   GL215030   9.823  16.175   6.185  0.1841 -0.2694  0.0007
 1050POPI   C1A15031   9.159  16.287   6.384  0.0559  0.1399 -0.2010
 1050POPI   D2A15032   8.818  16.221   6.623  0.1328 -0.1633 -0.1343
 1050POPI   C3A15033   8.743  16.186   7.007 -0.2706  0.0897  0.2397
 1050POPI   C4A15034   8.611  16.161   7.437  0.1415  0.0287 -0.0579
 1050POPI   C1B15035   9.711  16.339   6.624  0.2898  0.1725 -0.0061
 1050POPI   C2B15036   9.982  16.482   7.009 -0.0747 -0.0449  0.0003
 1050POPI   C3B15037  10.015  16.656   7.380 -0.1337  0.1899  0.2060
 1050POPI   C4B15038   9.765  16.725   7.800 -0.1163  0.0069 -0.1291
 1051POPI    C115039   7.901  10.487   6.022 -0.1004 -0.0500 -0.0630
 1051POPI    C215040   8.250  10.680   5.989 -0.0558 -0.1048  0.0817
 1051POPI    C315041   8.096  10.489   5.673 -0.0356  0.0565 -0.0266
 1051POPI   PO415042   7.873  10.512   6.328 -0.5272 -0.1573 -0.0792
 1051POPI   GL115043   7.830  10.600   6.704 -0.1432  0.0387 -0.1322
 1051POPI   GL215044   7.483  10.664   6.581  0.0928 -0.1311 -0.1838
 1051POPI   C1A15045   8.004  10.485   7.120  0.0493  0.0907 -0.4203
 1051POPI   D2A15046   8.169  10.192   7.405 -0.2269  0.1692  0.2213
 1051POPI   C3A15047   8.055  10.132   7.868 -0.0168 -0.0605 -0.0580
 1051POPI   C4A15048   8.256  10.179   8.323 -0.0227 -0.1233 -0.3422
 1051POPI   C1B15049   7.263  10.737   6.871 -0.0694  0.1021  0.0570
 1051POPI   C2B15050   7.361  10.809   7.385  0.1046 -0.0421 -0.0451
 1051POPI   C3B15051   7.518  10.757   7.683  0.0277  0.1014  0.0866
 1051POPI   C4B15052   7.848  10.780   7.984 -0.0811  0.0271  0.0728
 1052POPI    C115053  10.424   0.266   5.225  0.0322 -0.2103  0.1000
 1052POPI    C215054  10.729   0.170   4.985 -0.0983 -0.3094 -0.0279
 1052POPI    C315055  10.450   0.429   4.861  0.0072 -0.1110  0.1423
 1052POPI   PO415056  10.538   0.380   5.461  0.0440 -0.2421  0.2042
 1052POPI   GL115057  10.716   0.371   5.996 -0.0529 -0.1064 -0.0385
 1052POPI   GL215058  10.771   0.626   5.875  0.3743 -0.0253 -0.1396
 1052POPI   C1A15059  10.761   0.375   6.401 -0.0997  0.0025  0.1675
 1052POPI   D2A15060  10.672   0.280   6.807  0.0657 -0.0760 -0.2055
 1052POPI   C3A15061  10.556   0.492   7.109  0.2228  0.0078  0.0427
 1052POPI   C4A15062  10.775   0.651   7.454  0.4987 -0.1890 -0.1935
 1052POPI   C1B15063  10.501   0.844   6.171 -0.0708  0.0066  0.0347
 1052POPI   C2B15064  10.211   0.917   6.639 -0.3987 -0.0853  0.1833
 1052POPI   C3B15065  10.185   0.892   7.042  0.3276 -0.3209 -0.0020
 1052POPI   C4B15066  10.332   0.994   7.359 -0.0631  0.1413  0.2186
 1053POPI    C115067   1.033  13.643   5.244  0.2406  0.2167  0.0937
 1053POPI    C215068   1.318  13.788   5.004  0.1853  0.2030  0.0192
 1053POPI    C315069   0.952  13.950   5.001  0.0395 -0.1188 -0.2755
 1053POPI   PO415070   1.138  13.694   5.478  0.1818  0.5575 -0.1711
 1053POPI   GL115071   0.998  13.614   5.955  0.0488 -0.0820  0.5474
 1053POPI   GL215072   0.709  13.661   6.018 -0.2570  0.0010  0.2114
 1053POPI   C1A15073   1.248  13.593   6.290  0.2428  0.2832  0.2088
 1053POPI   D2A15074   1.283  14.017   6.428 -0.0831 -0.1464  0.0543
 1053POPI   C3A15075   1.612  14.136   6.623 -0.2917  0.0012  0.0334
 1053POPI   C4A15076   1.599  14.451   6.988  0.2269  0.0451 -0.2455
 1053POPI   C1B15077   0.736  13.794   6.380 -0.0194 -0.2228 -0.2300
 1053POPI   C2B15078   0.895  13.973   6.698  0.1271  0.4314 -0.1635
 1053POPI   C3B15079   1.232  13.906   6.961  0.1609  0.0313 -0.2419
 1053POPI   C4B15080   1.299  14.193   7.323 -0.0452 -0.2022 -0.1195
 1054POPI    C115081  11.069  13.551   5.843 -0.2699  0.0719  0.0809
 1054POPI    C215082  11.293  13.742   5.572 -0.2097 -0.0469  0.0463
 1054POPI    C315083  11.026  13.469   5.454 -0.2447 -0.0360  0.1004
 1054POPI   PO415084  10.971  13.739   5.983  0.2842  0.1469 -0.0313
 1054POPI   GL115085  10.543  13.614   6.245 -0.1213 -0.4077  0.0390
 1054POPI   GL215086  10.784  13.350   6.176  0.3443  0.0105 -0.1043
 1054POPI   C1A15087  10.604  13.588   6.666 -0.0690  0.1504  0.2976
 1054POPI   D2A15088  10.589  13.287   6.978 -0.0185  0.3129  0.3292
 1054POPI   C3A15089  10.751  13.336   7.399  0.2055  0.2037  0.2682
 1054POPI   C4A15090  10.673  13.135   7.790 -0.2554  0.0887 -0.3287
 1054POPI   C1B15091  11.080  13.546   6.557 -0.0512  0.3165  0.3913
 1054POPI   C2B15092  11.046  13.554   6.893 -0.0712 -0.0120 -0.0201
 1054POPI   C3B15093  11.145  13.636   7.306  0.0814  0.1195 -0.2937
 1054POPI   C4B15094  11.284  13.552   7.663 -0.0167  0.3450  0.0434
 1055POPI    C115095  10.094   6.437   6.157  0.1695 -0.0189 -0.0648
 1055POPI    C215096  10.224   6.459   5.780  0.1464  0.2577 -0.0588
 1055POPI    C315097  10.285   6.765   6.030  0.2869  0.0196  0.2038
 1055POPI   PO415098  10.139   6.213   6.250  0.3124 -0.0662  0.0739
 1055POPI   GL115099  10.069   6.039   6.680  0.1692 -0.1227 -0.0948
 1055POPI   GL215100  10.215   6.400   6.724 -0.0953 -0.2326 -0.0666
 1055POPI   C1A15101   9.886   6.038   7.165  0.0980 -0.2744 -0.2657
 1055POPI   D2A15102   9.900   6.043   7.594 -0.2304  0.1270  0.1543
 1055POPI   C3A15103  10.159   6.489   7.763 -0.0332  0.0267  0.2755
 1055POPI   C4A15104  10.353   6.619   8.121 -0.2526  0.1871  0.0871
 1055POPI   C1B15105  10.160   6.529   7.124 -0.1475  0.1545  0.0682
 1055POPI   C2B15106   9.987   6.836   7.478  0.2315  0.0388 -0.1776
 1055POPI   C3B15107  10.017   7.038   7.906 -0.1695 -0.0819 -0.2526
 1055POPI   C4B15108  10.046   7.407   8.152 -0.2044 -0.1010 -0.0556
 1056POPI    C115109   7.779  10.065   5.744  0.1749  0.2138  0.1290
 1056POPI    C215110   7.470  10.245   5.566  0.2666  0.1856 -0.0618
 1056POPI    C315111   7.543   9.858   5.495  0.2293  0.1412  0.1372
 1056POPI   PO415112   7.762   9.948   6.008 -0.0055  0.1634  0.0291
 1056POPI   GL115113   8.007   9.797   6.414 -0.1240 -0.0860 -0.0455
 1056POPI   GL215114   7.805   9.645   6.526 -0.1462  0.1814  0.0161
 1056POPI   C1A15115   8.343   9.796   6.614  0.1539 -0.2052 -0.0735
 1056POPI   D2A15116   8.592   9.498   6.777  0.4667 -0.3695 -0.1141
 1056POPI   C3A15117   8.920   9.587   7.091 -0.2503 -0.2128  0.0309
 1056POPI   C4A15118   9.025   9.727   7.410 -0.2537  0.2012 -0.0651
 1056POPI   C1B15119   7.974   9.552   6.874  0.2265 -0.1574  0.2150
 1056POPI   C2B15120   8.388   9.805   7.070  0.0855 -0.1434  0.2985
 1056POPI   C3B15121   8.715  10.032   6.953 -0.1220 -0.1014 -0.1711
 1056POPI   C4B15122   8.948   9.929   6.607 -0.1801 -0.0096 -0.0862
 1057POPI    C115123   3.732  16.723   5.861 -0.0458  0.1625 -0.1757
 1057POPI    C215124   4.086  16.888   5.776 -0.0596  0.2284 -0.1052
 1057POPI    C315125   3.980  16.544   5.603  0.1083  0.1236 -0.0025
 1057POPI   PO415126   3.574  16.908   5.965 -0.0382  0.2240 -0.0120
 1057POPI   GL115127   3.490  17.052   6.393  0.0807 -0.0119  0.1644
 1057POPI   GL215128   3.365  17.336   6.399 -0.0707  0.0231 -0.1847
 1057POPI   C1A15129   3.620  16.722   6.752  0.0159  0.1398 -0.0256
 1057POPI   D2A15130   3.602  16.779   7.196  0.0547 -0.2581 -0.0335
 1057POPI   C3A15131   3.710  16.620   7.537  0.0192  0.1500 -0.0156
 1057POPI   C4A15132   3.809  16.757   7.939  0.0500 -0.1228  0.0550
 1057POPI   C1B15133   3.681  17.349   6.720 -0.0265 -0.1189  0.1341
 1057POPI   C2B15134   3.739  17.271   7.144 -0.1210 -0.1062  0.0878
 1057POPI   C3B15135   3.853  17.194   7.562  0.1973  0.2377  0.2241
 1057POPI   C4B15136   4.231  17.068   7.794 -0.0266 -0.0208  0.1861
 1058POPI    C115137   2.400   9.130   5.619 -0.0370  0.0311 -0.1968
 1058POPI    C215138   2.581   9.366   5.351 -0.0795  0.0637 -0.1968
 1058POPI    C315139   2.282   9.125   5.236  0.1995 -0.2552 -0.2703
 1058POPI   PO415140   2.524   9.166   5.818 -0.0009 -0.2670 -0.3455
 1058POPI   GL115141   2.349   8.980   6.305  0.0512  0.2726  0.0802
 1058POPI   GL215142   2.485   8.735   6.364  0.0281 -0.0540 -0.0506
 1058POPI   C1A15143   2.268   9.125   6.713 -0.0042 -0.0077 -0.3172
 1058POPI   D2A15144   2.016   8.852   6.875  0.2518  0.1957 -0.3447
 1058POPI   C3A15145   1.987   8.792   7.314 -0.1025  0.1133  0.0858
 1058POPI   C4A15146   2.041   9.068   7.672  0.2046 -0.0560  0.0274
 1058POPI   C1B15147   2.622   8.819   6.779  0.0955  0.3052  0.2976
 1058POPI   C2B15148   2.445   8.864   7.173  0.0335  0.1636  0.0029
 1058POPI   C3B15149   2.206   9.240   7.206  0.1214  0.4636  0.1335
 1058POPI   C4B15150   1.786   9.274   6.994 -0.3036 -0.2652  0.1979
 1059POPI    C115151   4.418   1.990   5.628 -0.0637  0.2691 -0.3136
 1059POPI    C215152   4.696   1.840   5.382 -0.1659 -0.0201 -0.2573
 1059POPI    C315153   4.355   1.641   5.442 -0.1687  0.0778  0.0718
 1059POPI   PO415154   4.586   2.063   5.845  0.2243  0.2657  0.0918
 1059POPI   GL115155   4.843   2.224   6.180  0.4535  0.0770  0.0193
 1059POPI   GL215156   4.448   2.229   6.293 -0.3807  0.2357 -0.0802
 1059POPI   C1A15157   5.065   1.950   6.451  0.1211 -0.0051 -0.1166
 1059POPI   D2A15158   5.331   1.693   6.775  0.0124  0.2744  0.1513
 1059POPI   C3A15159   5.200   1.664   7.144  0.0244 -0.1236  0.1065
 1059POPI   C4A15160   5.410   1.541   7.338  0.3226  0.2363 -0.2919
 1059POPI   C1B15161   4.567   2.331   6.732  0.2814 -0.3108  0.0618
 1059POPI   C2B15162   4.605   2.441   7.224 -0.1285  0.0117 -0.0643
 1059POPI   C3B15163   4.619   2.407   7.693 -0.0096  0.1451 -0.0926
 1059POPI   C4B15164   4.584   2.376   8.091  0.1092 -0.1060  0.2835
 1060POPI    C115165   2.115   3.946   5.439 -0.1286  0.0107  0.0144
 1060POPI    C215166   2.057   3.617   5.218 -0.0935  0.0397 -0.0382
 1060POPI    C315167   2.276   3.919   5.073  0.0744 -0.0120  0.1041
 1060POPI   PO415168   1.995   3.976   5.626 -0.2809 -0.0174  0.2460
 1060POPI   GL115169   1.792   3.711   6.098 -0.1204 -0.0169  0.1114
 1060POPI   GL215170   1.988   3.520   6.130  0.0733 -0.0310 -0.2958
 1060POPI   C1A15171   1.633   3.774   6.519  0.0419  0.0318 -0.1396
 1060POPI   D2A15172   1.537   3.841   6.966 -0.3125 -0.1100  0.0240
 1060POPI   C3A15173   1.652   4.126   7.332 -0.1240  0.1341  0.2375
 1060POPI   C4A15174   1.574   4.174   7.661  0.1098 -0.2480  0.0576
 1060POPI   C1B15175   2.167   3.670   6.527  0.0594 -0.1287 -0.1681
 1060POPI   C2B15176   2.284   3.617   6.964 -0.1698 -0.0455 -0.3670
 1060POPI   C3B15177   2.533   3.829   7.309  0.2580 -0.0932  0.0505
 1060POPI   C4B15178   2.422   4.110   7.676 -0.2079 -0.0601 -0.0576
 1061POPI    C115179   3.493   9.015   5.693 -0.0901 -0.2112 -0.0951
 1061POPI    C215180   3.498   8.959   5.297 -0.4034 -0.2714 -0.0933
 1061POPI    C315181   3.418   9.321   5.448  0.3764 -0.0840 -0.0878
 1061POPI   PO415182   3.729   8.906   5.764  0.0526 -0.0944 -0.2165
 1061POPI   GL115183   3.941   8.795   6.241 -0.2251  0.0711  0.0703
 1061POPI   GL215184   3.676   9.082   6.225 -0.2581 -0.0186 -0.2747
 1061POPI   C1A15185   3.943   8.622   6.673 -0.0992  0.1454 -0.2014
 1061POPI   D2A15186   3.877   8.491   7.010  0.1234 -0.1831 -0.1609
 1061POPI   C3A15187   3.632   8.154   7.204  0.0370 -0.0028 -0.0872
 1061POPI   C4A15188   3.659   7.945   7.604 -0.0139 -0.1532  0.1085
 1061POPI   C1B15189   3.696   9.163   6.619  0.1141 -0.0081  0.0327
 1061POPI   C2B15190   3.629   9.004   6.998  0.1084 -0.2235 -0.0654
 1061POPI   C3B15191   3.507   9.092   7.476 -0.3027 -0.0371  0.0405
 1061POPI   C4B15192   3.766   9.005   7.791 -0.0826  0.1133  0.2242
 1062POPI    C115193   7.211  10.831   5.655  0.0202  0.0173 -0.1589
 1062POPI    C215194   7.580  10.683   5.693  0.0293  0.0934  0.0614
 1062POPI    C315195   7.422  10.733   5.330  0.3512  0.3437 -0.0493
 1062POPI   PO415196   7.142  10.699   5.943 -0.0010  0.0583  0.1982
 1062POPI   GL115197   7.040  10.519   6.350 -0.2888 -0.0626 -0.3167
 1062POPI   GL215198   6.992  10.818   6.408  0.2018  0.3361  0.0133
 1062POPI   C1A15199   6.874  10.372   6.793 -0.1124  0.0567  0.0176
 1062POPI   D2A15200   6.520  10.222   7.048 -0.1968 -0.3025 -0.0582
 1062POPI   C3A15201   6.526  10.116   7.409 -0.0508  0.0854  0.0331
 1062POPI   C4A15202   6.354   9.885   7.603  0.2445  0.0950 -0.2996
 1062POPI   C1B15203   6.879  11.017   6.763 -0.1726 -0.1333 -0.1998
 1062POPI   C2B15204   6.963  11.000   7.105  0.2655 -0.0686 -0.0022
 1062POPI   C3B15205   6.869  10.900   7.607  0.1395  0.2186  0.2583
 1062POPI   C4B15206   7.111  11.059   7.800  0.1951  0.0856 -0.3184
 1063POPI    C115207  17.205  14.923   5.286  0.0499 -0.1914 -0.0217
 1063POPI    C215208  17.332  15.241   5.079  0.1596 -0.1770  0.0665
 1063POPI    C315209  17.104  14.964   4.901 -0.0446  0.0152  0.0238
 1063POPI   PO415210  17.227  14.948   5.522  0.1570  0.0855  0.0778
 1063POPI   GL115211  17.317  15.071   5.865 -0.0131 -0.1192 -0.1014
 1063POPI   GL215212  17.301  15.350   6.046  0.0388 -0.0088 -0.4078
 1063POPI   C1A15213  17.195  14.822   6.261 -0.0564  0.1565  0.0420
 1063POPI   D2A15214  17.111  14.858   6.638 -0.0484  0.0079 -0.0043
 1063POPI   C3A15215  17.017  15.234   6.899 -0.2445  0.3019 -0.0638
 1063POPI   C4A15216  16.929  15.192   7.266  0.2217 -0.0304  0.0957
 1063POPI   C1B15217  17.434  15.185   6.477  0.5015 -0.1155  0.0909
 1063POPI   C2B15218  17.604  15.231   6.935 -0.0706 -0.0274  0.0534
 1063POPI   C3B15219  17.552  15.420   7.380 -0.0860  0.0412  0.0147
 1063POPI   C4B15220  17.633  15.618   7.694 -0.0768 -0.0849 -0.2626
 1064POPI    C115221   3.229   1.788   5.620 -0.2057  0.0863 -0.0952
 1064POPI    C215222   3.011   2.052   5.827 -0.3716  0.0370 -0.2050
 1064POPI    C315223   3.164   2.154   5.473 -0.2321  0.0648 -0.1373
 1064POPI   PO415224   3.313   1.639   5.746  0.0747  0.0496 -0.1828
 1064POPI   GL115225   3.309   1.588   6.165  0.0599  0.2346  0.1135
 1064POPI   GL215226   3.329   1.994   6.309 -0.2495 -0.0255  0.1339
 1064POPI   C1A15227   3.426   1.520   6.637  0.1426 -0.2548 -0.0192
 1064POPI   D2A15228   3.419   1.617   7.063  0.1949 -0.2987 -0.1293
 1064POPI   C3A15229   3.655   1.560   7.436  0.0261 -0.1257 -0.0552
 1064POPI   C4A15230   3.737   1.328   7.899  0.0019  0.0676 -0.0382
 1064POPI   C1B15231   3.376   2.164   6.601  0.0331  0.0880 -0.1227
 1064POPI   C2B15232   3.383   2.122   6.911 -0.2444 -0.1244  0.2001
 1064POPI   C3B15233   3.461   2.210   7.367 -0.1853 -0.1872  0.0411
 1064POPI   C4B15234   3.252   2.224   7.788  0.3065  0.1599  0.3478
 1065POPI    C115235  15.185   6.386   5.794  0.2896  0.1596  0.1812
 1065POPI    C215236  15.184   6.092   5.524  0.0496  0.3190  0.0040
 1065POPI    C315237  15.503   6.146   5.759  0.1926  0.0717 -0.1280
 1065POPI   PO415238  14.977   6.359   5.936 -0.1569  0.1152  0.1542
 1065POPI   GL115239  14.967   6.451   6.276 -0.1381  0.0078  0.0178
 1065POPI   GL215240  14.615   6.417   6.185 -0.1248 -0.2175 -0.2068
 1065POPI   C1A15241  14.835   6.278   6.637  0.3320  0.1983  0.0557
 1065POPI   D2A15242  14.638   6.147   6.920  0.0550  0.0595  0.2482
 1065POPI   C3A15243  14.248   6.284   7.104 -0.0190  0.0773 -0.1978
 1065POPI   C4A15244  14.073   6.291   7.489  0.0743 -0.1507  0.1103
 1065POPI   C1B15245  14.331   6.481   6.553 -0.0143 -0.0896 -0.0870
 1065POPI   C2B15246  14.034   6.687   6.861  0.1408  0.2270  0.1164
 1065POPI   C3B15247  13.978   6.750   7.386 -0.0404  0.3869  0.0306
 1065POPI   C4B15248  13.838   6.811   7.777 -0.0872 -0.2606 -0.2370
 1066POPI    C115249   0.892  18.161   5.342  0.0566 -0.0701 -0.0120
 1066POPI    C215250   1.068  18.502   5.230  0.4060 -0.1779  0.1920
 1066POPI    C315251   0.937  18.244   4.953  0.1403  0.1154  0.0364
 1066POPI   PO415252   0.589  18.170   5.468  0.3052 -0.1477  0.1470
 1066POPI   GL115253   0.448  18.308   5.903 -0.3015 -0.1363  0.0573
 1066POPI   GL215254   0.587  18.593   6.013 -0.3091  0.1229  0.0920
 1066POPI   C1A15255   0.517  18.275   6.352 -0.1651  0.2927 -0.2533
 1066POPI   D2A15256   0.485  18.203   6.785 -0.4190  0.2191 -0.1337
 1066POPI   C3A15257   0.689  17.780   7.057 -0.3118  0.3364 -0.0355
 1066POPI   C4A15258   0.971  17.559   7.360  0.1555 -0.0709  0.4538
 1066POPI   C1B15259   0.454  18.771   6.446 -0.0564 -0.1597  0.1883
 1066POPI   C2B15260   0.487  18.701   6.807  0.0798 -0.4229 -0.3159
 1066POPI   C3B15261   0.492  18.613   7.257  0.0761  0.2033 -0.2739
 1066POPI   C4B15262   0.606  18.530   7.696 -0.0912 -0.3070  0.2578
 1067POPI    C115263  13.441  13.318   5.397 -0.3147 -0.3178  0.2087
 1067POPI    C215264  13.461  12.999   5.156 -0.0140 -0.2072  0.0826
 1067POPI    C315265  13.268  13.328   5.036  0.0938 -0.1696  0.0112
 1067POPI   PO415266  13.685  13.403   5.506  0.1580 -0.2132  0.1048
 1067POPI   GL115267  13.871  13.605   5.902  0.0731  0.2521 -0.0666
 1067POPI   GL215268  13.768  13.401   6.013 -0.0611  0.3175  0.1544
 1067POPI   C1A15269  13.862  13.976   5.960  0.2206  0.2273 -0.4054
 1067POPI   D2A15270  14.076  14.323   6.231  0.2630  0.0667  0.0915
 1067POPI   C3A15271  14.017  14.375   6.653  0.2820  0.0333 -0.0190
 1067POPI   C4A15272  14.009  14.440   7.055  0.1077 -0.2953  0.0262
 1067POPI   C1B15273  13.731  13.503   6.423  0.1370 -0.2612  0.0010
 1067POPI   C2B15274  13.851  13.437   6.870 -0.0614  0.3986 -0.3436
 1067POPI   C3B15275  13.833  13.588   7.248 -0.0275  0.0132  0.2454
 1067POPI   C4B15276  13.452  13.674   7.489 -0.2512 -0.0541  0.2152
 1068POPI    C115277  17.018  17.248   5.024 -0.0741  0.1862  0.0007
 1068POPI    C215278  17.111  17.501   4.729  0.0463  0.2853  0.1225
 1068POPI    C315279  16.792  17.262   4.694  0.2925  0.0010 -0.2656
 1068POPI   PO415280  16.930  17.347   5.211 -0.2367  0.2077 -0.2740
 1068POPI   GL115281  17.179  17.479   5.560  0.3417  0.0442 -0.0236
 1068POPI   GL215282  17.185  17.117   5.742 -0.2734  0.1339  0.0144
 1068POPI   C1A15283  16.891  17.488   5.919 -0.0012  0.2785 -0.1390
 1068POPI   D2A15284  16.646  17.604   6.257  0.1475 -0.0287  0.1696
 1068POPI   C3A15285  16.579  17.713   6.603  0.2211 -0.0525  0.1536
 1068POPI   C4A15286  16.228  17.789   6.779  0.2895 -0.3321  0.0214
 1068POPI   C1B15287  17.051  17.099   6.176  0.0711  0.0343  0.1133
 1068POPI   C2B15288  17.051  17.365   6.556 -0.0618  0.1854 -0.1237
 1068POPI   C3B15289  17.014  17.535   6.919  0.2308 -0.3807 -0.3333
 1068POPI   C4B15290  16.712  17.635   7.153 -0.2252  0.2994  0.1125
 1069POPI    C115291   6.570  14.383   5.633  0.1530 -0.2339  0.1348
 1069POPI    C215292   6.323  14.271   5.339 -0.0004  0.1370  0.1161
 1069POPI    C315293   6.678  14.092   5.382 -0.0005  0.0395 -0.2584
 1069POPI   PO415294   6.497  14.326   5.826  0.1688  0.0947 -0.0585
 1069POPI   GL115295   6.730  14.383   6.180 -0.2255  0.1025 -0.0295
 1069POPI   GL215296   6.503  14.114   6.312  0.0768  0.0595  0.0266
 1069POPI   C1A15297   6.914  14.346   6.570  0.1956  0.3187  0.0077
 1069POPI   D2A15298   6.797  14.074   6.817  0.0457  0.0893 -0.2405
 1069POPI   C3A15299   6.662  14.132   7.219  0.1719 -0.0227  0.0371
 1069POPI   C4A15300   6.479  14.185   7.669  0.0445  0.2505  0.1958
 1069POPI   C1B15301   6.277  14.154   6.663  0.0118 -0.0995 -0.2449
 1069POPI   C2B15302   6.255  14.254   6.992  0.2168 -0.0127 -0.1498
 1069POPI   C3B15303   6.081  14.466   7.340 -0.2274 -0.0214  0.1458
 1069POPI   C4B15304   5.828  14.897   7.338  0.1242  0.0735 -0.6162
 1070POPI    C115305   1.477  16.025   5.045 -0.0672  0.0095 -0.0181
 1070POPI    C215306   1.249  15.833   4.778 -0.1156  0.1071 -0.0473
 1070POPI    C315307   1.443  16.167   4.673 -0.1597  0.1631  0.0476
 1070POPI   PO415308   1.367  16.113   5.181  0.1656 -0.0331 -0.0109
 1070POPI   GL115309   1.238  16.498   5.422  0.0900 -0.1171 -0.1116
 1070POPI   GL215310   0.978  16.289   5.497  0.2281 -0.3654  0.1489
 1070POPI   C1A15311   1.234  16.499   5.878  0.0999 -0.2004 -0.0780
 1070POPI   D2A15312   1.345  16.246   6.167 -0.1399  0.1195  0.3331
 1070POPI   C3A15313   1.352  16.089   6.575  0.0252 -0.0581  0.4467
 1070POPI   C4A15314   1.296  15.812   6.923  0.3653  0.2687  0.0506
 1070POPI   C1B15315   0.776  16.308   5.898  0.2123  0.0872  0.1100
 1070POPI   C2B15316   0.842  16.284   6.386 -0.0200 -0.1743  0.0093
 1070POPI   C3B15317   0.886  15.962   6.713  0.0921 -0.1581 -0.1667
 1070POPI   C4B15318   0.801  15.683   7.119 -0.0740 -0.1140 -0.1787
 1071POPI    C115319  10.092   3.455   5.686  0.0550 -0.1986  0.0111
 1071POPI    C215320   9.956   3.523   5.316  0.0014  0.1441  0.0901
 1071POPI    C315321   9.798   3.229   5.537 -0.1199  0.0824 -0.0767
 1071POPI   PO415322  10.004   3.828   5.857  0.1012 -0.1052  0.1028
 1071POPI   GL115323  10.320   3.978   6.176  0.1028 -0.0556  0.1793
 1071POPI   GL215324  10.151   3.878   6.421  0.1769 -0.1647  0.0090
 1071POPI   C1A15325  10.675   3.625   6.303  0.3763  0.0435  0.0371
 1071POPI   D2A15326  10.982   3.461   6.009 -0.0352 -0.1591  0.1663
 1071POPI   C3A15327  11.397   3.123   6.080  0.0543  0.2273  0.1706
 1071POPI   C4A15328  11.499   2.982   6.539 -0.1127 -0.0650 -0.0055
 1071POPI   C1B15329  10.120   4.113   6.791 -0.2110 -0.1299  0.0343
 1071POPI   C2B15330  10.244   3.921   7.147  0.0822 -0.0571  0.0843
 1071POPI   C3B15331  10.284   3.691   7.629 -0.1064 -0.3105  0.0119
 1071POPI   C4B15332  10.561   3.785   8.011  0.1017 -0.1426 -0.0296
 1072POPI    C115333  15.254   7.856   5.851  0.0052 -0.0691  0.0065
 1072POPI    C215334  15.456   8.197   5.798 -0.1812  0.0906  0.2961
 1072POPI    C315335  15.464   7.914   5.516  0.1151  0.2613  0.1283
 1072POPI   PO415336  15.248   7.793   5.994  0.0721 -0.0008  0.0336
 1072POPI   GL115337  15.398   7.610   6.371  0.0222  0.2469 -0.3791
 1072POPI   GL215338  15.087   7.677   6.574 -0.0959 -0.4176 -0.0139
 1072POPI   C1A15339  15.521   7.593   6.807 -0.1784 -0.3140 -0.0646
 1072POPI   D2A15340  15.390   7.667   7.238 -0.1807  0.0992 -0.0775
 1072POPI   C3A15341  15.231   7.405   7.550  0.0452  0.1420 -0.0023
 1072POPI   C4A15342  14.837   7.310   7.683 -0.2104  0.2568  0.1094
 1072POPI   C1B15343  14.917   7.762   6.940 -0.0215  0.0110 -0.3538
 1072POPI   C2B15344  14.864   7.720   7.373 -0.2405 -0.0180  0.2693
 1072POPI   C3B15345  14.937   7.757   7.795 -0.0726  0.1623  0.0204
 1072POPI   C4B15346  14.817   7.974   8.184 -0.3178 -0.0845 -0.1521
 1073POPI    C115347  12.733   7.065   5.770  0.0493 -0.0590 -0.0139
 1073POPI    C215348  12.336   7.028   5.732  0.0660 -0.0023 -0.2581
 1073POPI    C315349  12.511   7.384   5.674  0.1306  0.0208  0.0605
 1073POPI   PO415350  12.835   6.935   6.008  0.1545  0.2025  0.0346
 1073POPI   GL115351  13.095   6.630   6.160 -0.0464 -0.1905  0.0521
 1073POPI   GL215352  13.391   6.737   6.247 -0.2185  0.1758  0.1501
 1073POPI   C1A15353  12.928   6.565   6.611 -0.0872  0.0531  0.0213
 1073POPI   D2A15354  12.977   6.079   6.754  0.0562  0.1059 -0.3275
 1073POPI   C3A15355  12.711   5.982   7.071 -0.0249  0.1699  0.1744
 1073POPI   C4A15356  12.329   6.020   7.285 -0.0965 -0.1577 -0.1843
 1073POPI   C1B15357  13.396   6.388   6.592  0.1503  0.3122 -0.0350
 1073POPI   C2B15358  13.516   5.994   6.868  0.2925 -0.1268  0.1080
 1073POPI   C3B15359  13.809   5.889   7.173  0.2976  0.1103 -0.1297
 1073POPI   C4B15360  13.975   5.765   7.592 -0.3017 -0.3822 -0.0705
 1074POPI    C115361  11.586  10.112   5.963  0.1283 -0.1876  0.1571
 1074POPI    C215362  11.955   9.965   6.014  0.0481 -0.3671  0.2287
 1074POPI    C315363  11.679   9.750   5.821 -0.0189 -0.2316  0.1720
 1074POPI   PO415364  11.552  10.225   6.202 -0.1902  0.1751 -0.0819
 1074POPI   GL115365  11.726  10.427   6.444 -0.1767  0.0012  0.2175
 1074POPI   GL215366  12.024  10.457   6.558 -0.0385  0.1705 -0.0672
 1074POPI   C1A15367  11.558  10.585   6.724 -0.1664 -0.1348  0.1172
 1074POPI   D2A15368  11.305  10.796   7.094 -0.0406 -0.2283 -0.0720
 1074POPI   C3A15369  11.372  10.827   7.557 -0.1668  0.0954  0.2065
 1074POPI   C4A15370  11.417  10.906   7.976 -0.3297  0.5169  0.1404
 1074POPI   C1B15371  11.977  10.268   6.913 -0.1551 -0.1976 -0.0319
 1074POPI   C2B15372  11.986  10.328   7.432  0.0885  0.0665 -0.0724
 1074POPI   C3B15373  11.808  10.407   7.775  0.3206  0.1025 -0.0765
 1074POPI   C4B15374  11.755  10.542   8.145 -0.0413  0.0835  0.0295
 1075POPI    C115375  17.956   8.736   5.820  0.1703  0.1862  0.1507
 1075POPI    C215376  17.645   8.906   5.635  0.1063 -0.1952 -0.1020
 1075POPI    C315377  18.018   9.001   5.526  0.0770  0.0225 -0.0183
 1075POPI   PO415378  17.898   8.656   6.085 -0.1641 -0.1128 -0.0550
 1075POPI   GL115379  18.041   8.748   6.401  0.0112  0.0200  0.2854
 1075POPI   GL215380  17.643   8.930   6.461 -0.5314 -0.1987 -0.1579
 1075POPI   C1A15381  18.212   8.560   6.655 -0.4072  0.1087 -0.0046
 1075POPI   D2A15382  18.168   8.454   7.053 -0.0351  0.1292 -0.1872
 1075POPI   C3A15383  18.371   8.580   7.379  0.3012  0.2352  0.0319
 1075POPI   C4A15384  18.386   8.663   7.765 -0.0811  0.1805  0.0535
 1075POPI   C1B15385  17.281   9.004   6.687  0.0928 -0.2061 -0.1324
 1075POPI   C2B15386  17.317   8.952   7.137 -0.2432 -0.3520  0.0843
 1075POPI   C3B15387  17.594   9.047   7.502 -0.0395 -0.0821 -0.2660
 1075POPI   C4B15388  17.636   8.915   7.897 -0.1930 -0.2383  0.0308
 1076POPI    C115389   8.126  13.853   5.440  0.0342  0.1254  0.2364
 1076POPI    C215390   7.924  14.197   5.473  0.3016  0.3260 -0.1392
 1076POPI    C315391   8.032  14.062   5.112 -0.0108 -0.2840 -0.0188
 1076POPI   PO415392   8.402  13.940   5.708  0.2394  0.2239 -0.2036
 1076POPI   GL115393   8.619  14.270   5.886 -0.1586  0.1602  0.0662
 1076POPI   GL215394   8.638  14.028   6.108 -0.1264 -0.2196 -0.1148
 1076POPI   C1A15395   8.640  14.579   6.203 -0.1874 -0.1978 -0.1405
 1076POPI   D2A15396   8.220  14.787   6.314  0.0249 -0.1803  0.1007
 1076POPI   C3A15397   7.821  14.741   6.269 -0.1849 -0.1867  0.0149
 1076POPI   C4A15398   7.376  14.812   6.124  0.0173  0.0816  0.0027
 1076POPI   C1B15399   8.540  13.855   6.492 -0.1727  0.0502 -0.0836
 1076POPI   C2B15400   8.613  13.809   6.908  0.2127  0.1667 -0.0233
 1076POPI   C3B15401   8.840  14.004   7.081 -0.0019  0.1775 -0.2123
 1076POPI   C4B15402   9.294  14.040   6.898 -0.1058 -0.2268 -0.0795
 1077POPI    C115403  13.286  12.987   5.718  0.1241  0.1336  0.1742
 1077POPI    C215404  13.144  12.663   5.904  0.1337  0.0766  0.0828
 1077POPI    C315405  13.100  12.701   5.508  0.2634  0.1168  0.0717
 1077POPI   PO415406  13.511  13.032   5.820  0.2626  0.0076 -0.1086
 1077POPI   GL115407  13.671  12.959   6.262 -0.0060 -0.1261  0.0538
 1077POPI   GL215408  13.394  13.113   6.292 -0.3469 -0.0914  0.0778
 1077POPI   C1A15409  13.519  12.994   6.753  0.1088 -0.0556 -0.1689
 1077POPI   D2A15410  13.579  12.866   7.161  0.0426  0.0019 -0.1049
 1077POPI   C3A15411  13.706  13.213   7.490  0.0525 -0.2870 -0.3636
 1077POPI   C4A15412  13.758  13.557   7.850 -0.0463  0.2465  0.0889
 1077POPI   C1B15413  13.263  13.431   6.633 -0.2224  0.0978 -0.1591
 1077POPI   C2B15414  13.415  13.374   7.085  0.1721  0.0732 -0.0735
 1077POPI   C3B15415  13.194  13.246   7.533 -0.0754 -0.1616  0.0400
 1077POPI   C4B15416  13.137  13.038   7.909  0.2132 -0.1071  0.0514
 1078POPI    C115417  17.432   8.349   6.022  0.1513 -0.1042  0.0775
 1078POPI    C215418  17.312   8.510   5.676  0.1070 -0.1529  0.0702
 1078POPI    C315419  17.681   8.358   5.709  0.1270 -0.1067  0.0582
 1078POPI   PO415420  17.230   8.246   6.125  0.4049 -0.0738  0.0595
 1078POPI   GL115421  16.778   8.331   6.416  0.1434 -0.0738  0.1743
 1078POPI   GL215422  16.669   8.069   6.638  0.4931 -0.3356  0.0695
 1078POPI   C1A15423  16.887   8.487   6.790 -0.0065  0.1310  0.3095
 1078POPI   D2A15424  17.023   8.586   7.172  0.1983 -0.0569  0.2936
 1078POPI   C3A15425  16.767   8.584   7.557 -0.1831 -0.0876  0.0121
 1078POPI   C4A15426  16.709   8.437   7.925  0.0462  0.2666  0.0904
 1078POPI   C1B15427  16.738   8.112   7.078  0.0230 -0.2827  0.1310
 1078POPI   C2B15428  16.610   8.103   7.531 -0.3772  0.0784 -0.1866
 1078POPI   C3B15429  16.639   7.872   7.915 -0.1273 -0.3722 -0.3730
 1078POPI   C4B15430  16.775   7.629   8.237  0.0463 -0.0479  0.0562
 1079POPI    C115431   1.637   0.347   5.219 -0.1508  0.0266 -0.0276
 1079POPI    C215432   1.977   0.540   5.308 -0.2366  0.2192 -0.1113
 1079POPI    C315433   1.983   0.230   5.055 -0.0831  0.0471  0.0985
 1079POPI   PO415434   1.596   0.207   5.484 -0.0108 -0.2931 -0.1109
 1079POPI   GL115435   1.288   0.043   5.597  0.3105 -0.1806 -0.0190
 1079POPI   GL215436   1.089   0.236   5.760  0.0162  0.0072 -0.1004
 1079POPI   C1A15437   1.374  -0.145   6.013 -0.4758  0.1641  0.2244
 1079POPI   D2A15438   1.058  -0.235   6.433 -0.0890 -0.0428 -0.0155
 1079POPI   C3A15439   1.076  -0.623   6.651  0.0486 -0.2701 -0.2414
 1079POPI   C4A15440   1.196  -0.815   6.989  0.0206  0.1772  0.1599
 1079POPI   C1B15441   1.026   0.188   6.148  0.2896  0.0974  0.0597
 1079POPI   C2B15442   0.895   0.226   6.603 -0.1132  0.2535 -0.2016
 1079POPI   C3B15443   0.955   0.087   7.025 -0.0878 -0.2081  0.0225
 1079POPI   C4B15444   1.162   0.280   7.455 -0.0404  0.1203  0.1128
 1080POPI    C115445  10.352   9.309   5.776 -0.1070 -0.1769 -0.1401
 1080POPI    C215446  10.321   9.477   6.138  0.1347 -0.0204 -0.1894
 1080POPI    C315447  10.558   9.642   5.861 -0.0928 -0.1068 -0.4392
 1080POPI   PO415448  10.478   9.048   5.879  0.3093  0.0002 -0.1121
 1080POPI   GL115449  10.473   8.930   6.267  0.0188  0.0900 -0.0115
 1080POPI   GL215450  10.589   8.745   6.534  0.0160  0.0242 -0.1232
 1080POPI   C1A15451  10.181   8.889   6.678  0.0422 -0.0643  0.2267
 1080POPI   D2A15452  10.236   8.729   7.057 -0.2253  0.0989 -0.1436
 1080POPI   C3A15453  10.243   8.918   7.433  0.1005  0.1769 -0.1727
 1080POPI   C4A15454  10.069   8.804   7.846 -0.1482  0.2163  0.4071
 1080POPI   C1B15455  10.832   8.375   6.704  0.4289  0.1197 -0.1012
 1080POPI   C2B15456  10.888   8.290   7.054 -0.1912 -0.1895 -0.0209
 1080POPI   C3B15457  10.792   8.139   7.542 -0.1885  0.2777 -0.2040
 1080POPI   C4B15458  10.731   8.188   8.031 -0.2972 -0.0058 -0.0941
 1081POPI    C115459   2.157   6.990   5.943  0.0708  0.2009 -0.1705
 1081POPI    C215460   1.889   6.963   5.647  0.1247 -0.1314 -0.1924
 1081POPI    C315461   2.269   7.056   5.565  0.0959 -0.0210 -0.2026
 1081POPI   PO415462   2.098   6.719   6.072 -0.0826  0.2440 -0.0789
 1081POPI   GL115463   2.093   6.616   6.374 -0.0749  0.0965  0.2251
 1081POPI   GL215464   2.393   6.835   6.480  0.0424  0.1318 -0.2904
 1081POPI   C1A15465   2.164   6.482   6.797  0.0508 -0.0753  0.0974
 1081POPI   D2A15466   2.214   6.471   7.207  0.0258 -0.2977  0.0183
 1081POPI   C3A15467   2.537   6.095   7.292 -0.1532  0.0754  0.0779
 1081POPI   C4A15468   2.889   5.738   7.334 -0.1520 -0.3379  0.0636
 1081POPI   C1B15469   2.368   6.953   6.842  0.0002 -0.1440 -0.1546
 1081POPI   C2B15470   2.458   6.873   7.323 -0.0699  0.3999 -0.0449
 1081POPI   C3B15471   2.456   6.727   7.814 -0.1800  0.1262 -0.0390
 1081POPI   C4B15472   2.460   6.521   8.203  0.1369 -0.0160  0.0292
 1082POPI    C115473  17.298   1.922   5.170  0.2513 -0.0977 -0.0632
 1082POPI    C215474  17.059   1.901   4.850  0.2088  0.0424 -0.0413
 1082POPI    C315475  17.191   2.256   4.978  0.1967 -0.0097  0.1178
 1082POPI   PO415476  17.151   1.828   5.418  0.1283 -0.2928  0.1122
 1082POPI   GL115477  17.252   1.759   5.830  0.1202  0.0199  0.0235
 1082POPI   GL215478  16.966   1.852   5.890 -0.1920  0.0727 -0.0280
 1082POPI   C1A15479  17.471   1.976   6.135  0.3840  0.1812 -0.1406
 1082POPI   D2A15480  17.454   1.918   6.563  0.0724  0.0631 -0.0303
 1082POPI   C3A15481  17.175   1.858   6.889  0.1619  0.1273  0.0852
 1082POPI   C4A15482  16.925   2.248   7.031 -0.0766 -0.0675  0.1441
 1082POPI   C1B15483  16.971   1.701   6.279 -0.4457  0.1147  0.0402
 1082POPI   C2B15484  16.825   1.434   6.748  0.0613 -0.0155 -0.2802
 1082POPI   C3B15485  16.998   1.371   7.122 -0.1385 -0.1368 -0.0578
 1082POPI   C4B15486  16.916   1.528   7.483  0.0290  0.0601 -0.1633
 1083POPI    C115487   7.907  11.013   5.822 -0.0690  0.2034 -0.0812
 1083POPI    C215488   8.235  11.034   5.594  0.0955  0.0056  0.1321
 1083POPI    C315489   7.873  11.030   5.424  0.2143 -0.1205 -0.1241
 1083POPI   PO415490   8.011  11.131   6.069  0.2642  0.2502  0.2106
 1083POPI   GL115491   8.128  10.973   6.418  0.2259 -0.0646 -0.1495
 1083POPI   GL215492   7.821  11.058   6.562 -0.2229 -0.0549  0.1759
 1083POPI   C1A15493   8.229  10.921   6.806  0.1049 -0.0814 -0.0517
 1083POPI   D2A15494   8.218  10.924   7.220  0.2193 -0.1775 -0.5157
 1083POPI   C3A15495   8.246  11.277   7.429  0.4539  0.2873  0.2779
 1083POPI   C4A15496   8.157  11.215   7.839  0.0672  0.1621 -0.2371
 1083POPI   C1B15497   7.747  10.926   7.033 -0.2423  0.1825 -0.1900
 1083POPI   C2B15498   7.761  11.114   7.408 -0.2028  0.0114  0.2606
 1083POPI   C3B15499   7.611  11.248   7.818 -0.1705 -0.0990 -0.0832
 1083POPI   C4B15500   7.261  11.389   8.092  0.0973 -0.0484 -0.1101
 1084POPI    C115501   2.422   1.221   5.562 -0.0875  0.0456  0.1124
 1084POPI    C215502   2.368   1.314   5.177 -0.0592  0.0800  0.1168
 1084POPI    C315503   2.359   0.931   5.293  0.1871  0.0492  0.0408
 1084POPI   PO415504   2.227   1.359   5.682 -0.1060  0.0049  0.1612
 1084POPI   GL115505   2.295   1.537   6.072 -0.1537  0.2372 -0.1461
 1084POPI   GL215506   1.985   1.635   6.078 -0.2210  0.2979  0.2351
 1084POPI   C1A15507   2.455   1.367   6.370  0.0375  0.1717  0.0490
 1084POPI   D2A15508   2.522   1.478   6.762 -0.1762  0.1511  0.0754
 1084POPI   C3A15509   2.105   1.625   6.990  0.3019 -0.1695  0.2029
 1084POPI   C4A15510   1.804   1.456   6.939  0.0166  0.3162  0.1297
 1084POPI   C1B15511   1.929   1.630   6.476  0.3169 -0.3211  0.0320
 1084POPI   C2B15512   1.812   1.922   6.744  0.4568  0.1355  0.0146
 1084POPI   C3B15513   1.655   1.836   7.185  0.0348 -0.3905 -0.3363
 1084POPI   C4B15514   1.580   1.572   7.534 -0.0413 -0.2106  0.1109
 1085POPI    C115515   1.159   6.315   5.931  0.0429 -0.3162  0.0662
 1085POPI    C215516   1.242   5.982   5.726 -0.1307 -0.3178 -0.0030
 1085POPI    C315517   0.921   6.201   5.631  0.0660 -0.0481 -0.0574
 1085POPI   PO415518   1.244   6.231   6.215  0.2153 -0.1450  0.0810
 1085POPI   GL115519   0.971   6.443   6.395 -0.1909 -0.1114  0.1520
 1085POPI   GL215520   0.722   6.707   6.403  0.2973 -0.1189  0.2627
 1085POPI   C1A15521   1.234   6.421   6.830  0.0230 -0.1465  0.0830
 1085POPI   D2A15522   1.120   6.276   7.278  0.0736  0.0630  0.0054
 1085POPI   C3A15523   1.136   6.207   7.770  0.0372  0.0496 -0.1437
 1085POPI   C4A15524   1.013   6.164   8.112  0.1855  0.2511  0.1382
 1085POPI   C1B15525   0.748   6.620   6.889 -0.1937  0.1360 -0.1745
 1085POPI   C2B15526   0.623   6.653   7.279 -0.2775  0.0548 -0.2144
 1085POPI   C3B15527   0.894   6.753   7.667  0.0987  0.2779  0.0134
 1085POPI   C4B15528   0.850   6.981   8.113  0.1736  0.1983 -0.0447
 1086POPI    C115529   5.447  16.605   5.510  0.0149  0.0373  0.0674
 1086POPI    C215530   5.419  17.004   5.497  0.0574  0.0453  0.1953
 1086POPI    C315531   5.310  16.785   5.180 -0.0163  0.1552  0.1438
 1086POPI   PO415532   5.347  16.588   5.820 -0.4297  0.1452 -0.1619
 1086POPI   GL115533   5.468  16.642   6.263  0.1716  0.2324 -0.0716
 1086POPI   GL215534   5.708  16.720   6.429 -0.2794  0.0245  0.1217
 1086POPI   C1A15535   5.409  16.269   6.636  0.2058 -0.0666  0.1063
 1086POPI   D2A15536   5.197  16.351   6.955 -0.0242  0.0638  0.1210
 1086POPI   C3A15537   5.386  16.257   7.264  0.2463  0.0180  0.4744
 1086POPI   C4A15538   5.423  16.455   7.670 -0.0893  0.2512  0.1851
 1086POPI   C1B15539   5.816  16.963   6.773 -0.1490  0.0458 -0.0884
 1086POPI   C2B15540   5.938  17.008   7.247 -0.1987 -0.2000  0.0533
 1086POPI   C3B15541   5.963  17.049   7.703 -0.1380 -0.0177  0.2646
 1086POPI   C4B15542   5.982  17.051   8.131 -0.0172  0.0272 -0.0396
 1087POPI    C115543  11.491   2.226   4.926 -0.2787 -0.0259  0.0372
 1087POPI    C215544  11.348   2.141   4.563 -0.0643 -0.1117 -0.0289
 1087POPI    C315545  11.615   2.435   4.608  0.0408 -0.2157  0.0324
 1087POPI   PO415546  11.300   2.365   5.152 -0.0856 -0.1801  0.2290
 1087POPI   GL115547  11.472   2.614   5.536 -0.0029 -0.0759  0.1948
 1087POPI   GL215548  11.434   2.858   5.688  0.3714 -0.0858  0.1266
 1087POPI   C1A15549  11.725   2.421   5.897  0.2008  0.0564  0.1919
 1087POPI   D2A15550  11.950   2.220   6.181  0.0847  0.0685 -0.3043
 1087POPI   C3A15551  12.068   1.879   6.360 -0.2472  0.0883  0.1811
 1087POPI   C4A15552  11.933   1.550   6.578  0.3101 -0.2005  0.4464
 1087POPI   C1B15553  11.254   2.533   6.109 -0.3581 -0.0927  0.2128
 1087POPI   C2B15554  11.394   2.331   6.553 -0.1944  0.0448  0.3055
 1087POPI   C3B15555  11.727   2.193   6.746  0.2317 -0.0633 -0.2355
 1087POPI   C4B15556  11.991   1.977   7.010  0.2136  0.1143 -0.0679
 1088POPI    C115557  11.462   7.979   6.105 -0.0055 -0.2212  0.1534
 1088POPI    C215558  11.615   8.032   5.740 -0.0835  0.1946  0.1768
 1088POPI    C315559  11.826   7.838   6.019  0.0399  0.0100 -0.0411
 1088POPI   PO415560  11.401   8.267   6.231  0.3412 -0.1893  0.0971
 1088POPI   GL115561  11.434   8.467   6.603 -0.1265  0.0407  0.2966
 1088POPI   GL215562  11.205   8.722   6.678  0.1887 -0.0020 -0.0175
 1088POPI   C1A15563  11.405   8.051   6.950 -0.1250 -0.3791  0.2075
 1088POPI   D2A15564  11.330   8.104   7.422  0.1497  0.1721 -0.0250
 1088POPI   C3A15565  11.281   8.205   7.869 -0.0243 -0.1643  0.0713
 1088POPI   C4A15566  11.175   8.069   8.261 -0.2777  0.0879  0.0733
 1088POPI   C1B15567  11.337   8.530   7.097  0.0462  0.1786  0.3323
 1088POPI   C2B15568  11.481   8.661   7.575  0.1082 -0.1480  0.1294
 1088POPI   C3B15569  11.418   8.785   8.121  0.2729 -0.0969  0.3162
 1088POPI   C4B15570  11.218   9.158   8.374 -0.0415  0.2149  0.1538
 1089POPI    C115571   6.601  17.868   5.409 -0.2062 -0.0707 -0.0081
 1089POPI    C215572   6.521  18.072   5.074  0.0138  0.1422  0.0659
 1089POPI    C315573   6.853  17.850   5.099 -0.0790  0.0049  0.0897
 1089POPI   PO415574   6.549  18.007   5.608 -0.1191  0.1266 -0.0111
 1089POPI   GL115575   6.544  18.183   5.993  0.2991  0.3816  0.2388
 1089POPI   GL215576   6.824  17.990   6.049  0.0331 -0.1047 -0.2612
 1089POPI   C1A15577   6.510  18.216   6.419  0.0761  0.0899 -0.0677
 1089POPI   D2A15578   6.447  18.315   6.836 -0.2203 -0.0313  0.2350
 1089POPI   C3A15579   6.153  18.650   7.013  0.2219 -0.0724 -0.0898
 1089POPI   C4A15580   6.037  18.516   7.464 -0.1383  0.1030 -0.2284
 1089POPI   C1B15581   6.925  17.934   6.480  0.0238 -0.1645 -0.0431
 1089POPI   C2B15582   6.996  17.916   6.834 -0.0531 -0.0312  0.3233
 1089POPI   C3B15583   7.062  17.792   7.226  0.0363 -0.0286  0.0942
 1089POPI   C4B15584   6.837  17.938   7.588 -0.1901 -0.4003  0.1908
 1090POPI    C115585   3.995   0.996   5.797 -0.2148  0.0330  0.1411
 1090POPI    C215586   3.915   0.702   5.538 -0.0912  0.0033  0.1355
 1090POPI    C315587   3.721   1.051   5.512 -0.0144  0.0329 -0.0548
 1090POPI   PO415588   3.962   0.972   5.975  0.2402 -0.1979 -0.0225
 1090POPI   GL115589   3.630   1.065   6.263 -0.0185 -0.0498  0.2552
 1090POPI   GL215590   3.864   1.240   6.493 -0.0035  0.3592 -0.3063
 1090POPI   C1A15591   3.714   0.832   6.699 -0.0164  0.1898 -0.1189
 1090POPI   D2A15592   3.806   0.753   7.086  0.3199 -0.3642  0.3961
 1090POPI   C3A15593   3.528   0.673   7.271 -0.2812 -0.2581 -0.0149
 1090POPI   C4A15594   3.148   0.707   7.352  0.1064 -0.0156  0.1174
 1090POPI   C1B15595   4.190   1.049   6.782  0.3463  0.1006 -0.1380
 1090POPI   C2B15596   4.270   1.077   7.160  0.2131  0.0600 -0.0912
 1090POPI   C3B15597   4.214   1.151   7.590 -0.0078 -0.3741 -0.1309
 1090POPI   C4B15598   4.237   0.987   8.084  0.3059  0.0445 -0.1536
 1091POPI    C115599  13.202  10.409   5.888 -0.2990 -0.0714 -0.1533
 1091POPI    C215600  13.244  10.673   5.591  0.0376  0.1458  0.0808
 1091POPI    C315601  13.301  10.283   5.521  0.2084  0.2045 -0.1193
 1091POPI   PO415602  12.978  10.427   6.033 -0.0829  0.1958  0.0914
 1091POPI   GL115603  12.983  10.368   6.443 -0.3959  0.2973 -0.1429
 1091POPI   GL215604  13.150  10.613   6.672 -0.2261  0.1729 -0.1822
 1091POPI   C1A15605  13.336  10.157   6.730  0.1662 -0.1072  0.0755
 1091POPI   D2A15606  13.407  10.005   7.095  0.0828  0.1333  0.1537
 1091POPI   C3A15607  13.045   9.923   7.439 -0.0480  0.1778  0.3441
 1091POPI   C4A15608  12.931   9.762   7.781 -0.1472 -0.1222  0.1639
 1091POPI   C1B15609  13.175  10.832   7.051 -0.2687 -0.3112 -0.1459
 1091POPI   C2B15610  13.117  10.913   7.467  0.0919  0.1394  0.1804
 1091POPI   C3B15611  13.080  10.971   7.908  0.1060  0.0699  0.1296
 1091POPI   C4B15612  12.934  11.090   8.298  0.0574 -0.0184  0.0068
 1092POPI    C115613   3.447  11.207   5.332  0.2015 -0.0163 -0.0331
 1092POPI    C215614   3.594  11.524   5.136  0.0727  0.0038 -0.0984
 1092POPI    C315615   3.257  11.349   5.009 -0.0632  0.0734  0.1585
 1092POPI   PO415616   3.509  11.287   5.587 -0.3505 -0.3942  0.2223
 1092POPI   GL115617   3.317  11.160   6.060 -0.1589 -0.2325 -0.1583
 1092POPI   GL215618   3.335  11.376   6.006 -0.0952 -0.0479 -0.1198
 1092POPI   C1A15619   3.300  11.125   6.494  0.0348 -0.2434  0.3100
 1092POPI   D2A15620   3.210  10.959   6.838  0.2204 -0.0011  0.1986
 1092POPI   C3A15621   3.615  10.774   7.037 -0.3568 -0.0320  0.3015
 1092POPI   C4A15622   3.696  10.609   6.750  0.0066 -0.5117  0.1620
 1092POPI   C1B15623   3.406  11.591   6.445  0.1467  0.0965  0.2708
 1092POPI   C2B15624   3.323  11.527   6.830 -0.0590  0.0156  0.0025
 1092POPI   C3B15625   3.269  11.572   7.300 -0.1066  0.0598 -0.4553
 1092POPI   C4B15626   2.874  11.680   7.600  0.0795  0.0403 -0.0037
 1093POPI    C115627  10.163  15.990   5.547 -0.1750 -0.1203  0.0138
 1093POPI    C215628  10.339  16.336   5.453 -0.4443  0.0137 -0.0075
 1093POPI    C315629  10.458  15.997   5.277 -0.3251  0.1267 -0.1481
 1093POPI   PO415630  10.189  15.965   5.770  0.1191  0.0027 -0.0107
 1093POPI   GL115631  10.393  16.055   6.097  0.5591 -0.3749 -0.0897
 1093POPI   GL215632  10.102  15.804   6.265 -0.1021  0.0025  0.0041
 1093POPI   C1A15633  10.383  16.222   6.582 -0.3767  0.1395  0.2066
 1093POPI   D2A15634  10.740  16.255   6.807  0.1366  0.0961 -0.0964
 1093POPI   C3A15635  10.825  16.262   7.250 -0.0886  0.0166 -0.2889
 1093POPI   C4A15636  10.844  16.492   7.646  0.2702 -0.0299  0.1365
 1093POPI   C1B15637   9.929  15.872   6.704 -0.1516 -0.1440  0.0112
 1093POPI   C2B15638  10.152  15.997   6.993 -0.2272  0.3868 -0.0589
 1093POPI   C3B15639  10.292  16.161   7.257  0.1351 -0.3072  0.1982
 1093POPI   C4B15640  10.203  15.876   7.534 -0.4400  0.3014  0.1022
 1094POPI    C115641   5.729  14.663   5.696 -0.0165 -0.0078  0.1221
 1094POPI    C215642   6.123  14.730   5.680 -0.0168  0.0025  0.1564
 1094POPI    C315643   5.877  14.916   5.424  0.0092 -0.0684  0.0796
 1094POPI   PO415644   5.690  14.629   5.924  0.0066 -0.3330 -0.0110
 1094POPI   GL115645   5.537  14.946   6.230 -0.1084 -0.0931  0.0066
 1094POPI   GL215646   5.135  14.905   6.192 -0.1576 -0.2172 -0.1076
 1094POPI   C1A15647   5.770  15.030   6.564  0.3058  0.1722 -0.0281
 1094POPI   D2A15648   5.760  15.208   6.973  0.0302  0.1077  0.1055
 1094POPI   C3A15649   5.404  15.218   7.249 -0.0105 -0.0372 -0.3992
 1094POPI   C4A15650   5.052  15.110   7.512  0.0334  0.0760  0.0610
 1094POPI   C1B15651   5.194  14.570   6.460 -0.2284  0.0331 -0.1806
 1094POPI   C2B15652   4.866  14.248   6.516 -0.0550 -0.0401  0.2610
 1094POPI   C3B15653   4.790  14.050   7.008  0.0783 -0.1385  0.1344
 1094POPI   C4B15654   4.916  14.188   7.367 -0.3574  0.0372  0.1484
 1095POPI    C115655   4.418  16.482   5.403 -0.2884  0.0071  0.0046
 1095POPI    C215656   4.178  16.197   5.256 -0.2980  0.0250 -0.0143
 1095POPI    C315657   4.531  16.271   5.083 -0.2647 -0.0230  0.0326
 1095POPI   PO415658   4.478  16.420   5.662 -0.1277  0.0439 -0.1575
 1095POPI   GL115659   4.452  16.692   6.010 -0.1801 -0.1981  0.1911
 1095POPI   GL215660   4.747  16.658   6.091 -0.1851 -0.0968  0.1993
 1095POPI   C1A15661   4.551  16.716   6.541  0.0215 -0.1465  0.3208
 1095POPI   D2A15662   4.497  16.815   6.951 -0.0747 -0.0871  0.0684
 1095POPI   C3A15663   4.888  16.669   7.145 -0.3488 -0.4550  0.2293
 1095POPI   C4A15664   4.998  16.584   7.511  0.1462 -0.0291 -0.2723
 1095POPI   C1B15665   5.009  16.544   6.453 -0.0669 -0.1122 -0.0884
 1095POPI   C2B15666   5.309  16.791   6.699  0.0514  0.1063 -0.0858
 1095POPI   C3B15667   5.516  16.780   7.089 -0.0766 -0.0473  0.1128
 1095POPI   C4B15668   5.433  16.850   7.421 -0.0381 -0.1428  0.1777
 1096POPI    C115669  15.496  14.891   5.473 -0.0837 -0.1105 -0.2205
 1096POPI    C215670  15.827  14.887   5.697 -0.0094  0.2436 -0.3181
 1096POPI    C315671  15.822  14.699   5.344  0.0288  0.0894 -0.2374
 1096POPI   PO415672  15.299  14.915   5.713  0.0007 -0.1558  0.0756
 1096POPI   GL115673  15.258  14.957   6.206  0.0485  0.0665 -0.1368
 1096POPI   GL215674  15.540  14.850   6.094  0.0261 -0.0592  0.1800
 1096POPI   C1A15675  15.345  15.092   6.601  0.0977 -0.3345  0.0954
 1096POPI   D2A15676  15.594  15.060   7.037  0.1091 -0.0717 -0.3336
 1096POPI   C3A15677  15.438  14.817   7.402  0.1427 -0.1881  0.4024
 1096POPI   C4A15678  15.577  14.965   7.768  0.1108 -0.2710 -0.0135
 1096POPI   C1B15679  15.742  14.722   6.516 -0.4039 -0.4476  0.0086
 1096POPI   C2B15680  15.674  14.551   7.026  0.0092  0.0148 -0.1566
 1096POPI   C3B15681  15.757  14.394   7.487  0.1018  0.1005 -0.2155
 1096POPI   C4B15682  15.654  14.514   7.843 -0.4146  0.1232 -0.3878
 1097DPPI    C115683  13.099  11.729   5.851 -0.1540 -0.0533 -0.1701
 1097DPPI    C215684  13.131  11.614   5.469  0.0534 -0.0747 -0.1474
 1097DPPI    C315685  12.844  11.871   5.577  0.1286  0.1010 -0.3581
 1097DPPI   PO415686  13.024  11.580   6.049  0.1849 -0.1020 -0.0859
 1097DPPI   GL115687  12.864  11.790   6.370  0.0618  0.3698 -0.2065
 1097DPPI   GL215688  12.600  11.640   6.471  0.1792 -0.1403 -0.2108
 1097DPPI   C1A15689  13.092  11.827   6.734 -0.0072 -0.0290  0.0017
 1097DPPI   C2A15690  13.141  11.931   7.195 -0.0266 -0.1511  0.2362
 1097DPPI   C3A15691  13.184  12.076   7.636  0.2605 -0.1139  0.2646
 1097DPPI   C4A15692  13.048  11.937   7.928 -0.1081 -0.0760  0.1924
 1097DPPI   C1B15693  12.654  11.728   6.874 -0.0225  0.3401 -0.0794
 1097DPPI   C2B15694  12.649  11.905   7.132 -0.0258 -0.1487 -0.1421
 1097DPPI   C3B15695  12.778  11.811   7.540  0.0052  0.1157  0.0997
 1097DPPI   C4B15696  12.434  11.840   7.913 -0.1149  0.1274 -0.3151
 1098DPPI    C115697   6.821  13.083   5.737  0.0328 -0.1585  0.1037
 1098DPPI    C215698   6.684  12.786   5.506  0.0141 -0.1054  0.0461
 1098DPPI    C315699   6.514  13.147   5.490  0.0663 -0.0788  0.0826
 1098DPPI   PO415700   6.812  13.043   6.014 -0.0023 -0.1863 -0.3086
 1098DPPI   GL115701   6.591  13.180   6.353 -0.1154 -0.4772  0.0877
 1098DPPI   GL215702   6.726  12.738   6.430 -0.1105  0.0598  0.0013
 1098DPPI   C1A15703   6.329  13.328   6.696 -0.0675  0.1179 -0.1257
 1098DPPI   C2A15704   6.081  13.410   7.142  0.1369  0.2894 -0.0480
 1098DPPI   C3A15705   5.758  13.656   7.405  0.1755 -0.0298 -0.1333
 1098DPPI   C4A15706   5.636  13.704   7.947  0.0408 -0.0490  0.1543
 1098DPPI   C1B15707   6.721  12.740   6.820 -0.1038 -0.0278  0.0474
 1098DPPI   C2B15708   6.730  13.056   7.030  0.0972 -0.0625 -0.0870
 1098DPPI   C3B15709   6.580  13.381   7.270 -0.4739  0.1010  0.1267
 1098DPPI   C4B15710   6.658  13.706   7.554  0.0014  0.0225  0.1393
 1099DPPI    C115711   4.900  14.950   5.540 -0.1081  0.2452  0.1460
 1099DPPI    C215712   4.549  14.971   5.350 -0.0577 -0.0467  0.0147
 1099DPPI    C315713   4.860  14.790   5.175  0.1742  0.2523  0.1099
 1099DPPI   PO415714   4.824  14.915   5.776 -0.1477  0.1041  0.0827
 1099DPPI   GL115715   4.566  15.072   5.999  0.2073  0.0694 -0.0180
 1099DPPI   GL215716   4.350  15.349   6.097  0.2880  0.2235 -0.0878
 1099DPPI   C1A15717   4.506  14.855   6.312  0.1166 -0.3181 -0.0652
 1099DPPI   C2A15718   4.317  14.884   6.688  0.3004  0.1107 -0.4004
 1099DPPI   C3A15719   4.493  15.011   7.076  0.0699  0.3030  0.1007
 1099DPPI   C4A15720   4.748  14.816   7.240  0.2033 -0.0588 -0.2333
 1099DPPI   C1B15721   4.440  15.336   6.565  0.1948  0.4785  0.1423
 1099DPPI   C2B15722   4.307  15.388   6.887 -0.0263 -0.0242  0.0449
 1099DPPI   C3B15723   4.058  15.340   7.275 -0.1741 -0.1432  0.2154
 1099DPPI   C4B15724   4.061  15.441   7.806  0.0877 -0.0711  0.0088
 1100DPPI    C115725   9.126  12.055   5.697  0.0186 -0.2077  0.0311
 1100DPPI    C215726   9.495  12.045   5.542  0.0789  0.4127  0.1106
 1100DPPI    C315727   9.177  11.981   5.307  0.2310 -0.2898  0.0729
 1100DPPI   PO415728   9.190  12.257   5.932 -0.1942 -0.1891 -0.1991
 1100DPPI   GL115729   9.363  12.448   6.319  0.0532 -0.2980 -0.0474
 1100DPPI   GL215730   9.668  12.311   6.497 -0.2003 -0.3228 -0.0909
 1100DPPI   C1A15731   9.341  12.618   6.731 -0.2646 -0.4305 -0.2153
 1100DPPI   C2A15732   9.262  12.623   7.138 -0.1262 -0.2703 -0.0675
 1100DPPI   C3A15733   9.240  12.794   7.563 -0.2330  0.3868  0.3561
 1100DPPI   C4A15734   9.423  12.817   7.939  0.1069  0.1108 -0.0500
 1100DPPI   C1B15735   9.768  12.443   6.919 -0.1966 -0.1164 -0.0459
 1100DPPI   C2B15736   9.807  12.596   7.284  0.1992  0.0177  0.0032
 1100DPPI   C3B15737   9.738  12.465   7.693 -0.0261  0.3256 -0.0856
 1100DPPI   C4B15738   9.854  12.508   8.036 -0.3364  0.1825 -0.4320
 1101DPPI    C115739  10.821   1.199   4.995  0.0483  0.0235 -0.0248
 1101DPPI    C215740  11.134   1.383   4.828  0.0071  0.1589  0.0457
 1101DPPI    C315741  11.023   1.021   4.700  0.3488 -0.0022  0.1917
 1101DPPI   PO415742  10.794   1.337   5.250  0.2626 -0.0220 -0.1041
 1101DPPI   GL115743  10.877   1.417   5.661 -0.2509  0.0451 -0.1000
 1101DPPI   GL215744  10.725   1.195   5.853 -0.0662  0.0062  0.0051
 1101DPPI   C1A15745  10.986   1.560   6.028 -0.2358 -0.0543 -0.2310
 1101DPPI   C2A15746  10.964   1.598   6.580 -0.2428  0.4244 -0.1665
 1101DPPI   C3A15747  11.053   1.629   7.021 -0.0662  0.0424  0.2337
 1101DPPI   C4A15748  11.322   1.349   7.299 -0.3081 -0.0512  0.1691
 1101DPPI   C1B15749  10.619   1.326   6.298 -0.2584 -0.0824  0.0013
 1101DPPI   C2B15750  10.553   1.322   6.747 -0.3484  0.0702 -0.0808
 1101DPPI   C3B15751  10.449   1.448   7.082 -0.1889  0.0455  0.3709
 1101DPPI   C4B15752  10.400   1.433   7.556  0.5462  0.1028  0.0518
 1102DPPI    C115753  12.807  15.121   5.467  0.1264 -0.0998  0.2404
 1102DPPI    C215754  12.615  14.789   5.355 -0.0168  0.0634 -0.0074
 1102DPPI    C315755  12.911  14.933   5.129  0.0645  0.0891  0.1149
 1102DPPI   PO415756  12.861  15.032   5.707  0.1653 -0.1299  0.0560
 1102DPPI   GL115757  13.015  15.197   6.062 -0.0042 -0.0056 -0.1778
 1102DPPI   GL215758  13.045  15.541   6.049  0.0546  0.0002  0.0322
 1102DPPI   C1A15759  13.184  15.087   6.435  0.1722  0.0987 -0.2630
 1102DPPI   C2A15760  13.448  15.003   6.786 -0.0865  0.0294  0.2355
 1102DPPI   C3A15761  13.672  15.199   7.175 -0.0635  0.0570  0.0050
 1102DPPI   C4A15762  14.120  15.325   7.185 -0.2519 -0.2340 -0.0890
 1102DPPI   C1B15763  13.035  15.524   6.485  0.0860 -0.2749 -0.0489
 1102DPPI   C2B15764  13.014  15.758   6.776  0.1876 -0.1396 -0.0322
 1102DPPI   C3B15765  12.972  16.068   6.990 -0.1026  0.2613 -0.1630
 1102DPPI   C4B15766  13.104  16.471   7.248 -0.2431 -0.1937  0.1690
 1103DPPI    C115767   6.582  14.819   5.495  0.0051 -0.1882  0.0157
 1103DPPI    C215768   6.693  14.646   5.152 -0.0835 -0.2171  0.0013
 1103DPPI    C315769   6.308  14.736   5.215 -0.0085  0.1828 -0.0852
 1103DPPI   PO415770   6.834  15.010   5.516  0.0737 -0.1761 -0.0476
 1103DPPI   GL115771   7.021  15.141   5.882 -0.1072  0.0687 -0.0150
 1103DPPI   GL215772   6.802  15.348   6.105  0.1266  0.2593  0.0111
 1103DPPI   C1A15773   7.266  15.239   6.319  0.3366 -0.1981  0.1721
 1103DPPI   C2A15774   7.299  15.202   6.744  0.0102  0.0430 -0.1426
 1103DPPI   C3A15775   7.363  15.219   7.227 -0.0620  0.2644 -0.3787
 1103DPPI   C4A15776   7.532  14.861   7.576 -0.0394  0.0462  0.0855
 1103DPPI   C1B15777   6.788  15.246   6.474  0.0976 -0.1672 -0.0910
 1103DPPI   C2B15778   6.777  15.330   6.970 -0.0198  0.1609 -0.0224
 1103DPPI   C3B15779   6.642  15.149   7.329 -0.1014  0.0642  0.1885
 1103DPPI   C4B15780   6.550  14.652   7.410  0.0771 -0.2602  0.0618
 1104DPPI    C115781   9.577  18.154   5.593  0.1492  0.3423  0.0302
 1104DPPI    C215782   9.529  18.419   5.297 -0.1152  0.1412 -0.1115
 1104DPPI    C315783   9.511  18.027   5.219  0.1895  0.0793  0.1105
 1104DPPI   PO415784   9.608  18.293   5.835  0.0935 -0.1378 -0.1281
 1104DPPI   GL115785   9.909  18.199   6.139  0.0255  0.3033 -0.1309
 1104DPPI   GL215786   9.960  17.817   6.087 -0.0919  0.1723  0.2036
 1104DPPI   C1A15787   9.747  18.231   6.541  0.0635  0.2202  0.1966
 1104DPPI   C2A15788   9.714  18.399   6.882  0.0951  0.2526 -0.2077
 1104DPPI   C3A15789   9.525  18.627   7.208 -0.1486 -0.0444 -0.3269
 1104DPPI   C4A15790   9.613  18.722   7.690  0.0921 -0.0222  0.0068
 1104DPPI   C1B15791   9.971  17.713   6.606  0.0228 -0.1271  0.0566
 1104DPPI   C2B15792   9.833  17.936   7.017 -0.1408  0.1022  0.2493
 1104DPPI   C3B15793   9.832  18.225   7.393  0.2771  0.2855 -0.0869
 1104DPPI   C4B15794   9.953  18.340   7.756  0.0607 -0.3916  0.2937
 1105DPPI    C115795  14.837   3.094   5.073  0.2441  0.2512 -0.4658
 1105DPPI    C215796  15.168   2.872   5.108 -0.1484 -0.3043 -0.1172
 1105DPPI    C315797  14.863   2.742   4.885 -0.3465 -0.0635  0.0083
 1105DPPI   PO415798  14.843   3.176   5.345  0.4202 -0.1914 -0.0560
 1105DPPI   GL115799  15.124   3.000   5.717 -0.2745 -0.2418  0.0071
 1105DPPI   GL215800  15.230   2.634   5.657  0.1260 -0.0897 -0.0059
 1105DPPI   C1A15801  15.162   3.068   6.084 -0.0362 -0.1503 -0.3219
 1105DPPI   C2A15802  15.236   3.095   6.567  0.1912 -0.1233 -0.2919
 1105DPPI   C3A15803  15.394   3.294   6.942 -0.2382 -0.3351  0.2163
 1105DPPI   C4A15804  15.374   3.299   7.377 -0.0435  0.1593  0.1902
 1105DPPI   C1B15805  15.001   2.613   6.088  0.1090 -0.2458  0.0355
 1105DPPI   C2B15806  15.124   2.526   6.449 -0.1479  0.0883  0.2466
 1105DPPI   C3B15807  15.107   2.680   6.807 -0.1539 -0.0408  0.1783
 1105DPPI   C4B15808  15.326   2.825   7.145 -0.0230 -0.1043 -0.0998
 1106DPPI    C115809   8.957  15.729   5.284 -0.1065 -0.0917  0.0502
 1106DPPI    C215810   8.839  15.908   4.947 -0.1788 -0.0337  0.1058
 1106DPPI    C315811   9.228  15.836   5.010 -0.1649 -0.0422  0.0116
 1106DPPI   PO415812   8.638  15.604   5.288  0.0351 -0.0483 -0.2904
 1106DPPI   GL115813   8.369  15.414   5.638 -0.1524 -0.1770  0.1584
 1106DPPI   GL215814   8.104  15.645   5.882 -0.0237 -0.0641 -0.3655
 1106DPPI   C1A15815   8.508  15.566   6.110  0.2916  0.0462 -0.1026
 1106DPPI   C2A15816   8.651  15.611   6.611 -0.2356 -0.3513 -0.0346
 1106DPPI   C3A15817   8.606  15.705   6.891 -0.0783 -0.0826  0.0844
 1106DPPI   C4A15818   8.863  15.774   7.351 -0.3892  0.2035 -0.0364
 1106DPPI   C1B15819   8.051  15.641   6.406  0.3670 -0.1778 -0.1413
 1106DPPI   C2B15820   8.138  15.597   6.859 -0.1429 -0.0443 -0.1739
 1106DPPI   C3B15821   8.298  15.741   7.258 -0.4241  0.1990  0.0155
 1106DPPI   C4B15822   8.291  15.744   7.663 -0.1593 -0.0652 -0.7946
 1107DPPI    C115823   9.300  10.832   6.030  0.2340  0.2698  0.1452
 1107DPPI    C215824   9.532  10.507   6.054 -0.2457 -0.0825  0.1625
 1107DPPI    C315825   9.478  10.690   5.702  0.2627  0.1671  0.2048
 1107DPPI   PO415826   9.102  10.764   6.123  0.2561 -0.1349 -0.0650
 1107DPPI   GL115827   8.998  10.498   6.462  0.4154 -0.0757  0.0697
 1107DPPI   GL215828   9.188  10.283   6.398 -0.1056  0.0994 -0.1912
 1107DPPI   C1A15829   9.039  10.389   6.902  0.1012  0.1556 -0.2316
 1107DPPI   C2A15830   8.989  10.202   7.324  0.0413  0.3180  0.3390
 1107DPPI   C3A15831   8.670  10.030   7.502 -0.1727  0.1859 -0.0398
 1107DPPI   C4A15832   8.632  10.128   7.941  0.0329  0.0283 -0.1485
 1107DPPI   C1B15833   9.441  10.115   6.692 -0.0579  0.3889 -0.2659
 1107DPPI   C2B15834   9.420  10.095   7.088  0.1219  0.0755 -0.0630
 1107DPPI   C3B15835   9.407  10.059   7.461  0.0452 -0.0544  0.1203
 1107DPPI   C4B15836   9.287  10.241   7.759  0.1900  0.0128 -0.0018
 1108DPPI    C115837  14.397  14.150   5.889 -0.1315  0.3870  0.0420
 1108DPPI    C215838  14.546  14.094   5.522 -0.1353  0.2556  0.0601
 1108DPPI    C315839  14.294  13.826   5.679  0.1088  0.1511  0.2806
 1108DPPI   PO415840  14.436  14.470   5.889  0.1102 -0.1828  0.0640
 1108DPPI   GL115841  14.058  14.777   6.125  0.3810  0.2405  0.1441
 1108DPPI   GL215842  14.348  14.767   6.313 -0.0281  0.1937 -0.2104
 1108DPPI   C1A15843  13.842  14.879   6.532  0.0400  0.1157 -0.0404
 1108DPPI   C2A15844  13.970  14.937   6.913  0.0686 -0.2705  0.0330
 1108DPPI   C3A15845  14.032  14.858   7.402 -0.1741  0.2142  0.4651
 1108DPPI   C4A15846  13.934  15.106   7.694 -0.1077 -0.0996  0.0922
 1108DPPI   C1B15847  14.340  15.140   6.548  0.0294 -0.1137 -0.0379
 1108DPPI   C2B15848  14.435  15.369   6.833 -0.0882 -0.1270 -0.0212
 1108DPPI   C3B15849  14.806  15.585   7.018  0.2201 -0.2544 -0.1522
 1108DPPI   C4B15850  15.217  15.768   7.163 -0.1967  0.1650  0.4552
 1109DPPI    C115851   6.207   2.984   6.085 -0.1184  0.0954  0.2028
 1109DPPI    C215852   5.807   2.984   6.088 -0.1198  0.0604  0.0851
 1109DPPI    C315853   6.008   3.330   6.101 -0.1524  0.0743  0.2369
 1109DPPI   PO415854   6.200   2.652   6.093 -0.2361  0.1626  0.0074
 1109DPPI   GL115855   6.148   2.428   6.488 -0.0083 -0.1429 -0.3052
 1109DPPI   GL215856   6.370   2.333   6.467 -0.0284 -0.0493  0.0988
 1109DPPI   C1A15857   6.105   2.521   6.911 -0.1271 -0.1245  0.1542
 1109DPPI   C2A15858   5.991   2.496   7.328  0.0487 -0.0295 -0.0370
 1109DPPI   C3A15859   5.770   2.425   7.755 -0.0792 -0.0498 -0.1622
 1109DPPI   C4A15860   5.810   2.553   8.170 -0.1062 -0.0727  0.0781
 1109DPPI   C1B15861   6.205   2.032   6.801 -0.2220  0.2473  0.1070
 1109DPPI   C2B15862   6.148   1.971   7.165  0.3232  0.2538  0.1699
 1109DPPI   C3B15863   6.086   2.076   7.593 -0.0482 -0.2720  0.0533
 1109DPPI   C4B15864   6.141   2.098   8.015  0.1352 -0.1106  0.3523
 1110DPPI    C115865   2.219   9.673   5.469  0.0054  0.0355  0.2321
 1110DPPI    C215866   1.825   9.683   5.399  0.0278  0.1920  0.1223
 1110DPPI    C315867   2.070   9.926   5.197  0.2111 -0.0875  0.0018
 1110DPPI   PO415868   2.193   9.592   5.723 -0.0478 -0.1536  0.1402
 1110DPPI   GL115869   2.043   9.557   6.081 -0.0091  0.0069  0.3024
 1110DPPI   GL215870   2.412   9.474   6.214 -0.3471 -0.0947 -0.0801
 1110DPPI   C1A15871   1.576   9.612   6.242  0.1391 -0.1005  0.0822
 1110DPPI   C2A15872   1.186   9.692   6.405  0.1695 -0.0878 -0.1005
 1110DPPI   C3A15873   0.925   9.657   6.822 -0.2907 -0.1670 -0.0910
 1110DPPI   C4A15874   0.949   9.657   7.134 -0.1487 -0.2576 -0.0480
 1110DPPI   C1B15875   2.407   9.645   6.661 -0.1234  0.1425 -0.2731
 1110DPPI   C2B15876   2.348   9.742   7.111  0.4615 -0.1065 -0.1876
 1110DPPI   C3B15877   2.222   9.629   7.537 -0.7202  0.1615 -0.0978
 1110DPPI   C4B15878   2.143   9.474   7.988  0.2825  0.0082  0.0362
 1111DPPI    C115879   5.264   3.211   5.664 -0.0856  0.0272 -0.0076
 1111DPPI    C215880   5.429   2.850   5.708 -0.0250  0.0263 -0.2289
 1111DPPI    C315881   5.158   2.912   5.421 -0.1144  0.1304 -0.1231
 1111DPPI   PO415882   5.266   3.268   5.974 -0.1056 -0.0941 -0.0095
 1111DPPI   GL115883   5.003   3.328   6.349  0.1306 -0.4068  0.1522
 1111DPPI   GL215884   5.127   3.653   6.266 -0.0349 -0.1537 -0.1218
 1111DPPI   C1A15885   5.003   3.271   6.724 -0.1453 -0.1688 -0.1856
 1111DPPI   C2A15886   5.017   3.261   7.122 -0.2577 -0.1237 -0.0877
 1111DPPI   C3A15887   5.224   3.138   7.524  0.1984 -0.0715  0.1576
 1111DPPI   C4A15888   5.404   3.161   8.014 -0.1323 -0.2338 -0.1609
 1111DPPI   C1B15889   5.079   3.771   6.635  0.4450  0.0058  0.0337
 1111DPPI   C2B15890   5.049   3.797   7.087 -0.1558 -0.0765 -0.1006
 1111DPPI   C3B15891   5.123   3.954   7.405 -0.2644  0.0301  0.2031
 1111DPPI   C4B15892   5.348   4.149   7.694 -0.0158 -0.0615 -0.0619
 1112DPPI    C115893   6.029  16.035   5.543  0.0882 -0.0002  0.0351
 1112DPPI    C215894   5.991  16.419   5.435  0.2745  0.1289  0.4103
 1112DPPI    C315895   6.310  16.208   5.318 -0.0050 -0.0266 -0.1030
 1112DPPI   PO415896   5.974  16.013   5.854 -0.1553 -0.0924 -0.3060
 1112DPPI   GL115897   6.227  15.901   6.219  0.2123 -0.3723  0.1220
 1112DPPI   GL215898   6.401  15.632   6.291 -0.1044  0.0418 -0.3287
 1112DPPI   C1A15899   6.346  16.126   6.532 -0.0935 -0.3321  0.3023
 1112DPPI   C2A15900   6.311  16.230   6.991 -0.1025 -0.0015  0.2442
 1112DPPI   C3A15901   6.296  16.093   7.424 -0.1780  0.1134  0.0550
 1112DPPI   C4A15902   6.343  15.828   7.756  0.3434  0.2214 -0.2544
 1112DPPI   C1B15903   6.441  15.649   6.688  0.1742 -0.1887 -0.1535
 1112DPPI   C2B15904   6.559  15.819   7.068 -0.5334 -0.2052 -0.0365
 1112DPPI   C3B15905   6.694  15.657   7.383 -0.0290 -0.1230  0.0326
 1112DPPI   C4B15906   7.040  15.376   7.534 -0.2349  0.1765  0.1535
 1113DPPI    C115907   3.300   0.721   5.567  0.0598 -0.0071  0.0405
 1113DPPI    C215908   3.468   0.725   5.204 -0.1038 -0.1552 -0.0382
 1113DPPI    C315909   3.097   0.583   5.251 -0.1584  0.0464  0.1555
 1113DPPI   PO415910   3.407   0.641   5.719  0.1154 -0.0832 -0.5123
 1113DPPI   GL115911   3.398   0.641   6.221 -0.1373  0.1258  0.0050
 1113DPPI   GL215912   3.482   0.377   6.407  0.1842  0.1901  0.1333
 1113DPPI   C1A15913   3.194   0.980   6.543 -0.0210 -0.1453 -0.0139
 1113DPPI   C2A15914   3.267   1.078   6.992  0.2053 -0.2262 -0.3418
 1113DPPI   C3A15915   3.228   1.214   7.386 -0.1664  0.1067 -0.1890
 1113DPPI   C4A15916   3.067   1.301   7.753 -0.0985 -0.0398  0.0816
 1113DPPI   C1B15917   3.299   0.536   6.756  0.1973  0.0009  0.3539
 1113DPPI   C2B15918   2.968   0.708   6.855  0.1550  0.6235  0.3487
 1113DPPI   C3B15919   2.777   1.047   6.868  0.0532 -0.4245 -0.1188
 1113DPPI   C4B15920   2.462   1.241   7.196  0.2709  0.1009  0.0782
 1114DPPI    C115921   3.308   3.641   5.583  0.0990 -0.1849 -0.0248
 1114DPPI    C215922   3.461   3.855   5.884 -0.2675  0.3221 -0.1847
 1114DPPI    C315923   3.588   3.917   5.509  0.1392 -0.2601 -0.1573
 1114DPPI   PO415924   3.058   3.636   5.640  0.3007  0.2659 -0.0493
 1114DPPI   GL115925   3.017   3.708   6.168 -0.0023  0.0287  0.2154
 1114DPPI   GL215926   3.124   3.919   6.380 -0.1905 -0.2476 -0.0192
 1114DPPI   C1A15927   2.914   3.566   6.549  0.1180  0.3214 -0.1914
 1114DPPI   C2A15928   2.844   3.625   7.002  0.0017  0.0576 -0.1437
 1114DPPI   C3A15929   2.850   3.395   7.382  0.2388  0.1704  0.1279
 1114DPPI   C4A15930   2.877   3.412   7.826  0.1976  0.1179 -0.1712
 1114DPPI   C1B15931   3.165   3.945   6.781 -0.3751 -0.1854 -0.1015
 1114DPPI   C2B15932   3.107   3.985   7.202  0.2109 -0.2127  0.2027
 1114DPPI   C3B15933   2.933   3.968   7.565 -0.0310 -0.2112  0.1705
 1114DPPI   C4B15934   2.835   4.126   7.953  0.0396  0.3018 -0.1126
 1115DPPI    C115935  12.994  15.581   5.502 -0.0230  0.0979 -0.0454
 1115DPPI    C215936  12.849  15.559   5.130  0.2441  0.3160 -0.1657
 1115DPPI    C315937  13.190  15.372   5.223  0.1105  0.1543  0.0053
 1115DPPI   PO415938  12.780  15.768   5.604 -0.0687 -0.0926 -0.3591
 1115DPPI   GL115939  12.699  15.935   5.985  0.0635 -0.1091  0.0414
 1115DPPI   GL215940  12.451  15.903   6.231 -0.1695 -0.2823 -0.1341
 1115DPPI   C1A15941  12.970  15.998   6.263 -0.3284 -0.1292  0.0137
 1115DPPI   C2A15942  13.087  16.348   6.526  0.0879 -0.0096  0.1491
 1115DPPI   C3A15943  13.222  16.479   6.783 -0.0446 -0.2414  0.2914
 1115DPPI   C4A15944  13.572  16.497   7.082  0.2830 -0.3747 -0.3180
 1115DPPI   C1B15945  12.589  16.028   6.604 -0.2560  0.1114  0.0839
 1115DPPI   C2B15946  12.491  16.117   6.914  0.3383  0.0722 -0.0662
 1115DPPI   C3B15947  12.676  16.115   7.377 -0.2085 -0.4542  0.1351
 1115DPPI   C4B15948  12.690  15.828   7.760 -0.1740  0.3166 -0.5912
 1116DPPI    C115949  11.213  14.718   5.745 -0.1632 -0.2780  0.0516
 1116DPPI    C215950  10.975  15.033   5.809  0.1136 -0.0963  0.2058
 1116DPPI    C315951  11.026  14.893   5.438  0.1707  0.1889  0.1039
 1116DPPI   PO415952  11.200  14.695   6.076 -0.1456  0.2474 -0.1651
 1116DPPI   GL115953  11.509  14.621   6.362 -0.2434  0.0083 -0.2908
 1116DPPI   GL215954  11.381  14.319   6.339  0.1173  0.2211  0.0242
 1116DPPI   C1A15955  11.427  14.945   6.731 -0.2147  0.2546  0.1332
 1116DPPI   C2A15956  11.514  14.927   7.137  0.0097  0.0113  0.0680
 1116DPPI   C3A15957  11.345  15.022   7.544 -0.0320 -0.0003  0.0945
 1116DPPI   C4A15958  11.097  14.744   7.929  0.2047 -0.1272  0.1338
 1116DPPI   C1B15959  11.498  14.422   6.821 -0.0386  0.3873 -0.1385
 1116DPPI   C2B15960  11.544  14.460   7.351 -0.3755  0.3854 -0.0743
 1116DPPI   C3B15961  11.582  14.646   7.777  0.1336 -0.0497  0.3502
 1116DPPI   C4B15962  11.617  15.013   8.131  0.0040  0.2114 -0.0457
 1117DPPI    C115963   8.532  11.311   6.090 -0.1483 -0.0600 -0.0731
 1117DPPI    C215964   8.589  10.975   6.299  0.0397 -0.0313 -0.0770
 1117DPPI    C315965   8.686  10.988   5.911 -0.0535 -0.0005 -0.0995
 1117DPPI   PO415966   8.714  11.487   6.236  0.3030  0.1877  0.0836
 1117DPPI   GL115967   8.861  11.549   6.587 -0.0487  0.0102 -0.1163
 1117DPPI   GL215968   9.152  11.491   6.626 -0.2349 -0.0485  0.1767
 1117DPPI   C1A15969   8.710  11.243   6.943 -0.0742  0.2209 -0.1694
 1117DPPI   C2A15970   8.771  11.365   7.327 -0.2602  0.1617  0.2581
 1117DPPI   C3A15971   8.700  11.224   7.758 -0.0829  0.1145  0.2585
 1117DPPI   C4A15972   8.676  11.150   8.197 -0.0710  0.2948  0.1432
 1117DPPI   C1B15973   9.103  11.666   7.028  0.1661  0.3826  0.2765
 1117DPPI   C2B15974   9.167  11.652   7.477  0.0310 -0.2062 -0.2807
 1117DPPI   C3B15975   9.081  11.663   7.899 -0.1626  0.1205  0.2834
 1117DPPI   C4B15976   9.085  11.889   8.297 -0.0787  0.2829  0.2812
 1118DPPI    C115977  17.760   0.513   5.189  0.0996 -0.0832  0.0178
 1118DPPI    C215978  17.373   0.556   5.281  0.1440  0.2191  0.0704
 1118DPPI    C315979  17.492   0.585   4.900  0.1043  0.0391  0.0436
 1118DPPI   PO415980  17.840   0.223   5.342 -0.1851  0.2689  0.2169
 1118DPPI   GL115981  17.767  -0.072   5.767  0.2037 -0.4284  0.1478
 1118DPPI   GL215982  18.173   0.033   5.739 -0.0159  0.1513  0.0603
 1118DPPI   C1A15983  17.823  -0.157   6.218  0.0898 -0.2502  0.5504
 1118DPPI   C2A15984  17.824  -0.020   6.564  0.2607 -0.0728 -0.0710
 1118DPPI   C3A15985  17.907  -0.233   6.920 -0.1374  0.2687  0.0601
 1118DPPI   C4A15986  17.679  -0.325   7.337 -0.2479 -0.1886  0.0451
 1118DPPI   C1B15987  18.201   0.239   6.207 -0.2137  0.3258  0.0589
 1118DPPI   C2B15988  18.300   0.212   6.678 -0.0073 -0.0334 -0.0114
 1118DPPI   C3B15989  18.234   0.278   7.077  0.0714  0.3641 -0.1701
 1118DPPI   C4B15990  17.890   0.226   7.330  0.2783 -0.0477 -0.1001
 1119DPPI    C115991   6.367   6.548   5.910  0.0707 -0.0440 -0.0881
 1119DPPI    C215992   6.317   6.810   5.612  0.2389  0.1006  0.0094
 1119DPPI    C315993   6.462   6.445   5.535  0.2618  0.1301 -0.0887
 1119DPPI   PO415994   6.200   6.608   6.109  0.0089 -0.1311  0.4499
 1119DPPI   GL115995   6.347   6.668   6.458 -0.0643 -0.1563 -0.2291
 1119DPPI   GL215996   6.562   6.405   6.402 -0.3190 -0.0131 -0.1920
 1119DPPI   C1A15997   6.178   6.754   6.836 -0.0044 -0.2536  0.1500
 1119DPPI   C2A15998   6.070   6.656   7.198  0.3432  0.1388 -0.2915
 1119DPPI   C3A15999   5.998   6.556   7.591 -0.2439 -0.1712 -0.1916
 1119DPPI   C4A16000   6.060   6.196   7.971 -0.0057 -0.0519 -0.0284
 1119DPPI   C1B16001   6.582   6.382   6.791 -0.2108  0.2852 -0.2432
 1119DPPI   C2B16002   6.239   6.194   7.006 -0.3639  0.0271 -0.2221
 1119DPPI   C3B16003   6.106   6.092   7.428 -0.0296 -0.1895  0.0302
 1119DPPI   C4B16004   5.796   5.817   7.620  0.3020  0.0114  0.2177
 1120DPPI    C116005  16.932   9.895   6.135  0.0424  0.1014  0.1903
 1120DPPI    C216006  17.053   9.850   5.756 -0.1384 -0.1801  0.1629
 1120DPPI    C316007  17.243  10.106   5.998  0.0743 -0.1112 -0.0729
 1120DPPI   PO416008  16.655   9.878   6.045 -0.2901 -0.3217 -0.5579
 1120DPPI   GL116009  16.267   9.936   6.404 -0.1860  0.1602 -0.2840
 1120DPPI   GL216010  16.473   9.694   6.479  0.1553  0.0110  0.3329
 1120DPPI   C1A16011  16.515  10.073   6.767  0.1025  0.1237  0.0367
 1120DPPI   C2A16012  16.787   9.960   7.103 -0.1870 -0.1633  0.2061
 1120DPPI   C3A16013  16.891   9.947   7.481 -0.0238 -0.0818 -0.2753
 1120DPPI   C4A16014  16.847   9.562   7.856 -0.1787 -0.0211  0.4004
 1120DPPI   C1B16015  16.821   9.656   6.692 -0.0332 -0.0972  0.1359
 1120DPPI   C2B16016  16.921   9.472   7.097 -0.0210  0.3277  0.3051
 1120DPPI   C3B16017  17.152   9.480   7.484 -0.0691 -0.0007  0.0513
 1120DPPI   C4B16018  17.172   9.211   7.910 -0.3606 -0.1827 -0.6461
 1121DPPI    C116019  18.215   6.025   5.693 -0.0749 -0.0421 -0.0575
 1121DPPI    C216020  18.274   5.647   5.576  0.1944  0.0510 -0.2318
 1121DPPI    C316021  18.036   5.887   5.363 -0.1025 -0.0623 -0.0341
 1121DPPI   PO416022  18.061   6.190   5.989 -0.2482 -0.0563  0.0281
 1121DPPI   GL116023  17.743   6.355   6.202  0.0015 -0.0316 -0.0333
 1121DPPI   GL216024  17.543   6.031   6.136  0.0544 -0.0177  0.1227
 1121DPPI   C1A16025  17.737   6.525   6.631  0.3324 -0.0211 -0.2447
 1121DPPI   C2A16026  17.836   6.639   7.062 -0.0849  0.0489  0.0361
 1121DPPI   C3A16027  18.183   6.683   7.407  0.0278  0.2116  0.4419
 1121DPPI   C4A16028  18.555   6.840   7.643  0.3564  0.0632 -0.0556
 1121DPPI   C1B16029  17.584   6.044   6.620 -0.2800 -0.0328 -0.0088
 1121DPPI   C2B16030  17.627   6.165   6.961 -0.0206 -0.2890 -0.2642
 1121DPPI   C3B16031  17.605   6.318   7.385  0.0986  0.0746  0.1968
 1121DPPI   C4B16032  17.942   6.369   7.678  0.1750 -0.0361 -0.1985
 1122DPPI    C116033   5.733   7.498   5.980  0.0195 -0.2625  0.0960
 1122DPPI    C216034   5.584   7.819   5.794  0.0455 -0.1971  0.1871
 1122DPPI    C316035   5.345   7.588   6.017  0.0969 -0.0386  0.4102
 1122DPPI   PO416036   5.999   7.642   6.146 -0.1077 -0.0722  0.1562
 1122DPPI   GL116037   6.079   7.873   6.490  0.2058 -0.4340  0.0136
 1122DPPI   GL216038   5.968   8.158   6.545  0.1577 -0.2459  0.1243
 1122DPPI   C1A16039   6.001   7.728   6.821  0.1774 -0.1329 -0.1514
 1122DPPI   C2A16040   6.038   7.934   7.217 -0.0732  0.2007  0.0025
 1122DPPI   C3A16041   6.118   8.010   7.657  0.0563  0.0719  0.0030
 1122DPPI   C4A16042   6.202   7.637   7.902  0.1998  0.0223  0.1566
 1122DPPI   C1B16043   5.811   8.304   6.997  0.3388 -0.0296  0.2039
 1122DPPI   C2B16044   5.760   8.375   7.462  0.0549 -0.0609 -0.0020
 1122DPPI   C3B16045   5.849   8.739   7.826  0.1380 -0.0471 -0.0291
 1122DPPI   C4B16046   5.990   8.835   8.216 -0.0229 -0.2907 -0.0768
 1123DPPI    C116047   9.434  17.362   5.544 -0.1300  0.1559 -0.0096
 1123DPPI    C216048   9.091  17.379   5.748 -0.0235  0.0805  0.1783
 1123DPPI    C316049   9.226  17.704   5.557 -0.2892  0.0617 -0.0484
 1123DPPI   PO416050   9.565  17.294   5.906 -0.4947  0.0634  0.0139
 1123DPPI   GL116051   9.673  17.421   6.265 -0.1357 -0.2168  0.2263
 1123DPPI   GL216052   9.770  17.232   6.473  0.3087  0.1557  0.1262
 1123DPPI   C1A16053   9.450  17.697   6.526 -0.0454  0.4289 -0.3031
 1123DPPI   C2A16054   9.312  17.969   6.838 -0.1592 -0.1496  0.0096
 1123DPPI   C3A16055   9.397  18.130   7.157  0.0687  0.2843 -0.1723
 1123DPPI   C4A16056   9.356  18.054   7.574 -0.1893 -0.0543  0.0611
 1123DPPI   C1B16057   9.433  17.219   6.776  0.1660 -0.2368  0.0257
 1123DPPI   C2B16058   9.188  17.059   7.167  0.0049 -0.1546  0.3465
 1123DPPI   C3B16059   8.913  16.933   7.588  0.0094  0.0060 -0.0270
 1123DPPI   C4B16060   8.586  17.138   7.645 -0.0398 -0.1284  0.3332
 1124DPPI    C116061   4.405   0.183   5.901  0.2961 -0.1000 -0.3408
 1124DPPI    C216062   4.568   0.438   6.162  0.3627 -0.0722 -0.4094
 1124DPPI    C316063   4.334   0.576   5.868 -0.0407 -0.1386 -0.1278
 1124DPPI   PO416064   4.315   0.002   6.061 -0.0349 -0.0502 -0.1554
 1124DPPI   GL116065   4.198  -0.133   6.465 -0.1260  0.2746 -0.2432
 1124DPPI   GL216066   4.327  -0.416   6.381  0.0972  0.1490  0.1434
 1124DPPI   C1A16067   4.255   0.136   6.803  0.2368 -0.0696 -0.1071
 1124DPPI   C2A16068   4.431   0.079   7.173  0.1472  0.3842 -0.2810
 1124DPPI   C3A16069   4.454   0.169   7.658 -0.1694 -0.0872  0.2665
 1124DPPI   C4A16070   4.372  -0.096   7.979 -0.0912  0.2997  0.3085
 1124DPPI   C1B16071   4.585  -0.671   6.597 -0.0555 -0.2255  0.0558
 1124DPPI   C2B16072   4.510  -0.890   7.005  0.2568 -0.0192  0.0764
 1124DPPI   C3B16073   4.200  -0.804   7.240  0.2292 -0.0880  0.0437
 1124DPPI   C4B16074   3.867  -0.514   7.465  0.1219  0.0313  0.0884
 1125DPPI    C116075  10.210   2.968   5.673  0.1142  0.1036  0.0135
 1125DPPI    C216076   9.997   2.712   5.452  0.0833  0.0350  0.1219
 1125DPPI    C316077  10.151   3.041   5.284 -0.1210  0.0937  0.0459
 1125DPPI   PO416078  10.038   3.030   5.941 -0.0586 -0.0833  0.1431
 1125DPPI   GL116079   9.870   2.757   6.305 -0.0478  0.1504 -0.1181
 1125DPPI   GL216080   9.606   3.074   6.364 -0.2377  0.0501 -0.2625
 1125DPPI   C1A16081   9.969   2.709   6.715 -0.0847 -0.1554  0.3085
 1125DPPI   C2A16082   9.936   2.693   7.139  0.1581  0.0572 -0.0035
 1125DPPI   C3A16083  10.026   2.809   7.568 -0.2071 -0.0515 -0.0800
 1125DPPI   C4A16084   9.996   3.115   8.018  0.3747 -0.2523  0.1658
 1125DPPI   C1B16085   9.677   3.102   6.836  0.1079 -0.2442 -0.2838
 1125DPPI   C2B16086   9.634   3.088   7.298  0.1754  0.2530  0.3000
 1125DPPI   C3B16087   9.566   3.098   7.763 -0.1096 -0.0693 -0.0879
 1125DPPI   C4B16088   9.524   3.261   8.145 -0.0024  0.3213  0.2575
 1126DPPI    C116089  10.268   4.958   6.199  0.0648  0.2494  0.1826
 1126DPPI    C216090  10.399   5.288   6.014 -0.3780  0.2560 -0.1357
 1126DPPI    C316091  10.185   5.017   5.812 -0.4363  0.0096  0.2455
 1126DPPI   PO416092  10.201   5.072   6.441 -0.1425  0.0809  0.2224
 1126DPPI   GL116093  10.434   5.101   6.772 -0.3268  0.2168 -0.0620
 1126DPPI   GL216094  10.285   5.486   6.864 -0.1256  0.0655 -0.0454
 1126DPPI   C1A16095  10.349   5.135   7.190  0.0663  0.0266 -0.2498
 1126DPPI   C2A16096  10.421   5.057   7.622  0.2014  0.0898  0.0277
 1126DPPI   C3A16097  10.565   4.842   8.068  0.0718 -0.3807 -0.0342
 1126DPPI   C4A16098  10.507   5.111   8.486 -0.2418  0.0270 -0.0674
 1126DPPI   C1B16099  10.120   5.645   7.275 -0.0219  0.4775 -0.3366
 1126DPPI   C2B16100   9.807   5.475   7.621  0.1636 -0.2900  0.0856
 1126DPPI   C3B16101   9.853   5.418   8.000  0.1222  0.1624  0.1535
 1126DPPI   C4B16102  10.154   5.124   8.050  0.1786 -0.1144  0.0767
 1127DPPI    C116103   4.993  18.080   5.537 -0.1551 -0.1038  0.0022
 1127DPPI    C216104   5.167  17.963   5.196 -0.0053 -0.0111  0.0460
 1127DPPI    C316105   4.785  18.081   5.195 -0.0641 -0.1976 -0.0544
 1127DPPI   PO416106   5.082  17.938   5.730 -0.0881 -0.3234  0.0846
 1127DPPI   GL116107   5.145  17.987   6.160 -0.2851 -0.1027  0.0788
 1127DPPI   GL216108   4.786  18.047   6.267  0.3824 -0.1730  0.1628
 1127DPPI   C1A16109   5.244  18.129   6.534 -0.1699 -0.0807  0.7180
 1127DPPI   C2A16110   5.090  18.216   6.938  0.1756 -0.0869 -0.2441
 1127DPPI   C3A16111   5.116  18.077   7.296 -0.0281 -0.1091  0.0782
 1127DPPI   C4A16112   4.821  17.998   7.662 -0.1821 -0.2530 -0.0631
 1127DPPI   C1B16113   4.688  18.054   6.683  0.0728  0.0113 -0.1441
 1127DPPI   C2B16114   4.674  17.833   7.155 -0.4970 -0.2432  0.2856
 1127DPPI   C3B16115   4.658  17.464   7.472 -0.0337 -0.0305 -0.2607
 1127DPPI   C4B16116   4.684  17.367   7.870 -0.1472 -0.2583  0.2006
 1128DPPI    C116117  15.988  10.934   5.860 -0.0431 -0.0393 -0.2054
 1128DPPI    C216118  16.309  11.146   5.751  0.0790  0.0680  0.3324
 1128DPPI    C316119  16.341  10.867   6.035 -0.2564 -0.0945  0.2166
 1128DPPI   PO416120  15.800  11.191   5.954  0.2316 -0.0034 -0.0662
 1128DPPI   GL116121  15.802  11.319   6.415 -0.0879  0.0531  0.1764
 1128DPPI   GL216122  15.926  11.661   6.512 -0.0882  0.0100 -0.0754
 1128DPPI   C1A16123  16.091  11.214   6.757 -0.0974 -0.2610 -0.0044
 1128DPPI   C2A16124  16.484  11.027   6.704 -0.0500  0.1552  0.3017
 1128DPPI   C3A16125  16.612  10.626   6.923 -0.2059  0.2032 -0.4283
 1128DPPI   C4A16126  16.818  10.496   7.252  0.1561 -0.1275 -0.3343
 1128DPPI   C1B16127  16.023  11.671   6.961 -0.4388 -0.0491 -0.2796
 1128DPPI   C2B16128  16.081  11.843   7.319 -0.0752 -0.0302  0.1960
 1128DPPI   C3B16129  16.338  11.966   7.570 -0.3312 -0.1066  0.1147
 1128DPPI   C4B16130  16.508  11.820   7.834  0.0840  0.1918 -0.1064
 1129DPPI    C116131   3.429   7.022   6.103 -0.1987  0.1753  0.0735
 1129DPPI    C216132   3.258   7.217   5.798 -0.0398  0.0910 -0.0712
 1129DPPI    C316133   3.238   6.818   5.817  0.0144  0.0910 -0.0107
 1129DPPI   PO416134   3.719   7.090   6.057  0.1573 -0.1990  0.1944
 1129DPPI   GL116135   4.034   6.764   6.174 -0.1045 -0.1805 -0.0265
 1129DPPI   GL216136   4.384   6.580   6.145  0.4210 -0.0239 -0.0867
 1129DPPI   C1A16137   3.978   6.437   6.447  0.1717 -0.1496  0.2813
 1129DPPI   C2A16138   4.151   6.391   6.839  0.2555 -0.2822 -0.0407
 1129DPPI   C3A16139   4.021   6.548   7.202 -0.0078  0.1657  0.0260
 1129DPPI   C4A16140   3.890   6.613   7.561  0.0447 -0.0980 -0.0033
 1129DPPI   C1B16141   4.502   6.591   6.543  0.2781 -0.0330 -0.0542
 1129DPPI   C2B16142   4.604   6.611   6.942 -0.1394 -0.2719 -0.1314
 1129DPPI   C3B16143   4.553   6.494   7.302  0.1332  0.3014  0.0417
 1129DPPI   C4B16144   4.394   6.357   7.697 -0.0410  0.0704  0.2303
 1130DPPI    C116145  11.331  12.231   6.059 -0.0209 -0.2303  0.3227
 1130DPPI    C216146  11.204  12.036   5.734  0.0826  0.0289  0.1230
 1130DPPI    C316147  11.595  12.058   5.814  0.0533 -0.0988  0.3090
 1130DPPI   PO416148  11.112  12.315   6.180  0.0537  0.2135 -0.3063
 1130DPPI   GL116149  11.168  12.595   6.445 -0.0641 -0.3688 -0.0791
 1130DPPI   GL216150  11.407  12.671   6.340 -0.0159  0.1150 -0.2245
 1130DPPI   C1A16151  11.317  12.648   6.851  0.0585  0.1184  0.0853
 1130DPPI   C2A16152  11.256  12.416   7.092  0.3574  0.1066  0.2410
 1130DPPI   C3A16153  11.182  12.344   7.511 -0.2983 -0.2364 -0.0416
 1130DPPI   C4A16154  11.115  12.208   7.930  0.0052 -0.0643 -0.0898
 1130DPPI   C1B16155  11.684  12.395   6.661  0.0872 -0.2469  0.2364
 1130DPPI   C2B16156  11.756  12.361   7.007 -0.1209  0.1952  0.1875
 1130DPPI   C3B16157  11.701  12.352   7.428  0.2896  0.3483 -0.0077
 1130DPPI   C4B16158  11.635  12.133   7.838  0.1273  0.0133  0.1113
 1131DPPI    C116159  17.711   9.958   5.632 -0.3025  0.2950 -0.0860
 1131DPPI    C216160  17.597  10.327   5.736 -0.0612  0.2610  0.3199
 1131DPPI    C316161  17.984  10.225   5.753 -0.0752  0.1013 -0.1629
 1131DPPI   PO416162  17.534   9.753   5.791  0.0501  0.2237 -0.1776
 1131DPPI   GL116163  17.445   9.650   6.161 -0.2282 -0.0551  0.1933
 1131DPPI   GL216164  17.522   9.379   6.314  0.0654  0.3462  0.3987
 1131DPPI   C1A16165  17.352   9.863   6.530  0.0387  0.3239  0.0481
 1131DPPI   C2A16166  17.323   9.873   6.921  0.0329  0.2505 -0.0787
 1131DPPI   C3A16167  17.292  10.216   7.193  0.1915 -0.0118  0.2453
 1131DPPI   C4A16168  17.301  10.338   7.622  0.2694  0.0672 -0.2643
 1131DPPI   C1B16169  17.587   9.355   6.768  0.0572 -0.1160  0.1931
 1131DPPI   C2B16170  17.660   9.329   7.134  0.1159  0.4134 -0.1425
 1131DPPI   C3B16171  17.961   9.454   7.277 -0.2142  0.0800  0.1972
 1131DPPI   C4B16172  18.318   9.544   7.058  0.1473 -0.0056 -0.0461
 1132DPPI    C116173   6.366  11.565   5.721 -0.1439 -0.2010 -0.1447
 1132DPPI    C216174   6.421  11.829   5.426  0.0504  0.1821  0.2230
 1132DPPI    C316175   6.721  11.589   5.538 -0.0714 -0.0745  0.0092
 1132DPPI   PO416176   6.194  11.795   5.962  0.3725  0.0121 -0.0076
 1132DPPI   GL116177   6.129  12.084   6.275  0.0741  0.0592 -0.1769
 1132DPPI   GL216178   6.360  12.271   6.159 -0.2871 -0.2220  0.1420
 1132DPPI   C1A16179   5.881  11.954   6.574  0.4111 -0.0082  0.2134
 1132DPPI   C2A16180   5.805  12.047   6.973 -0.1787 -0.2647 -0.1043
 1132DPPI   C3A16181   5.867  11.964   7.515  0.1669  0.1420  0.1545
 1132DPPI   C4A16182   5.622  12.005   7.864 -0.1654 -0.2080  0.0274
 1132DPPI   C1B16183   6.381  12.321   6.692  0.2459 -0.2081  0.1769
 1132DPPI   C2B16184   6.346  12.199   7.110  0.0493 -0.1215  0.4173
 1132DPPI   C3B16185   6.338  12.271   7.543 -0.0643  0.1329 -0.0135
 1132DPPI   C4B16186   6.125  12.271   8.001 -0.0637 -0.0390  0.1279
 1133DPPI    C116187   8.280  17.958   5.706 -0.4596 -0.1980  0.1176
 1133DPPI    C216188   8.283  18.112   5.337  0.2707 -0.1551  0.1266
 1133DPPI    C316189   8.179  17.730   5.393  0.1488 -0.1601 -0.1219
 1133DPPI   PO416190   8.103  18.272   5.781 -0.0546 -0.0016  0.2454
 1133DPPI   GL116191   7.951  18.530   6.102  0.2208 -0.0102 -0.0601
 1133DPPI   GL216192   7.655  18.506   5.993  0.0357  0.1338  0.0869
 1133DPPI   C1A16193   7.907  18.412   6.525  0.0994  0.4073 -0.0327
 1133DPPI   C2A16194   7.739  18.511   6.872  0.0031  0.3342  0.2785
 1133DPPI   C3A16195   7.697  18.827   7.107  0.2676 -0.2020 -0.0353
 1133DPPI   C4A16196   7.819  19.079   7.354 -0.1019  0.0571  0.1178
 1133DPPI   C1B16197   7.477  18.749   6.383  0.1594 -0.0437 -0.1563
 1133DPPI   C2B16198   7.281  18.716   6.771 -0.0412  0.1434 -0.1059
 1133DPPI   C3B16199   7.209  18.701   7.161  0.0031 -0.0533  0.2334
 1133DPPI   C4B16200   7.494  18.483   7.535 -0.2096 -0.0396  0.2271
 1134DPPI    C116201   9.500  14.259   5.391 -0.3119  0.0889  0.0894
 1134DPPI    C216202   9.369  14.096   5.051  0.0960  0.3616 -0.2080
 1134DPPI    C316203   9.662  13.919   5.257 -0.1438  0.2019  0.0015
 1134DPPI   PO416204   9.394  14.311   5.637 -0.0318  0.2374 -0.0346
 1134DPPI   GL116205   9.077  14.092   5.817  0.0423  0.1925 -0.0372
 1134DPPI   GL216206   9.203  13.907   6.051 -0.1256  0.2800 -0.3739
 1134DPPI   C1A16207   9.095  14.408   6.181  0.0166  0.0566 -0.0899
 1134DPPI   C2A16208   9.231  14.482   6.605 -0.5040  0.2305 -0.1764
 1134DPPI   C3A16209   9.140  14.498   7.083 -0.0579 -0.2575 -0.3127
 1134DPPI   C4A16210   9.089  14.599   7.484 -0.0010  0.0117 -0.0913
 1134DPPI   C1B16211   9.527  14.024   6.447 -0.3142  0.0956  0.0586
 1134DPPI   C2B16212   9.808  13.929   6.747  0.2963  0.2738 -0.2373
 1134DPPI   C3B16213   9.782  14.060   7.171 -0.2409  0.1406  0.0160
 1134DPPI   C4B16214   9.500  14.202   7.464 -0.1836 -0.3430 -0.0897
 1135DPPI    C116215   1.720  11.754   5.213 -0.0349  0.1447  0.0741
 1135DPPI    C216216   1.880  11.921   4.887  0.1113 -0.4107 -0.1495
 1135DPPI    C316217   1.515  11.759   4.870 -0.0563 -0.0703  0.0828
 1135DPPI   PO416218   1.655  11.930   5.361 -0.2406  0.1512 -0.1442
 1135DPPI   GL116219   1.754  11.973   5.834 -0.0449 -0.1596 -0.1098
 1135DPPI   GL216220   1.415  11.947   5.891  0.1167  0.0655 -0.1028
 1135DPPI   C1A16221   1.854  11.675   6.184 -0.0593  0.1237 -0.0120
 1135DPPI   C2A16222   1.788  11.441   6.518 -0.0681 -0.0351  0.2321
 1135DPPI   C3A16223   1.458  11.467   6.834  0.2985  0.0105 -0.2519
 1135DPPI   C4A16224   1.281  11.587   7.184  0.1102 -0.0492  0.2198
 1135DPPI   C1B16225   1.103  12.113   6.059  0.1951 -0.1406 -0.1186
 1135DPPI   C2B16226   0.745  12.341   6.166  0.0074  0.2739 -0.3381
 1135DPPI   C3B16227   0.679  12.622   6.439  0.0135  0.2825  0.1563
 1135DPPI   C4B16228   0.490  13.038   6.644  0.3181  0.3377  0.4128
 1136DPPI    C116229   4.227   8.809   5.751 -0.0598  0.0309 -0.0417
 1136DPPI    C216230   4.108   8.698   5.386  0.1798  0.0404 -0.1244
 1136DPPI    C316231   3.985   8.494   5.707 -0.0717  0.0618 -0.2048
 1136DPPI   PO416232   4.217   9.096   5.786 -0.0093  0.2298 -0.0077
 1136DPPI   GL116233   4.182   9.208   6.171  0.2251 -0.0320  0.0910
 1136DPPI   GL216234   4.495   9.200   6.278 -0.3043 -0.0652  0.0534
 1136DPPI   C1A16235   3.962   9.521   6.267 -0.2757  0.1235 -0.0647
 1136DPPI   C2A16236   3.846   9.691   6.675 -0.0329 -0.0734  0.1093
 1136DPPI   C3A16237   3.917   9.811   7.015  0.1070  0.1035  0.1966
 1136DPPI   C4A16238   4.169   9.948   7.331 -0.1070  0.0123 -0.0563
 1136DPPI   C1B16239   4.284   9.027   6.597  0.0948 -0.1325  0.0237
 1136DPPI   C2B16240   4.145   9.175   6.944  0.0545 -0.2469  0.1389
 1136DPPI   C3B16241   3.910   9.361   7.124 -0.1675 -0.0570  0.2973
 1136DPPI   C4B16242   3.745   9.578   7.562  0.1366 -0.0768 -0.0574
 1137DPPI    C116243   9.793   8.772   5.989 -0.1013 -0.0680 -0.0318
 1137DPPI    C216244   9.987   8.963   6.281 -0.3574  0.0220  0.0825
 1137DPPI    C316245   9.840   9.169   5.971 -0.0131 -0.0834 -0.1575
 1137DPPI   PO416246   9.645   8.638   6.153  0.0999  0.0517 -0.0624
 1137DPPI   GL116247   9.849   8.543   6.491 -0.0986 -0.1404  0.2178
 1137DPPI   GL216248  10.114   8.436   6.427 -0.1897  0.0701  0.0422
 1137DPPI   C1A16249   9.787   8.550   6.874  0.0398  0.2783 -0.2531
 1137DPPI   C2A16250   9.755   8.614   7.423  0.1880  0.0438 -0.4709
 1137DPPI   C3A16251   9.571   8.686   7.891  0.0270  0.2053  0.1111
 1137DPPI   C4A16252   9.846   8.908   8.287 -0.0574  0.0856  0.1846
 1137DPPI   C1B16253  10.324   8.314   6.745 -0.2756  0.1306 -0.0525
 1137DPPI   C2B16254  10.419   8.236   7.222 -0.0527  0.0313 -0.1749
 1137DPPI   C3B16255  10.281   8.389   7.602  0.2665  0.1023 -0.1487
 1137DPPI   C4B16256  10.563   8.600   7.788 -0.2264  0.0635 -0.0017
 1138DPPI    C116257   4.126   3.861   5.634 -0.0848  0.2025 -0.1558
 1138DPPI    C216258   4.214   3.544   5.861  0.0944  0.3780  0.0246
 1138DPPI    C316259   4.393   3.592   5.506 -0.1298  0.1427 -0.1237
 1138DPPI   PO416260   4.096   4.072   5.824  0.2255 -0.2075  0.0017
 1138DPPI   GL116261   4.002   4.443   6.106 -0.0941 -0.0848 -0.0872
 1138DPPI   GL216262   4.195   4.745   6.135 -0.1201  0.5189 -0.1278
 1138DPPI   C1A16263   3.979   4.222   6.479 -0.0420  0.1115 -0.2494
 1138DPPI   C2A16264   4.144   4.178   6.818 -0.4434 -0.0766 -0.0518
 1138DPPI   C3A16265   4.142   4.078   7.180  0.0439  0.0250 -0.0756
 1138DPPI   C4A16266   4.226   3.841   7.461  0.0352 -0.1557 -0.2846
 1138DPPI   C1B16267   4.279   4.584   6.564  0.0965 -0.0102  0.2063
 1138DPPI   C2B16268   4.407   4.546   7.049 -0.1373 -0.2928  0.0134
 1138DPPI   C3B16269   4.684   4.634   7.236 -0.2244 -0.2689 -0.0833
 1138DPPI   C4B16270   4.930   4.352   7.565  0.0817  0.2045 -0.0470
 1139DPPI    C116271  16.616  11.027   5.346  0.1933 -0.0013  0.1187
 1139DPPI    C216272  16.983  10.954   5.206  0.1700  0.0058  0.0538
 1139DPPI    C316273  16.902  11.304   5.382  0.1896  0.0111  0.0524
 1139DPPI   PO416274  16.560  10.721   5.632  0.1703  0.1750  0.4041
 1139DPPI   GL116275  16.766  10.658   6.013 -0.1760 -0.0603 -0.2645
 1139DPPI   GL216276  16.838  10.394   6.214 -0.0357 -0.3941  0.0686
 1139DPPI   C1A16277  16.904  10.838   6.362  0.1141 -0.3811 -0.1573
 1139DPPI   C2A16278  17.338  10.879   6.566 -0.2227 -0.0833 -0.0449
 1139DPPI   C3A16279  17.498  11.290   6.784  0.1125 -0.0024 -0.2188
 1139DPPI   C4A16280  17.523  11.289   7.225  0.4253  0.0986  0.2848
 1139DPPI   C1B16281  16.984  10.219   6.598 -0.0205 -0.3774 -0.0662
 1139DPPI   C2B16282  17.072  10.519   6.852 -0.1793 -0.1244  0.0391
 1139DPPI   C3B16283  17.047  10.955   6.941  0.2156  0.1181  0.0452
 1139DPPI   C4B16284  17.039  11.297   7.308  0.3382 -0.0398 -0.2882
 1140DPPI    C116285  15.911   8.038   6.096  0.0590 -0.1454 -0.1167
 1140DPPI    C216286  15.976   8.408   6.233 -0.0505 -0.1907  0.0608
 1140DPPI    C316287  15.995   8.334   5.840  0.0808 -0.0205  0.0339
 1140DPPI   PO416288  15.674   8.020   6.194  0.0072  0.0882  0.1446
 1140DPPI   GL116289  15.562   8.076   6.572 -0.1197  0.0316  0.0635
 1140DPPI   GL216290  15.883   8.148   6.665 -0.0755 -0.2443  0.1217
 1140DPPI   C1A16291  15.377   8.082   6.960  0.0278  0.1457 -0.1563
 1140DPPI   C2A16292  15.412   8.168   7.388 -0.1417  0.0614 -0.0815
 1140DPPI   C3A16293  15.353   8.109   7.781  0.1516  0.4913 -0.0972
 1140DPPI   C4A16294  15.691   7.907   8.107  0.0338 -0.1059  0.0100
 1140DPPI   C1B16295  15.923   7.917   7.117  0.1154  0.2489 -0.2909
 1140DPPI   C2B16296  15.793   7.660   7.492  0.1052 -0.1306  0.0351
 1140DPPI   C3B16297  15.814   7.487   7.893  0.0175  0.2198 -0.2841
 1140DPPI   C4B16298  15.804   7.356   8.265 -0.2282 -0.1781 -0.0208
 1141DPPI    C116299  14.043   4.676   5.371 -0.0470 -0.0080  0.2141
 1141DPPI    C216300  13.650   4.730   5.416 -0.0842  0.0509 -0.1484
 1141DPPI    C316301  13.854   4.957   5.158  0.1979  0.0503  0.0690
 1141DPPI   PO416302  14.171   4.706   5.638  0.0390 -0.1491  0.0046
 1141DPPI   GL116303  14.160   4.792   6.070 -0.0425 -0.1206  0.2756
 1141DPPI   GL216304  14.325   5.080   6.036 -0.2338 -0.1708 -0.2875
 1141DPPI   C1A16305  14.080   4.779   6.537 -0.3692 -0.3367 -0.0986
 1141DPPI   C2A16306  14.111   4.669   6.909 -0.2448  0.0705 -0.3799
 1141DPPI   C3A16307  14.145   4.448   7.263 -0.1377  0.1531 -0.0744
 1141DPPI   C4A16308  14.100   4.237   7.803  0.0207  0.0468  0.0502
 1141DPPI   C1B16309  14.125   5.242   6.373  0.4958 -0.4613  0.2604
 1141DPPI   C2B16310  14.412   5.496   6.720  0.1916 -0.2164  0.3791
 1141DPPI   C3B16311  14.319   5.804   7.000  0.1334  0.0373 -0.1342
 1141DPPI   C4B16312  14.489   5.950   7.401  0.1501 -0.1150  0.0425
 1142DPPI    C116313  14.889  13.927   5.896 -0.2147 -0.3427 -0.0791
 1142DPPI    C216314  15.056  13.882   5.535  0.3287 -0.0528  0.1247
 1142DPPI    C316315  15.149  13.631   5.832  0.1031 -0.1183  0.1424
 1142DPPI   PO416316  14.877  14.196   5.906  0.0641  0.0215  0.0304
 1142DPPI   GL116317  14.939  14.473   6.290  0.2481  0.1715 -0.2391
 1142DPPI   GL216318  15.213  14.417   6.291 -0.0931 -0.0631  0.2561
 1142DPPI   C1A16319  14.856  14.861   6.513  0.1317  0.2901  0.1218
 1142DPPI   C2A16320  14.870  15.184   6.682  0.3732 -0.3421  0.0293
 1142DPPI   C3A16321  14.808  15.490   6.426  0.1147  0.0271  0.0496
 1142DPPI   C4A16322  14.763  15.900   6.263 -0.0877  0.0266  0.1164
 1142DPPI   C1B16323  15.256  14.604   6.683  0.0283  0.0854  0.0533
 1142DPPI   C2B16324  15.077  14.816   7.105  0.1758  0.2543  0.0290
 1142DPPI   C3B16325  15.017  15.071   7.514  0.3200  0.1283 -0.3270
 1142DPPI   C4B16326  15.012  14.961   7.932 -0.3415  0.0118 -0.0362
 1143DPPI    C116327  16.421  17.631   5.417 -0.0133 -0.1407 -0.0536
 1143DPPI    C216328  16.509  17.692   5.802 -0.3583 -0.0082  0.0073
 1143DPPI    C316329  16.777  17.783   5.519 -0.1211 -0.0616  0.2113
 1143DPPI   PO416330  16.175  17.606   5.476 -0.0995 -0.1246 -0.0547
 1143DPPI   GL116331  16.102  17.450   5.904  0.0885  0.3139  0.0525
 1143DPPI   GL216332  15.771  17.363   5.860 -0.1321  0.1140  0.0626
 1143DPPI   C1A16333  16.158  17.486   6.341 -0.4508  0.0601 -0.1117
 1143DPPI   C2A16334  16.144  17.333   6.664  0.0274  0.1152  0.2590
 1143DPPI   C3A16335  16.202  17.280   7.134 -0.6209  0.1290  0.2097
 1143DPPI   C4A16336  15.932  17.189   7.410 -0.0722  0.2610  0.0152
 1143DPPI   C1B16337  15.659  17.533   6.265  0.3972 -0.1782 -0.3423
 1143DPPI   C2B16338  15.623  17.555   6.698 -0.0710 -0.0942 -0.1431
 1143DPPI   C3B16339  15.884  17.640   7.057  0.0159  0.0213 -0.1403
 1143DPPI   C4B16340  16.202  17.714   7.322  0.0176  0.1166 -0.0340
 1144DPPI    C116341   1.603   1.921   5.543 -0.0308  0.1181  0.4723
 1144DPPI    C216342   1.502   2.301   5.472  0.2693  0.1117 -0.0298
 1144DPPI    C316343   1.245   2.007   5.386  0.1399  0.1822  0.1105
 1144DPPI   PO416344   1.638   1.924   5.879 -0.3899  0.2941  0.0915
 1144DPPI   GL116345   1.425   1.919   6.232 -0.0027 -0.3999 -0.0005
 1144DPPI   GL216346   1.466   1.615   6.282  0.0786 -0.0171  0.1372
 1144DPPI   C1A16347   1.018   1.949   6.530  0.0412  0.1976 -0.1580
 1144DPPI   C2A16348   0.771   2.062   6.927 -0.1765 -0.1421  0.1426
 1144DPPI   C3A16349   0.577   2.455   6.996 -0.1635  0.0563  0.3635
 1144DPPI   C4A16350   0.583   2.844   6.852  0.0541  0.1020  0.1399
 1144DPPI   C1B16351   1.336   1.649   6.763 -0.3027 -0.2397  0.0975
 1144DPPI   C2B16352   1.262   2.037   7.022  0.0491  0.0638 -0.0792
 1144DPPI   C3B16353   1.311   2.094   7.481 -0.2544 -0.2668 -0.0183
 1144DPPI   C4B16354   1.033   2.176   7.688  0.1880  0.2275  0.2931
 1145DPPI    C116355   7.141  11.184   5.991  0.1704  0.1617  0.1529
 1145DPPI    C216356   7.475  11.246   5.780  0.1257 -0.2287 -0.0402
 1145DPPI    C316357   7.118  11.322   5.616  0.1079 -0.0683  0.0707
 1145DPPI   PO416358   7.147  11.253   6.190 -0.1393 -0.1077 -0.1291
 1145DPPI   GL116359   6.924  11.594   6.498  0.0444 -0.0624  0.0273
 1145DPPI   GL216360   7.218  11.873   6.440  0.1344 -0.0561 -0.3153
 1145DPPI   C1A16361   6.845  11.507   6.910  0.0357 -0.1073  0.0493
 1145DPPI   C2A16362   6.731  11.368   7.393  0.3694 -0.2298  0.2355
 1145DPPI   C3A16363   6.712  11.395   7.819  0.3458 -0.1008 -0.2187
 1145DPPI   C4A16364   6.781  11.528   8.224 -0.0594  0.1045 -0.0598
 1145DPPI   C1B16365   7.144  11.884   6.883 -0.0139 -0.1591 -0.1267
 1145DPPI   C2B16366   6.986  11.884   7.299  0.0563  0.0166 -0.1047
 1145DPPI   C3B16367   6.606  11.844   7.622  0.1429  0.0847  0.0477
 1145DPPI   C4B16368   6.481  11.865   7.933  0.1302  0.1491 -0.3092
 1146DPPI    C116369   3.588  13.654   5.550  0.2578  0.0376  0.0569
 1146DPPI    C216370   3.628  13.392   5.251 -0.1525  0.1497 -0.1023
 1146DPPI    C316371   3.844  13.729   5.252  0.3937 -0.1894  0.1145
 1146DPPI   PO416372   3.470  13.357   5.722 -0.0645 -0.2857  0.0620
 1146DPPI   GL116373   3.015  13.235   5.879  0.0584  0.0099  0.3993
 1146DPPI   GL216374   2.636  13.298   5.974 -0.1141 -0.0514 -0.1039
 1146DPPI   C1A16375   3.041  13.383   6.204 -0.2887  0.1404 -0.1818
 1146DPPI   C2A16376   2.943  13.445   6.686  0.1659  0.2043  0.2160
 1146DPPI   C3A16377   3.056  13.808   6.967 -0.0001  0.0532  0.3571
 1146DPPI   C4A16378   3.428  13.995   7.112 -0.3489  0.1589  0.0824
 1146DPPI   C1B16379   2.554  13.449   6.335 -0.0118 -0.2664 -0.1395
 1146DPPI   C2B16380   2.474  13.612   6.760  0.2937 -0.0720  0.1721
 1146DPPI   C3B16381   2.404  13.476   7.166 -0.2353 -0.0716 -0.0662
 1146DPPI   C4B16382   2.832  13.410   7.229  0.2635 -0.0677 -0.1888
 1147PYPI    C116383   4.560  13.211   5.522  0.1219  0.0979 -0.0983
 1147PYPI    C216384   4.404  12.871   5.380  0.2599  0.0579 -0.1559
 1147PYPI    C316385   4.687  13.063   5.172  0.2503  0.1573 -0.0776
 1147PYPI   PO416386   4.460  13.223   5.795 -0.0477  0.1053 -0.1903
 1147PYPI   GL116387   4.564  13.151   6.079 -0.0841  0.2218 -0.0379
 1147PYPI   GL216388   4.438  12.814   6.154  0.1258  0.0166  0.1108
 1147PYPI   C1A16389   4.382  13.319   6.466  0.1021  0.3089 -0.0977
 1147PYPI   C2A16390   4.229  13.299   6.829 -0.1867 -0.1897 -0.2364
 1147PYPI   D3A16391   3.961  13.272   7.272 -0.0904 -0.0439  0.2759
 1147PYPI   C4A16392   3.659  13.644   7.467 -0.1537  0.1785  0.2146
 1147PYPI   C1B16393   4.714  12.945   6.457 -0.0102  0.1735 -0.0149
 1147PYPI   C2B16394   4.644  13.043   6.792  0.1206  0.2532  0.0324
 1147PYPI   C3B16395   4.701  13.110   7.202  0.0280  0.2739  0.0882
 1147PYPI   C4B16396   4.782  13.240   7.568  0.0389  0.1085  0.0959
 1148PYPI    C116397   0.781  10.058   4.981 -0.5611  0.0545  0.0772
 1148PYPI    C216398   0.814   9.660   4.973 -0.3115  0.0766 -0.0894
 1148PYPI    C316399   0.586   9.847   4.702 -0.4344  0.0476 -0.0069
 1148PYPI   PO416400   0.654  10.078   5.311 -0.2246  0.0298 -0.2814
 1148PYPI   GL116401   0.542  10.028   5.762  0.0785 -0.0265 -0.2836
 1148PYPI   GL216402   0.330  10.032   5.967  0.1728  0.0103 -0.0518
 1148PYPI   C1A16403   0.700  10.409   5.969 -0.1688 -0.1417 -0.0636
 1148PYPI   C2A16404   0.791  10.580   6.392 -0.2905 -0.2938  0.0410
 1148PYPI   D3A16405   0.778  10.677   6.885  0.2518  0.0594  0.3016
 1148PYPI   C4A16406   0.462  10.857   6.952  0.2352  0.1250 -0.3567
 1148PYPI   C1B16407   0.308  10.311   6.240  0.0588 -0.1238  0.0214
 1148PYPI   C2B16408   0.439  10.353   6.707 -0.3447 -0.1977 -0.0330
 1148PYPI   C3B16409   0.460  10.339   7.183 -0.0471  0.0254 -0.1034
 1148PYPI   C4B16410   0.217  10.310   7.570  0.2651  0.0825 -0.0474
 1149PYPI    C116411   6.722  12.028   5.781 -0.1022 -0.0394 -0.2479
 1149PYPI    C216412   6.876  12.311   5.544  0.1254  0.1709  0.1408
 1149PYPI    C316413   6.489  12.322   5.643  0.0100  0.0372 -0.2767
 1149PYPI   PO416414   6.862  11.987   6.093  0.2624  0.0453 -0.0230
 1149PYPI   GL116415   6.805  12.155   6.514  0.2344 -0.0661 -0.0703
 1149PYPI   GL216416   7.041  12.329   6.411 -0.3179  0.0811 -0.0024
 1149PYPI   C1A16417   6.807  12.194   6.951  0.2730 -0.2455  0.0091
 1149PYPI   C2A16418   6.728  12.486   7.284 -0.1706 -0.0305  0.2296
 1149PYPI   D3A16419   6.832  12.827   7.556 -0.1067  0.0075 -0.2300
 1149PYPI   C4A16420   7.206  12.894   7.707 -0.1513 -0.0118  0.2599
 1149PYPI   C1B16421   7.212  12.437   6.762  0.3180  0.3635 -0.1153
 1149PYPI   C2B16422   7.341  12.415   7.157 -0.0792  0.2246  0.0605
 1149PYPI   C3B16423   7.090  12.304   7.592 -0.1080 -0.1397 -0.0852
 1149PYPI   C4B16424   6.663  12.423   7.881  0.1316 -0.2359  0.0765
 1150PYPI    C116425   1.112  11.880   5.112  0.0350 -0.0146 -0.0332
 1150PYPI    C216426   1.058  11.548   4.896 -0.3466 -0.1697  0.2877
 1150PYPI    C316427   0.858  11.882   4.803 -0.1880 -0.1122  0.1469
 1150PYPI   PO416428   1.190  11.718   5.375  0.1048 -0.0805 -0.0080
 1150PYPI   GL116429   0.938  11.553   5.686 -0.0640 -0.1097 -0.0134
 1150PYPI   GL216430   1.174  11.373   5.878 -0.0360 -0.2244  0.0251
 1150PYPI   C1A16431   0.750  11.765   6.015  0.1995 -0.1590  0.0554
 1150PYPI   C2A16432   0.601  11.604   6.340 -0.2241 -0.0668  0.0994
 1150PYPI   D3A16433   0.570  11.241   6.652  0.6569  0.1504  0.0707
 1150PYPI   C4A16434   0.352  11.324   7.054 -0.1019 -0.4236  0.3651
 1150PYPI   C1B16435   1.284  11.607   6.211 -0.0702 -0.2467 -0.0741
 1150PYPI   C2B16436   1.406  11.847   6.452 -0.0347  0.2470  0.0712
 1150PYPI   C3B16437   1.679  12.139   6.381  0.0598 -0.2088 -0.1365
 1150PYPI   C4B16438   2.156  12.046   6.194 -0.0746 -0.1384  0.3942
 1151PYPI    C116439  10.544  15.538   5.800 -0.3551  0.1415 -0.0689
 1151PYPI    C216440  10.382  15.521   5.434 -0.3345  0.1151 -0.0769
 1151PYPI    C316441  10.752  15.383   5.496 -0.2197  0.4014 -0.1114
 1151PYPI   PO416442  10.383  15.457   5.999 -0.0764  0.2271 -0.1119
 1151PYPI   GL116443  10.145  15.238   6.276  0.0457 -0.2774 -0.0624
 1151PYPI   GL216444   9.783  15.249   6.366 -0.3147 -0.1631  0.1692
 1151PYPI   C1A16445  10.265  15.343   6.623 -0.0782  0.1755 -0.0073
 1151PYPI   C2A16446  10.193  15.497   6.978  0.0493 -0.2391  0.0316
 1151PYPI   D3A16447  10.056  15.475   7.328 -0.2413 -0.0261 -0.1897
 1151PYPI   C4A16448   9.717  15.673   7.599  0.2427 -0.1505  0.0719
 1151PYPI   C1B16449   9.780  15.392   6.768  0.1244 -0.0442 -0.0477
 1151PYPI   C2B16450   9.650  15.691   7.072  0.0386 -0.0216 -0.2437
 1151PYPI   C3B16451   9.750  16.111   7.292  0.0622 -0.1795 -0.0154
 1151PYPI   C4B16452   9.877  16.239   7.683  0.1252 -0.3028  0.2328
 1152PYPI    C116453   3.997   7.852   5.648  0.0484 -0.0082 -0.0250
 1152PYPI    C216454   4.343   7.809   5.453  0.0477  0.1249 -0.0559
 1152PYPI    C316455   4.008   7.655   5.300  0.0543  0.1933 -0.1405
 1152PYPI   PO416456   4.094   7.873   5.948  0.0955 -0.0990  0.0211
 1152PYPI   GL116457   3.842   7.997   6.250 -0.0937 -0.0428  0.1942
 1152PYPI   GL216458   3.732   8.337   6.293 -0.0358 -0.0444 -0.2870
 1152PYPI   C1A16459   3.751   7.983   6.655 -0.2359  0.2680 -0.1767
 1152PYPI   C2A16460   3.818   7.624   6.910 -0.0357  0.4011  0.2738
 1152PYPI   D3A16461   3.796   7.487   7.356 -0.1741  0.2528  0.3783
 1152PYPI   C4A16462   4.256   7.451   7.598  0.1914  0.1275 -0.1135
 1152PYPI   C1B16463   3.473   8.482   6.647 -0.0421 -0.1349 -0.0753
 1152PYPI   C2B16464   3.381   8.591   7.061 -0.1103 -0.1851 -0.2397
 1152PYPI   C3B16465   3.333   8.592   7.497  0.1140  0.1287 -0.0555
 1152PYPI   C4B16466   3.280   8.881   7.873  0.0501  0.0624  0.2439
 1153PYPI    C116467  17.370  12.050   5.533  0.3874 -0.1040 -0.3022
 1153PYPI    C216468  17.053  11.864   5.375  0.1153  0.2227 -0.1542
 1153PYPI    C316469  17.355  11.981   5.139  0.1670 -0.1601 -0.2851
 1153PYPI   PO416470  17.290  12.202   5.781  0.0738 -0.1836 -0.1303
 1153PYPI   GL116471  17.071  12.130   6.172  0.0875 -0.1958  0.1217
 1153PYPI   GL216472  16.985  11.912   6.358  0.0786 -0.0218 -0.0205
 1153PYPI   C1A16473  17.051  12.434   6.463 -0.0914  0.1936 -0.2656
 1153PYPI   C2A16474  16.949  12.455   6.947  0.0734 -0.3946  0.2488
 1153PYPI   D3A16475  16.619  12.370   7.219  0.0128  0.1828 -0.1024
 1153PYPI   C4A16476  16.757  12.259   7.631 -0.0805  0.1123 -0.2132
 1153PYPI   C1B16477  17.242  11.998   6.657 -0.0314 -0.0185  0.0068
 1153PYPI   C2B16478  17.426  12.268   7.049 -0.0943 -0.0873  0.1246
 1153PYPI   C3B16479  17.783  12.343   7.142  0.0076 -0.0681 -0.1044
 1153PYPI   C4B16480  18.089  12.449   7.374 -0.5344 -0.0218 -0.0915
 1154PYPI    C116481   0.580   6.407   5.928  0.0207  0.0002 -0.2520
 1154PYPI    C216482   0.235   6.440   5.729 -0.2468 -0.1415  0.1749
 1154PYPI    C316483   0.422   6.768   5.862 -0.1358 -0.0550 -0.1839
 1154PYPI   PO416484   0.440   6.188   6.106 -0.0824 -0.0790 -0.3493
 1154PYPI   GL116485   0.619   6.087   6.475  0.0655  0.1363 -0.3340
 1154PYPI   GL216486   0.515   5.777   6.519  0.0540  0.3329  0.2119
 1154PYPI   C1A16487   0.394   6.249   6.821  0.0022 -0.0942 -0.1066
 1154PYPI   C2A16488   0.237   6.272   7.289 -0.1909 -0.4751  0.2190
 1154PYPI   D3A16489   0.541   6.280   7.675 -0.1319 -0.0723  0.1891
 1154PYPI   C4A16490   0.672   6.518   8.047 -0.1238 -0.1459  0.0442
 1154PYPI   C1B16491   0.266   5.745   6.790 -0.2136  0.2888  0.0503
 1154PYPI   C2B16492   0.130   5.584   7.128  0.1684  0.2104  0.0324
 1154PYPI   C3B16493   0.090   5.373   7.424  0.3945 -0.3006 -0.0065
 1154PYPI   C4B16494   0.253   5.363   7.823  0.1335  0.3197 -0.1479
 1155PYPI    C116495   3.752   9.963   5.724 -0.0731 -0.2123  0.2739
 1155PYPI    C216496   4.061  10.022   5.970 -0.0246 -0.1875  0.2075
 1155PYPI    C316497   4.104  10.083   5.577 -0.2113  0.1629  0.2378
 1155PYPI   PO416498   3.563  10.006   5.935 -0.2903  0.0918 -0.0058
 1155PYPI   GL116499   3.562   9.921   6.329 -0.0369  0.0501  0.1230
 1155PYPI   GL216500   3.465   9.570   6.220  0.1446  0.0552 -0.0244
 1155PYPI   C1A16501   3.537  10.104   6.846 -0.0500  0.1569  0.0506
 1155PYPI   C2A16502   3.778  10.307   7.147  0.0354 -0.2041  0.0608
 1155PYPI   D3A16503   4.146  10.473   7.378 -0.1287 -0.0406  0.2452
 1155PYPI   C4A16504   4.383  10.255   7.743 -0.4415 -0.1326 -0.2911
 1155PYPI   C1B16505   3.281   9.444   6.578  0.2794 -0.1897  0.1167
 1155PYPI   C2B16506   3.473   9.592   7.031 -0.0018 -0.3291 -0.0291
 1155PYPI   C3B16507   3.428   9.852   7.298  0.0294  0.3272  0.0778
 1155PYPI   C4B16508   3.122  10.169   7.428  0.2331 -0.1076 -0.0501
 1156PYPI    C116509  17.752   5.737   5.756  0.1550 -0.2715 -0.1334
 1156PYPI    C216510  17.794   5.453   5.477  0.0622 -0.0224 -0.4062
 1156PYPI    C316511  17.556   5.768   5.408  0.0732  0.0653 -0.0610
 1156PYPI   PO416512  17.948   5.671   5.991  0.1129 -0.0025  0.1153
 1156PYPI   GL116513  18.062   5.884   6.433 -0.1339  0.1330  0.1115
 1156PYPI   GL216514  18.284   6.087   6.442  0.0323 -0.2909 -0.0359
 1156PYPI   C1A16515  17.974   5.637   6.806 -0.0415 -0.1222 -0.1587
 1156PYPI   C2A16516  17.705   5.593   7.193 -0.0802  0.3289 -0.0246
 1156PYPI   D3A16517  17.530   5.584   7.561 -0.2346  0.1510 -0.0746
 1156PYPI   C4A16518  17.650   5.930   7.858  0.0416  0.1378  0.1088
 1156PYPI   C1B16519  18.165   6.097   6.862 -0.1830  0.0667 -0.3190
 1156PYPI   C2B16520  18.019   5.945   7.306 -0.1879 -0.0292 -0.2722
 1156PYPI   C3B16521  18.012   5.680   7.665  0.4527  0.3455 -0.1260
 1156PYPI   C4B16522  18.092   5.889   8.063 -0.0792  0.1259  0.3519
 1157PYPI    C116523   8.799  17.921   5.373 -0.1097 -0.1109  0.1811
 1157PYPI    C216524   8.937  17.630   5.136  0.2099  0.0566  0.1568
 1157PYPI    C316525   8.570  17.778   5.078  0.2507  0.0341 -0.1775
 1157PYPI   PO416526   8.764  17.791   5.699  0.0548  0.1027  0.1104
 1157PYPI   GL116527   8.816  17.899   6.099  0.1031 -0.2415 -0.0680
 1157PYPI   GL216528   9.029  17.583   6.276  0.0027 -0.1465  0.0077
 1157PYPI   C1A16529   8.982  18.000   6.489 -0.3682  0.1395 -0.1174
 1157PYPI   C2A16530   8.786  18.093   6.810 -0.0354  0.1163 -0.1840
 1157PYPI   D3A16531   8.853  17.965   7.192  0.3526 -0.1626  0.0598
 1157PYPI   C4A16532   8.789  17.540   7.254  0.0156  0.5492  0.0398
 1157PYPI   C1B16533   8.999  17.608   6.765 -0.2417 -0.2054  0.0431
 1157PYPI   C2B16534   9.277  17.616   7.187 -0.0346 -0.4129  0.3667
 1157PYPI   C3B16535   9.552  17.500   7.584  0.2187 -0.0853 -0.0135
 1157PYPI   C4B16536   9.924  17.237   7.690  0.2857  0.2129 -0.0714
 1158PYPI    C116537   0.966  11.233   5.293  0.0391 -0.0782 -0.4553
 1158PYPI    C216538   0.636  11.014   5.238 -0.1299  0.0180  0.1082
 1158PYPI    C316539   0.634  11.405   5.152 -0.1101 -0.0139 -0.0404
 1158PYPI   PO416540   1.087  11.078   5.498  0.1770 -0.3115  0.0958
 1158PYPI   GL116541   0.774  10.843   5.707 -0.2169 -0.1749 -0.2743
 1158PYPI   GL216542   0.604  11.159   5.754 -0.1130  0.0842  0.1215
 1158PYPI   C1A16543   0.894  11.095   6.180 -0.0063  0.3589 -0.1061
 1158PYPI   C2A16544   1.024  11.365   6.557  0.1798  0.1250 -0.2562
 1158PYPI   D3A16545   1.086  11.794   6.776  0.1364  0.0372 -0.2061
 1158PYPI   C4A16546   0.896  11.979   6.513  0.1649 -0.0546  0.1160
 1158PYPI   C1B16547   0.409  11.021   6.146  0.1575  0.3302 -0.0284
 1158PYPI   C2B16548   0.139  10.914   6.496 -0.0371 -0.1345  0.3941
 1158PYPI   C3B16549  -0.019  11.204   6.812 -0.2078  0.0067  0.2401
 1158PYPI   C4B16550  -0.228  11.122   7.301  0.1454 -0.0337 -0.0642
 1159PYPI    C116551   2.761   4.906   5.639 -0.1928 -0.0979 -0.1557
 1159PYPI    C216552   2.654   5.216   5.411  0.1433  0.0191 -0.1594
 1159PYPI    C316553   2.949   4.973   5.292  0.0730 -0.1349 -0.0216
 1159PYPI   PO416554   2.586   4.792   5.700  0.2446  0.1002  0.0865
 1159PYPI   GL116555   2.343   4.822   6.061  0.1946  0.2451 -0.2401
 1159PYPI   GL216556   2.565   4.933   6.180  0.1017 -0.0051  0.1737
 1159PYPI   C1A16557   2.343   4.513   6.365 -0.0927 -0.2665 -0.1043
 1159PYPI   C2A16558   2.329   4.522   6.831 -0.1431  0.1187 -0.1224
 1159PYPI   D3A16559   2.321   4.627   7.264 -0.1096  0.0236 -0.3136
 1159PYPI   C4A16560   2.536   4.788   7.601 -0.3813  0.3799 -0.1815
 1159PYPI   C1B16561   2.733   4.698   6.550 -0.2709  0.1771  0.0088
 1159PYPI   C2B16562   2.815   4.755   6.957 -0.0678 -0.0259  0.1726
 1159PYPI   C3B16563   3.052   4.776   7.322 -0.2184  0.0559 -0.3221
 1159PYPI   C4B16564   3.365   4.796   7.674 -0.1535 -0.2387  0.0573
 1160PYPI    C116565   8.290   8.902   5.700 -0.2125  0.1409 -0.2346
 1160PYPI    C216566   8.096   9.082   5.399 -0.2973 -0.0720 -0.3093
 1160PYPI    C316567   8.377   8.807   5.321  0.0344  0.2280 -0.2015
 1160PYPI   PO416568   8.307   9.122   6.025  0.1758 -0.1377 -0.1202
 1160PYPI   GL116569   8.600   9.229   6.333 -0.2939 -0.0704 -0.1369
 1160PYPI   GL216570   8.792   9.515   6.349 -0.1078  0.1573 -0.2442
 1160PYPI   C1A16571   8.945   9.044   6.656  0.1652  0.0093 -0.1550
 1160PYPI   C2A16572   9.208   9.101   7.052  0.1220 -0.2363 -0.1739
 1160PYPI   D3A16573   9.264   8.985   7.491  0.0983  0.3578  0.1031
 1160PYPI   C4A16574   9.264   9.188   7.836  0.1570 -0.2713  0.1003
 1160PYPI   C1B16575   9.161   9.481   6.671  0.4389  0.0043 -0.1487
 1160PYPI   C2B16576   9.405   9.615   7.050  0.2667  0.0927 -0.0482
 1160PYPI   C3B16577   9.398   9.453   7.450 -0.1222  0.0649 -0.2042
 1160PYPI   C4B16578   9.294   9.702   7.885  0.0088 -0.0388  0.0492
 1161PYPI    C116579   9.183   2.774   5.758 -0.1326  0.1390 -0.5353
 1161PYPI    C216580   9.517   2.966   5.864 -0.2162 -0.0001  0.0079
 1161PYPI    C316581   9.231   3.159   5.661 -0.0394  0.2742  0.0140
 1161PYPI   PO416582   9.082   2.714   5.970  0.1337 -0.0783 -0.0348
 1161PYPI   GL116583   8.983   2.965   6.288  0.1441  0.3270 -0.1230
 1161PYPI   GL216584   9.064   3.102   6.564  0.0926  0.0961  0.1561
 1161PYPI   C1A16585   9.322   2.662   6.549 -0.0314 -0.1701  0.2610
 1161PYPI   C2A16586   9.472   2.633   7.025  0.0805  0.0779  0.1762
 1161PYPI   D3A16587   9.445   2.630   7.476  0.0793 -0.0409  0.0428
 1161PYPI   C4A16588   9.643   2.590   7.771 -0.0002  0.0573  0.2371
 1161PYPI   C1B16589   9.165   2.983   7.017  0.1285  0.2413  0.1051
 1161PYPI   C2B16590   9.115   3.071   7.477  0.0568 -0.2928  0.1633
 1161PYPI   C3B16591   9.092   3.194   7.944 -0.1276  0.2387 -0.0324
 1161PYPI   C4B16592   9.054   3.133   8.406 -0.0623 -0.1289  0.0602
 1162PYPI    C116593  17.429   7.179   5.953  0.0477 -0.0902  0.1098
 1162PYPI    C216594  17.737   7.168   5.698 -0.0565  0.2124 -0.0347
 1162PYPI    C316595  17.745   7.418   6.010 -0.0608  0.0600  0.0888
 1162PYPI   PO416596  17.280   7.031   6.109 -0.0514 -0.2501 -0.1344
 1162PYPI   GL116597  17.408   6.931   6.444 -0.2790  0.0738  0.1289
 1162PYPI   GL216598  17.733   6.960   6.390 -0.4583  0.1715 -0.1104
 1162PYPI   C1A16599  17.415   6.868   6.886 -0.0845  0.0542 -0.2812
 1162PYPI   C2A16600  17.506   6.820   7.359 -0.1140  0.0968  0.1293
 1162PYPI   D3A16601  17.594   6.771   7.650  0.1036 -0.0303 -0.2545
 1162PYPI   C4A16602  17.446   6.888   8.041  0.1388 -0.1086  0.4164
 1162PYPI   C1B16603  17.829   7.073   6.766 -0.0697 -0.0123 -0.1433
 1162PYPI   C2B16604  17.830   7.209   7.184  0.1105 -0.1550  0.0638
 1162PYPI   C3B16605  17.766   7.235   7.624  0.1783  0.1898  0.2995
 1162PYPI   C4B16606  17.697   7.560   7.867  0.0044  0.1234 -0.0016
 1163PYPI    C116607  13.773   6.821   5.924  0.0037  0.0640  0.0944
 1163PYPI    C216608  13.926   6.986   5.593  0.0040 -0.3527 -0.1201
 1163PYPI    C316609  14.068   7.089   5.953  0.0074  0.1007 -0.2449
 1163PYPI   PO416610  13.770   6.589   5.880  0.2064  0.0345 -0.1510
 1163PYPI   GL116611  14.021   6.357   6.202  0.0192  0.2096  0.0193
 1163PYPI   GL216612  13.863   6.625   6.410  0.0277 -0.0585  0.0826
 1163PYPI   C1A16613  13.772   5.869   6.335 -0.0183 -0.1253  0.1437
 1163PYPI   C2A16614  13.934   5.602   6.753  0.1559 -0.0201  0.2148
 1163PYPI   D3A16615  14.017   5.314   7.123 -0.2557 -0.4886 -0.0432
 1163PYPI   C4A16616  13.876   5.236   7.564 -0.0346  0.2703 -0.1312
 1163PYPI   C1B16617  13.611   6.942   6.672  0.0508  0.1116 -0.4342
 1163PYPI   C2B16618  13.260   6.746   6.982  0.1533  0.1807 -0.1906
 1163PYPI   C3B16619  13.141   6.356   7.106 -0.3328 -0.2404 -0.0607
 1163PYPI   C4B16620  13.211   5.946   7.278 -0.1590 -0.0165 -0.0852
 1164PYPI    C116621   2.746  16.113   5.420  0.0096  0.0110 -0.0219
 1164PYPI    C216622   3.016  16.383   5.300 -0.0303  0.1093  0.1067
 1164PYPI    C316623   2.918  16.078   5.060  0.1321  0.1201  0.0251
 1164PYPI   PO416624   2.893  15.995   5.717 -0.0222  0.0112 -0.3038
 1164PYPI   GL116625   2.832  15.928   6.175  0.3057  0.1121  0.2223
 1164PYPI   GL216626   2.877  16.170   6.186 -0.0342 -0.1191 -0.0867
 1164PYPI   C1A16627   3.095  15.908   6.545 -0.4903 -0.2573 -0.4429
 1164PYPI   C2A16628   3.086  16.002   7.009  0.3741 -0.0422  0.1260
 1164PYPI   D3A16629   3.249  15.971   7.477 -0.0398 -0.2084  0.0587
 1164PYPI   C4A16630   3.417  16.167   7.923 -0.1136  0.0169 -0.2506
 1164PYPI   C1B16631   2.772  16.312   6.638  0.0277 -0.1385  0.4048
 1164PYPI   C2B16632   2.657  16.386   7.057 -0.0828 -0.2767 -0.0021
 1164PYPI   C3B16633   2.432  16.560   7.380 -0.2109  0.0765  0.1346
 1164PYPI   C4B16634   2.409  16.739   7.853 -0.1584  0.0779  0.0429
 1165PYPI    C116635   1.788  14.684   5.294 -0.0848  0.0221  0.0599
 1165PYPI    C216636   2.058  14.539   5.036 -0.1607  0.0574 -0.0400
 1165PYPI    C316637   2.124  14.513   5.430 -0.1373 -0.1785 -0.0579
 1165PYPI   PO416638   1.497  14.570   5.304 -0.0559  0.0412  0.1215
 1165PYPI   GL116639   1.160  14.645   5.698  0.1400 -0.5346  0.1425
 1165PYPI   GL216640   0.891  14.598   5.862 -0.1419  0.0714 -0.0706
 1165PYPI   C1A16641   1.134  15.053   5.901  0.1292 -0.0190  0.2456
 1165PYPI   C2A16642   1.262  15.481   5.878  0.1674 -0.3704  0.1195
 1165PYPI   D3A16643   1.558  15.788   6.044  0.3190 -0.2391 -0.0174
 1165PYPI   C4A16644   1.877  15.695   6.350  0.0421 -0.2428 -0.0862
 1165PYPI   C1B16645   0.883  14.770   6.244 -0.1132 -0.4141 -0.1396
 1165PYPI   C2B16646   0.879  14.864   6.607 -0.0657  0.1094  0.0390
 1165PYPI   C3B16647   1.149  15.181   6.809 -0.0893 -0.0612  0.0337
 1165PYPI   C4B16648   1.190  15.320   7.216  0.2276  0.1760  0.2289
 1166PYPI    C116649   9.205   4.298   6.181  0.0640 -0.0047  0.0885
 1166PYPI    C216650   8.921   4.579   6.163  0.1487  0.0715 -0.0817
 1166PYPI    C316651   8.819   4.194   6.205  0.0318  0.1245  0.1381
 1166PYPI   PO416652   9.443   4.482   6.225  0.0551  0.0791 -0.1282
 1166PYPI   GL116653   9.603   4.380   6.619  0.0984  0.3571 -0.0115
 1166PYPI   GL216654   9.622   4.115   6.642  0.2528  0.3163 -0.0785
 1166PYPI   C1A16655   9.245   4.547   6.830 -0.2752 -0.0081  0.3326
 1166PYPI   C2A16656   9.123   4.658   7.200  0.0382  0.0791  0.2440
 1166PYPI   D3A16657   9.074   4.690   7.593  0.0005 -0.1339  0.3389
 1166PYPI   C4A16658   8.977   5.115   7.727 -0.0173 -0.0830  0.1381
 1166PYPI   C1B16659   9.611   3.990   6.985 -0.0331  0.0451 -0.1877
 1166PYPI   C2B16660   9.688   3.967   7.439  0.1056  0.0725 -0.4078
 1166PYPI   C3B16661   9.687   4.072   7.888  0.1645 -0.0296 -0.1441
 1166PYPI   C4B16662   9.944   3.970   8.245  0.0629 -0.1183 -0.3462
 1167PYPI    C116663   7.591   2.775   5.433 -0.1223  0.2798  0.1240
 1167PYPI    C216664   7.967   2.911   5.415 -0.0521  0.0719 -0.0166
 1167PYPI    C316665   7.676   3.099   5.215  0.0557 -0.0185 -0.2627
 1167PYPI   PO416666   7.539   2.797   5.707 -0.0229  0.0584 -0.3198
 1167PYPI   GL116667   7.640   2.892   6.153 -0.2345  0.0631 -0.0939
 1167PYPI   GL216668   7.907   2.745   6.356  0.1243 -0.0328 -0.1240
 1167PYPI   C1A16669   7.513   3.073   6.522  0.3950  0.0339 -0.1328
 1167PYPI   C2A16670   7.551   2.999   7.006  0.0773 -0.0003 -0.2227
 1167PYPI   D3A16671   7.532   3.071   7.370 -0.0961 -0.2164 -0.1245
 1167PYPI   C4A16672   7.592   2.888   7.712 -0.2481  0.2910 -0.1828
 1167PYPI   C1B16673   7.983   2.746   6.845 -0.2778 -0.0517  0.0438
 1167PYPI   C2B16674   8.089   2.943   7.204  0.0062 -0.2127 -0.1016
 1167PYPI   C3B16675   8.115   2.992   7.641 -0.2872  0.4229 -0.1133
 1167PYPI   C4B16676   8.175   2.867   8.061 -0.1659  0.0953  0.4523
 1168PYPI    C116677  13.307   5.975   5.743 -0.1116 -0.0924 -0.1594
 1168PYPI    C216678  13.213   6.363   5.717 -0.1718 -0.1119 -0.2352
 1168PYPI    C316679  13.303   6.156   5.387  0.2053 -0.0775 -0.1584
 1168PYPI   PO416680  13.136   5.863   5.876 -0.1634 -0.1376 -0.2820
 1168PYPI   GL116681  13.277   5.844   6.377  0.0695 -0.2517  0.5530
 1168PYPI   GL216682  12.918   5.835   6.360 -0.2656 -0.3824  0.0894
 1168PYPI   C1A16683  13.445   5.501   6.626 -0.0623  0.1024  0.3031
 1168PYPI   C2A16684  13.515   5.456   7.032  0.1036  0.2159  0.0489
 1168PYPI   D3A16685  13.540   5.591   7.452 -0.1274 -0.1048 -0.0780
 1168PYPI   C4A16686  13.505   5.431   7.960  0.0656 -0.3224  0.0061
 1168PYPI   C1B16687  12.965   5.580   6.688 -0.1060 -0.3470 -0.0309
 1168PYPI   C2B16688  12.996   5.503   7.195  0.3247  0.1861  0.0893
 1168PYPI   C3B16689  12.599   5.604   7.415 -0.1808  0.1292 -0.0597
 1168PYPI   C4B16690  12.414   5.252   7.756  0.0889  0.0817  0.3047
 1169PYPI    C116691   9.607   5.811   6.061  0.0422  0.0562  0.1997
 1169PYPI    C216692   9.861   6.063   5.883 -0.1600 -0.0029 -0.1850
 1169PYPI    C316693   9.743   5.732   5.693 -0.1070 -0.2544  0.2078
 1169PYPI   PO416694   9.658   5.832   6.344  0.1391 -0.2899  0.3040
 1169PYPI   GL116695   9.479   5.768   6.636  0.2878  0.0218  0.4946
 1169PYPI   GL216696   9.782   5.670   6.839  0.4051 -0.0494 -0.3215
 1169PYPI   C1A16697   9.476   5.842   7.170  0.2758  0.3238 -0.0944
 1169PYPI   C2A16698   9.385   5.934   7.669  0.1643  0.0976 -0.0290
 1169PYPI   D3A16699   9.656   5.968   7.980  0.1588  0.1600 -0.0291
 1169PYPI   C4A16700  10.144   6.139   8.136 -0.1734  0.0256  0.0036
 1169PYPI   C1B16701   9.731   5.389   7.156  0.1040  0.3984 -0.2571
 1169PYPI   C2B16702   9.945   5.060   7.437 -0.2478  0.0906  0.1360
 1169PYPI   C3B16703  10.114   4.697   7.808  0.3733  0.4679  0.3738
 1169PYPI   C4B16704  10.094   4.422   8.215 -0.1783 -0.0834 -0.2675
 1170PYPI    C116705  15.069   8.577   5.805  0.2598  0.0059 -0.1243
 1170PYPI    C216706  14.850   8.584   5.470  0.1637 -0.3214 -0.0721
 1170PYPI    C316707  15.229   8.454   5.460  0.3078  0.0899 -0.1321
 1170PYPI   PO416708  15.015   8.606   6.039  0.0731 -0.0642 -0.0529
 1170PYPI   GL116709  15.061   8.620   6.484  0.2576  0.0035  0.1474
 1170PYPI   GL216710  15.133   8.840   6.574  0.0566  0.1345 -0.0114
 1170PYPI   C1A16711  15.096   8.604   7.024  0.1476  0.0850  0.2955
 1170PYPI   C2A16712  15.163   8.677   7.481 -0.1239 -0.2197  0.4492
 1170PYPI   D3A16713  15.426   8.785   7.667 -0.1561  0.1845  0.0335
 1170PYPI   C4A16714  15.678   8.500   7.875  0.4691  0.3536  0.2086
 1170PYPI   C1B16715  15.437   9.019   6.856 -0.1960  0.0980  0.2180
 1170PYPI   C2B16716  15.506   8.973   7.153 -0.1757 -0.0952 -0.0249
 1170PYPI   C3B16717  15.865   9.048   7.400 -0.1075 -0.1303 -0.0882
 1170PYPI   C4B16718  15.933   8.949   7.841 -0.1151 -0.2350 -0.2440
 1171PYPI    C116719   6.331   1.119   5.748 -0.1117 -0.0231  0.1557
 1171PYPI    C216720   6.274   0.764   5.925 -0.1541 -0.0677  0.0537
 1171PYPI    C316721   6.240   0.797   5.528  0.0942 -0.0010  0.0362
 1171PYPI   PO416722   6.153   1.309   5.842  0.3008  0.1978  0.2952
 1171PYPI   GL116723   5.913   1.306   6.322 -0.0991  0.3233  0.4390
 1171PYPI   GL216724   5.921   1.007   6.274  0.1264 -0.2471 -0.0545
 1171PYPI   C1A16725   5.905   1.155   6.798  0.2230 -0.2004  0.0239
 1171PYPI   C2A16726   5.913   1.231   7.186 -0.3647 -0.1731  0.1928
 1171PYPI   D3A16727   5.861   1.232   7.664 -0.0391  0.2546  0.0185
 1171PYPI   C4A16728   5.494   1.102   7.798  0.3233  0.0866  0.0366
 1171PYPI   C1B16729   5.833   0.656   6.600 -0.0357 -0.1735 -0.0313
 1171PYPI   C2B16730   5.700   0.721   7.072 -0.0183  0.2897  0.2229
 1171PYPI   C3B16731   5.840   0.733   7.527 -0.0790  0.0275  0.1513
 1171PYPI   C4B16732   5.972   0.899   8.018  0.1076 -0.1836  0.1275
 1172PYPI    C116733   0.660   2.692   5.528 -0.0593  0.0615 -0.0166
 1172PYPI    C216734   0.977   2.464   5.439 -0.1611 -0.0831 -0.0138
 1172PYPI    C316735   0.894   2.787   5.218  0.0907  0.0589  0.0949
 1172PYPI   PO416736   0.636   2.623   5.814 -0.0281 -0.0472 -0.2193
 1172PYPI   GL116737   0.451   2.666   6.182 -0.2203  0.0822  0.1750
 1172PYPI   GL216738   0.578   2.847   6.332 -0.0412 -0.0440 -0.4047
 1172PYPI   C1A16739   0.527   2.314   6.519 -0.2008 -0.1068  0.1607
 1172PYPI   C2A16740   0.302   2.061   6.755  0.2961 -0.1178 -0.0340
 1172PYPI   D3A16741   0.390   1.923   7.147  0.2149  0.0317  0.2121
 1172PYPI   C4A16742   0.294   1.492   7.139 -0.1483  0.0570 -0.3463
 1172PYPI   C1B16743   0.257   3.052   6.592  0.3300 -0.1734  0.3222
 1172PYPI   C2B16744   0.208   3.170   7.019  0.4184  0.1143  0.1260
 1172PYPI   C3B16745   0.314   3.367   7.405  0.2838  0.1032  0.1968
 1172PYPI   C4B16746   0.149   3.415   7.808  0.2174  0.1898 -0.0182
 1173PYPI    C116747  17.462  17.997   5.193 -0.0351  0.2016 -0.1967
 1173PYPI    C216748  17.113  17.810   5.140 -0.0376  0.1045  0.1367
 1173PYPI    C316749  17.456  17.608   5.104 -0.0183  0.1703 -0.0630
 1173PYPI   PO416750  17.381  18.134   5.415 -0.1347  0.1332 -0.0377
 1173PYPI   GL116751  17.149  17.972   5.821 -0.0176 -0.1467  0.0107
 1173PYPI   GL216752  16.896  17.979   6.028 -0.0800  0.1158 -0.1613
 1173PYPI   C1A16753  17.306  18.181   6.134 -0.0334 -0.3825 -0.0423
 1173PYPI   C2A16754  17.659  18.506   6.123  0.1790 -0.2942  0.3356
 1173PYPI   D3A16755  17.780  18.736   6.360  0.1212  0.1417 -0.0862
 1173PYPI   C4A16756  17.851  18.629   6.810  0.1451  0.2216  0.1114
 1173PYPI   C1B16757  17.003  17.898   6.487 -0.0090  0.0719  0.0548
 1173PYPI   C2B16758  16.827  18.066   6.861 -0.0115 -0.1956 -0.1896
 1173PYPI   C3B16759  16.531  18.256   7.092  0.3131  0.2899 -0.2433
 1173PYPI   C4B16760  16.413  18.347   7.521 -0.0896  0.1222 -0.0304
 1174PYPI    C116761   9.725   9.702   5.888  0.0793  0.1323  0.1732
 1174PYPI    C216762   9.776  10.089   5.799  0.2200  0.0579 -0.0790
 1174PYPI    C316763   9.667   9.831   5.514  0.1371 -0.0912  0.0857
 1174PYPI   PO416764   9.852   9.662   6.136 -0.1852 -0.0960 -0.1689
 1174PYPI   GL116765   9.842   9.456   6.407  0.0802  0.0313  0.0717
 1174PYPI   GL216766   9.642   9.656   6.631 -0.2493 -0.0307  0.0492
 1174PYPI   C1A16767  10.145   9.349   6.641  0.2339  0.0454 -0.3500
 1174PYPI   C2A16768  10.270   9.290   7.085 -0.1577  0.0626 -0.0505
 1174PYPI   D3A16769  10.250   9.449   7.428 -0.1758  0.1032 -0.1211
 1174PYPI   C4A16770  10.269   9.318   7.800  0.0436 -0.3115 -0.0297
 1174PYPI   C1B16771   9.873   9.691   6.926  0.0184 -0.1133  0.1348
 1174PYPI   C2B16772   9.815   9.687   7.353 -0.3216 -0.0638  0.0901
 1174PYPI   C3B16773   9.755   9.834   7.722  0.1437 -0.2124 -0.0338
 1174PYPI   C4B16774   9.742  10.174   8.001  0.0955  0.0491 -0.1641
 1175PYPI    C116775   1.138   1.190   5.373  0.1222  0.1517  0.2643
 1175PYPI    C216776   0.953   1.542   5.326 -0.0637  0.0133 -0.0720
 1175PYPI    C316777   0.785   1.207   5.186  0.3472 -0.1434 -0.2045
 1175PYPI   PO416778   1.189   1.145   5.604 -0.0638 -0.0472 -0.1391
 1175PYPI   GL116779   1.435   1.111   5.941  0.0681 -0.0738 -0.1032
 1175PYPI   GL216780   1.221   1.197   6.128 -0.1367 -0.0095  0.0655
 1175PYPI   C1A16781   1.545   0.967   6.455 -0.2048  0.1426 -0.0867
 1175PYPI   C2A16782   1.518   1.022   6.877  0.1037 -0.4213  0.2495
 1175PYPI   D3A16783   1.632   1.127   7.311  0.2439 -0.0377 -0.0834
 1175PYPI   C4A16784   2.010   1.295   7.425 -0.1790  0.3150 -0.2437
 1175PYPI   C1B16785   0.969   0.900   6.451 -0.0524  0.2192  0.2022
 1175PYPI   C2B16786   0.933   0.681   6.891 -0.3362 -0.1917 -0.2383
 1175PYPI   C3B16787   1.308   0.733   7.163 -0.2427  0.1476 -0.1936
 1175PYPI   C4B16788   1.600   0.704   7.560 -0.2862 -0.4014 -0.1171
 1176PYPI    C116789   3.541  17.614   5.960 -0.1434  0.1414  0.0094
 1176PYPI    C216790   3.741  17.679   5.620  0.1025  0.0952  0.1429
 1176PYPI    C316791   3.565  17.326   5.684  0.0009  0.1260  0.0372
 1176PYPI   PO416792   3.462  17.837   6.044  0.2353 -0.1435  0.2208
 1176PYPI   GL116793   3.232  17.818   6.391  0.0442 -0.0205  0.0737
 1176PYPI   GL216794   3.250  18.165   6.404 -0.0524  0.4386  0.3224
 1176PYPI   C1A16795   3.347  17.747   6.763  0.0666 -0.1270  0.2139
 1176PYPI   C2A16796   3.266  17.609   7.141 -0.1614  0.1508  0.0743
 1176PYPI   D3A16797   3.381  17.536   7.553 -0.1659  0.1706 -0.1401
 1176PYPI   C4A16798   3.016  17.265   7.793 -0.1065 -0.0368  0.3410
 1176PYPI   C1B16799   3.313  18.267   6.858  0.1377  0.0797 -0.2388
 1176PYPI   C2B16800   3.296  18.463   7.260 -0.2826  0.1906 -0.0924
 1176PYPI   C3B16801   3.381  18.607   7.613  0.0791 -0.2044  0.0078
 1176PYPI   C4B16802   3.447  18.661   8.012 -0.0927 -0.0017  0.0172
 1177PYPI    C116803  11.338  15.394   5.587  0.0584 -0.1023  0.1366
 1177PYPI    C216804  11.641  15.631   5.695  0.0498 -0.1387  0.2418
 1177PYPI    C316805  11.268  15.776   5.682  0.0845 -0.0662  0.0118
 1177PYPI   PO416806  11.452  15.184   5.740 -0.0283  0.1850 -0.3399
 1177PYPI   GL116807  11.474  15.068   6.130  0.1618 -0.1878 -0.2950
 1177PYPI   GL216808  11.119  15.129   6.334  0.1807  0.4680 -0.1100
 1177PYPI   C1A16809  11.810  15.038   6.407  0.0800 -0.1963  0.0610
 1177PYPI   C2A16810  11.967  15.160   6.884 -0.0166 -0.0240 -0.2078
 1177PYPI   D3A16811  12.038  15.276   7.316  0.0585 -0.2201  0.3784
 1177PYPI   C4A16812  11.835  15.084   7.682 -0.2456  0.0350  0.1367
 1177PYPI   C1B16813  11.086  15.262   6.798  0.1325 -0.3063  0.0778
 1177PYPI   C2B16814  11.120  15.340   7.216 -0.1736  0.0614 -0.1244
 1177PYPI   C3B16815  11.009  15.435   7.617  0.2592  0.0324 -0.3000
 1177PYPI   C4B16816  11.242  15.326   7.978 -0.1127 -0.2150  0.3585
 1178PYPI    C116817   6.253  15.278   5.177  0.0982  0.1032 -0.2669
 1178PYPI    C216818   6.162  15.052   4.860 -0.0290  0.0368 -0.1838
 1178PYPI    C316819   5.912  15.341   4.978 -0.0114  0.0211 -0.1075
 1178PYPI   PO416820   6.336  15.199   5.449 -0.0786 -0.2209 -0.0051
 1178PYPI   GL116821   6.418  15.030   5.917 -0.0293 -0.2048 -0.2441
 1178PYPI   GL216822   6.648  14.866   6.021 -0.0497  0.3809 -0.2793
 1178PYPI   C1A16823   6.267  15.167   6.273 -0.1923  0.2422  0.0761
 1178PYPI   C2A16824   6.259  15.169   6.631  0.3502 -0.0497 -0.0745
 1178PYPI   D3A16825   6.253  15.357   7.018 -0.0520 -0.0680  0.0279
 1178PYPI   C4A16826   6.212  15.464   7.436 -0.0193 -0.2620  0.2100
 1178PYPI   C1B16827   6.911  14.841   6.280 -0.0098 -0.0669 -0.1679
 1178PYPI   C2B16828   7.202  14.791   6.599 -0.2447 -0.0556  0.2499
 1178PYPI   C3B16829   7.533  14.677   6.653 -0.2365 -0.0006  0.0452
 1178PYPI   C4B16830   8.098  14.770   6.776 -0.1517  0.2369 -0.0447
 1179PYPI    C116831   7.214  12.717   5.770  0.0331 -0.3296 -0.1044
 1179PYPI    C216832   7.537  12.817   5.557 -0.0296 -0.1858 -0.1331
 1179PYPI    C316833   7.173  12.845   5.393 -0.0789 -0.0668 -0.0060
 1179PYPI   PO416834   7.380  12.791   6.119  0.0480 -0.1828  0.3015
 1179PYPI   GL116835   7.372  12.809   6.424  0.4082 -0.2940  0.0742
 1179PYPI   GL216836   7.685  12.896   6.544 -0.1685  0.0727  0.2897
 1179PYPI   C1A16837   7.229  12.954   6.810 -0.0873  0.1472  0.1206
 1179PYPI   C2A16838   7.171  12.901   7.149 -0.1246  0.2229  0.0076
 1179PYPI   D3A16839   7.064  13.234   7.357  0.1838 -0.1813 -0.1742
 1179PYPI   C4A16840   6.929  13.337   7.785 -0.0360 -0.3421 -0.3573
 1179PYPI   C1B16841   7.690  12.800   6.930 -0.1627  0.0542  0.3704
 1179PYPI   C2B16842   7.649  12.831   7.402 -0.1824  0.0581  0.0754
 1179PYPI   C3B16843   7.489  12.529   7.769 -0.0380  0.5101 -0.2701
 1179PYPI   C4B16844   7.153  12.413   8.178 -0.1468  0.2463  0.1331
 1180ERGO   ROH16845  10.173   3.446   6.227  0.0106  0.3585  0.0551
 1180ERGO    R116846  10.152   3.403   6.506  0.0139  0.2970  0.0457
 1180ERGO    R216847  10.126   3.151   6.617 -0.0379  0.2775 -0.0141
 1180ERGO    R316848  10.343   3.228   6.762 -0.0140  0.1932 -0.0033
 1180ERGO    R416849  10.149   3.136   6.962  0.0828 -0.0909 -0.0340
 1180ERGO    R516850  10.250   3.329   6.959  0.0168 -0.0502  0.1409
 1180ERGO    C116851  10.366   3.199   7.298  0.1756 -0.3846 -0.0354
 1180ERGO    C216852  10.545   3.106   7.551  0.0094  0.0051 -0.1753
 1181ERGO   ROH16853   8.337   8.802   6.516 -0.2146  0.0870  0.0554
 1181ERGO    R116854   8.449   8.963   6.720 -0.0385  0.0057  0.0248
 1181ERGO    R216855   8.303   9.051   6.937  0.0235  0.2990 -0.0479
 1181ERGO    R316856   8.504   8.935   7.078 -0.1785  0.0602  0.0512
 1181ERGO    R416857   8.494   9.212   7.176  0.2076  0.1259 -0.0760
 1181ERGO    R516858   8.669   9.108   7.098  0.0760 -0.1717  0.0114
 1181ERGO    C116859   8.794   9.197   7.448  0.1251 -0.1991  0.0007
 1181ERGO    C216860   8.764   9.122   7.737 -0.2026 -0.0458  0.2512
 1182ERGO   ROH16861   6.100   8.665   6.381  0.1031 -0.0108 -0.0453
 1182ERGO    R116862   6.198   8.694   6.645  0.0204  0.2224 -0.0390
 1182ERGO    R216863   6.204   8.937   6.775 -0.3971  0.2709 -0.1067
 1182ERGO    R316864   6.065   8.803   6.966 -0.2043  0.0948 -0.0847
 1182ERGO    R416865   6.191   9.027   7.109 -0.5860  0.3684 -0.1386
 1182ERGO    R516866   6.204   8.815   7.161 -0.2391  0.3946 -0.0676
 1182ERGO    C116867   6.052   8.953   7.482 -0.5149  0.2598 -0.1364
 1182ERGO    C216868   5.864   9.205   7.688 -0.0385 -0.0767 -0.1516
 1183ERGO   ROH16869   6.332  14.583   6.302 -0.3094  0.1750  0.0628
 1183ERGO    R116870   6.397  14.699   6.552 -0.1184  0.0722  0.0624
 1183ERGO    R216871   6.526  14.559   6.752  0.0692  0.0013 -0.1076
 1183ERGO    R316872   6.700  14.767   6.740  0.0305  0.0316 -0.1573
 1183ERGO    R416873   6.798  14.600   6.960 -0.1067  0.2499  0.0810
 1183ERGO    R516874   6.753  14.813   6.969 -0.1654  0.2526 -0.1501
 1183ERGO    C116875   7.121  14.819   7.071 -0.2455  0.4231  0.1441
 1183ERGO    C216876   7.515  14.672   7.152  0.2324 -0.3388  0.1797
 1184ERGO   ROH16877   2.876  17.473   6.411  0.1149 -0.1161 -0.0272
 1184ERGO    R116878   2.905  17.469   6.692  0.2199 -0.2395 -0.0367
 1184ERGO    R216879   2.716  17.574   6.863  0.4672  0.0717  0.0736
 1184ERGO    R316880   2.725  17.327   6.975  0.0616  0.0152 -0.0103
 1184ERGO    R416881   2.655  17.507   7.196  0.3147  0.0347  0.0366
 1184ERGO    R516882   2.820  17.363   7.192  0.0857 -0.2202  0.0129
 1184ERGO    C116883   2.628  17.234   7.495 -0.1549 -0.0399 -0.0637
 1184ERGO    C216884   2.342  17.286   7.861 -0.2336  0.0807 -0.0942
 1185ERGO   ROH16885  10.217   1.220   5.766  0.0908 -0.1367 -0.0231
 1185ERGO    R116886  10.226   1.338   6.023  0.2075 -0.0711 -0.0556
 1185ERGO    R216887   9.998   1.418   6.158  0.2746  0.0777 -0.0218
 1185ERGO    R316888  10.097   1.259   6.354  0.2435  0.0789 -0.0063
 1185ERGO    R416889   9.919   1.445   6.493  0.3488  0.1778 -0.0126
 1185ERGO    R516890  10.127   1.406   6.541  0.3382  0.1019 -0.0427
 1185ERGO    C116891   9.966   1.312   6.873  0.3628  0.2371  0.0073
 1185ERGO    C216892   9.916   1.378   7.213  0.1071 -0.0803  0.2778
 1186ERGO   ROH16893   0.972  17.864   5.755 -0.1340 -0.0693  0.0110
 1186ERGO    R116894   0.826  17.897   5.995 -0.0787  0.0107  0.0327
 1186ERGO    R216895   0.582  17.775   6.040 -0.0523  0.0072  0.1375
 1186ERGO    R316896   0.706  17.682   6.264  0.0039  0.1060  0.1492
 1186ERGO    R416897   0.419  17.667   6.325 -0.0149 -0.3479  0.0311
 1186ERGO    R516898   0.573  17.767   6.444 -0.2028 -0.1565  0.1316
 1186ERGO    C116899   0.440  17.518   6.701  0.0597 -0.4621 -0.0199
 1186ERGO    C216900   0.376  17.415   7.014 -0.0708 -0.0686 -0.0157
 1187ERGO   ROH16901   8.855   5.545   6.528 -0.1794 -0.0689 -0.0273
 1187ERGO    R116902   8.986   5.593   6.774  0.0581  0.0498 -0.1744
 1187ERGO    R216903   8.916   5.463   7.007  0.0971  0.3627  0.0112
 1187ERGO    R316904   9.180   5.398   7.012  0.0375  0.0930 -0.1199
 1187ERGO    R416905   9.063   5.250   7.237  0.0089  0.3151  0.0249
 1187ERGO    R516906   9.234   5.385   7.245  0.1599  0.1484 -0.1401
 1187ERGO    C116907   9.395   5.065   7.375 -0.0985  0.0342 -0.0902
 1187ERGO    C216908   9.529   4.908   7.687  0.0209  0.3548 -0.2745
 1188ERGO   ROH16909   3.951   3.177   6.236  0.0767  0.0851  0.2634
 1188ERGO    R116910   3.934   3.186   6.519 -0.1639 -0.0051  0.2543
 1188ERGO    R216911   3.704   3.120   6.656 -0.1974 -0.3359  0.0534
 1188ERGO    R316912   3.869   2.949   6.788 -0.0802 -0.1585  0.1408
 1188ERGO    R416913   3.651   3.002   6.976 -0.1538 -0.2690  0.0856
 1188ERGO    R516914   3.864   3.025   7.015 -0.1781 -0.0839  0.1140
 1188ERGO    C116915   3.775   2.772   7.286 -0.0184 -0.0634  0.1863
 1188ERGO    C216916   3.624   2.678   7.536 -0.0628 -0.3383  0.2499
 1189ERGO   ROH16917   4.135  16.308   6.183 -0.0092 -0.0557 -0.1084
 1189ERGO    R116918   4.207  16.379   6.447  0.0071 -0.0613 -0.1112
 1189ERGO    R216919   4.026  16.482   6.628  0.0226 -0.0465 -0.1036
 1189ERGO    R316920   4.113  16.277   6.783  0.0121 -0.0537 -0.1074
 1189ERGO    R416921   3.990  16.465   6.972  0.0343 -0.0440 -0.1024
 1189ERGO    R516922   4.192  16.383   6.984  0.0282 -0.0600 -0.1103
 1189ERGO    C116923   4.051  16.263   7.317  0.0314 -0.0492 -0.1052
 1189ERGO    C216924   3.769  16.103   7.577  0.3497 -0.0096 -0.1382
 1190ERGO   ROH16925  17.354   2.571   5.899 -0.0210  0.0590 -0.1005
 1190ERGO    R116926  17.308   2.421   6.134  0.0646 -0.0150 -0.1332
 1190ERGO    R216927  17.104   2.480   6.311  0.1407 -0.0674 -0.0435
 1190ERGO    R316928  17.036   2.220   6.270  0.1129 -0.0556 -0.0887
 1190ERGO    R416929  16.909   2.290   6.525  0.2239 -0.1076  0.0002
 1190ERGO    R516930  17.042   2.122   6.488  0.2088 -0.1109 -0.1069
 1190ERGO    C116931  16.732   1.936   6.610  0.2462 -0.1200 -0.0167
 1190ERGO    C216932  16.492   1.929   6.788 -0.3395  0.0747 -0.0326
 1191ERGO   ROH16933  14.444  11.813   8.487 -0.0450 -0.1927  0.1939
 1191ERGO    R116934  14.680  11.967   8.512 -0.0571 -0.1563  0.0957
 1191ERGO    R216935  14.681  12.242   8.493 -0.0827 -0.1618 -0.0612
 1191ERGO    R316936  14.804  12.227   8.735 -0.0740 -0.0188 -0.0563
 1191ERGO    R416937  14.778  12.514   8.682 -0.4269 -0.0517 -0.0348
 1191ERGO    R516938  14.961  12.407   8.733 -0.2977  0.1764 -0.0324
 1191ERGO    C116939  14.951  12.658   9.019 -0.6192  0.1465 -0.0150
 1191ERGO    C216940  15.117  12.963   9.117 -0.0097 -0.1625  0.2902
 1192ERGO   ROH16941   8.416  12.332   6.667  0.1316  0.1805  0.2107
 1192ERGO    R116942   8.425  12.465   6.916  0.0343  0.0149  0.3041
 1192ERGO    R216943   8.270  12.687   6.973  0.2151  0.1457  0.2902
 1192ERGO    R316944   8.191  12.538   7.185 -0.1503  0.0931  0.1254
 1192ERGO    R416945   8.174  12.815   7.279  0.1425  0.0574  0.3047
 1192ERGO    R516946   8.282  12.652   7.375 -0.1447 -0.1574  0.2792
 1192ERGO    C116947   8.044  12.749   7.657 -0.2427 -0.0433  0.1584
 1192ERGO    C216948   7.765  13.013   7.861  0.2624 -0.1783 -0.1383
 1193ERGO   ROH16949  17.286   6.374   6.473 -0.0824 -0.0954  0.0020
 1193ERGO    R116950  17.173   6.481   6.709  0.0465  0.0543 -0.0022
 1193ERGO    R216951  17.054   6.323   6.902 -0.1285  0.2030  0.0151
 1193ERGO    R316952  17.229   6.449   7.067  0.0241  0.0185 -0.0019
 1193ERGO    R416953  16.999   6.387   7.237 -0.0694  0.3460 -0.0020
 1193ERGO    R516954  17.091   6.582   7.210  0.1819  0.2269 -0.0390
 1193ERGO    C116955  17.132   6.543   7.587  0.1083  0.2561 -0.0279
 1193ERGO    C216956  17.013   6.634   7.979 -0.2022 -0.1709  0.2759
 1194ERGO   ROH16957  10.515   6.823   6.524 -0.3014  0.1250 -0.1262
 1194ERGO    R116958  10.416   7.016   6.706 -0.1337  0.1180 -0.0255
 1194ERGO    R216959  10.157   7.010   6.803 -0.1435  0.2992 -0.0406
 1194ERGO    R316960  10.282   7.016   7.045 -0.1464  0.0562 -0.0298
 1194ERGO    R416961  10.076   7.224   7.062 -0.0765  0.1188  0.1325
 1194ERGO    R516962  10.289   7.249   7.102 -0.0661  0.0108  0.1597
 1194ERGO    C116963  10.146   7.355   7.439 -0.0404 -0.2145  0.2434
 1194ERGO    C216964  10.212   7.445   7.700  0.1692 -0.0928 -0.1848
 1195ERGO   ROH16965   0.484   3.424   6.281  0.1688  0.0072  0.0702
 1195ERGO    R116966   0.498   3.449   6.563  0.1611 -0.0691  0.0756
 1195ERGO    R216967   0.653   3.282   6.718  0.3309  0.0366  0.0054
 1195ERGO    R316968   0.758   3.516   6.809  0.1090  0.1086  0.0882
 1195ERGO    R416969   0.711   3.356   7.051  0.5414 -0.1737  0.0202
 1195ERGO    R516970   0.639   3.558   7.013  0.2294 -0.2211  0.2455
 1195ERGO    C116971   0.842   3.619   7.330  0.4558 -0.2287  0.1066
 1195ERGO    C216972   1.079   3.531   7.641  0.1922 -0.1414  0.1964
 1196ERGO   ROH16973  12.192  15.442   6.329 -0.3296  0.0605  0.1440
 1196ERGO    R116974  12.305  15.571   6.554 -0.1134 -0.0082  0.0781
 1196ERGO    R216975  12.275  15.474   6.811 -0.0441  0.0274  0.0981
 1196ERGO    R316976  12.547  15.487   6.813 -0.0318 -0.1682 -0.0463
 1196ERGO    R416977  12.471  15.479   7.096  0.0845  0.1444  0.0080
 1196ERGO    R516978  12.598  15.628   7.000  0.1528 -0.0304 -0.1919
 1196ERGO    C116979  12.839  15.495   7.264  0.1709  0.0287 -0.1801
 1196ERGO    C216980  12.875  15.267   7.606  0.0956 -0.0769  0.0954
 1197ERGO   ROH16981   9.462  10.736   6.510  0.1146  0.0044  0.0747
 1197ERGO    R116982   9.450  10.599   6.757 -0.2653  0.0114  0.0672
 1197ERGO    R216983   9.649  10.617   6.947 -0.2320 -0.4947  0.1023
 1197ERGO    R316984   9.443  10.689   7.109 -0.0930  0.0169  0.0684
 1197ERGO    R416985   9.659  10.611   7.293 -0.3082 -0.5062  0.1037
 1197ERGO    R516986   9.455  10.534   7.292 -0.5034 -0.0103  0.0750
 1197ERGO    C116987   9.471  10.675   7.646 -0.2221 -0.0327  0.0727
 1197ERGO    C216988   9.375  10.716   7.965 -0.1276  0.0614 -0.2104
 1198ERGO   ROH16989   4.118  12.293   5.940 -0.0379  0.2657  0.0057
 1198ERGO    R116990   4.071  12.381   6.205 -0.1290  0.1360  0.0334
 1198ERGO    R216991   3.875  12.271   6.366 -0.0525 -0.0779 -0.0206
 1198ERGO    R316992   4.082  12.234   6.538 -0.0370  0.0288 -0.0149
 1198ERGO    R416993   3.846  12.254   6.710 -0.0599 -0.0640 -0.0204
 1198ERGO    R516994   4.029  12.371   6.727 -0.1086  0.0231 -0.0261
 1198ERGO    C116995   4.023  12.209   7.072 -0.0497  0.0442 -0.0149
 1198ERGO    C216996   3.944  12.243   7.421 -0.1866 -0.0890 -0.2158
 1199ERGO   ROH16997  10.632  15.771   6.431  0.0952 -0.1399 -0.0833
 1199ERGO    R116998  10.549  15.694   6.690  0.0132 -0.1125 -0.1009
 1199ERGO    R216999  10.727  15.611   6.885 -0.0534 -0.1504 -0.0539
 1199ERGO    R317000  10.609  15.807   7.031 -0.0420 -0.1166 -0.0903
 1199ERGO    R417001  10.764  15.652   7.226 -0.0093 -0.0523 -0.0703
 1199ERGO    R517002  10.552  15.701   7.238 -0.0077 -0.0602 -0.0534
 1199ERGO    C117003  10.675  15.861   7.562  0.0271  0.0366 -0.1139
 1199ERGO    C217004  10.649  16.074   7.853 -0.0089  0.0072 -0.1846
 1200ERGO   ROH17005   5.556   3.398   6.386  0.1766 -0.1459 -0.0982
 1200ERGO    R117006   5.486   3.440   6.657  0.0706 -0.1346 -0.1275
 1200ERGO    R217007   5.546   3.258   6.856  0.0718 -0.0831 -0.0859
 1200ERGO    R317008   5.663   3.473   6.973 -0.0484 -0.0242 -0.0701
 1200ERGO    R417009   5.474   3.374   7.173  0.0895 -0.2278 -0.0273
 1200ERGO    R517010   5.487   3.577   7.097 -0.0909 -0.1918  0.0202
 1200ERGO    C117011   5.542   3.644   7.468 -0.0131 -0.2568  0.0215
 1200ERGO    C217012   5.452   3.638   7.735  0.0310  0.1741 -0.2084
 1201ERGO   ROH17013   4.480   5.250   6.030 -0.0614  0.0398 -0.0098
 1201ERGO    R117014   4.422   5.229   6.306 -0.0526 -0.0229 -0.0127
 1201ERGO    R217015   4.490   5.006   6.456 -0.0229 -0.0441 -0.0600
 1201ERGO    R317016   4.612   5.190   6.614 -0.0416 -0.0622 -0.0238
 1201ERGO    R417017   4.511   4.988   6.800  0.0494 -0.1555 -0.0697
 1201ERGO    R517018   4.474   5.203   6.809 -0.0083 -0.1661  0.0087
 1201ERGO    C117019   4.638   5.150   7.149  0.0740 -0.2373 -0.0413
 1201ERGO    C217020   4.682   5.122   7.473  0.2304 -0.1553  0.0698
 1202ERGO   ROH17021   0.205  16.344   5.715 -0.4139 -0.1879 -0.0747
 1202ERGO    R117022   0.082  16.428   5.956 -0.2921 -0.1081 -0.0387
 1202ERGO    R217023   0.027  16.254   6.163 -0.1785 -0.0397  0.0552
 1202ERGO    R317024   0.170  16.433   6.309 -0.1057  0.0187 -0.0863
 1202ERGO    R417025  -0.043  16.341   6.490  0.0620  0.0026  0.0969
 1202ERGO    R517026   0.004  16.548   6.439 -0.0272  0.0018  0.0249
 1202ERGO    C117027   0.050  16.560   6.817  0.2703  0.0822 -0.0116
 1202ERGO    C217028   0.121  16.493   7.210 -0.1902 -0.4547 -0.1229
 1203ERGO   ROH17029   9.591  15.714   6.281  0.1147 -0.1145 -0.1079
 1203ERGO    R117030   9.465  15.923   6.424 -0.0641 -0.1579 -0.2006
 1203ERGO    R217031   9.247  15.880   6.589  0.1492 -0.3235  0.0425
 1203ERGO    R317032   9.403  16.005   6.773  0.1395  0.0961 -0.2201
 1203ERGO    R417033   9.154  15.939   6.916  0.3904 -0.2306  0.0959
 1203ERGO    R517034   9.248  16.136   6.902  0.0403 -0.0684 -0.1637
 1203ERGO    C117035   9.246  16.091   7.280  0.5219  0.2174 -0.1195
 1203ERGO    C217036   9.333  15.997   7.535 -0.2200  0.1276 -0.1334
 1204ERGO   ROH17037  14.797   2.245   5.709  0.2241 -0.0829  0.0838
 1204ERGO    R117038  14.778   2.086   5.943  0.1055 -0.0268  0.1117
 1204ERGO    R217039  14.998   2.020   6.096  0.0481 -0.1307  0.1407
 1204ERGO    R317040  14.850   2.127   6.297  0.0963 -0.0059  0.1125
 1204ERGO    R417041  15.075   1.996   6.432  0.2283  0.2183  0.1309
 1204ERGO    R517042  14.863   1.965   6.473  0.2563  0.1594  0.2623
 1204ERGO    C117043  14.980   2.082   6.817  0.3786  0.5386  0.0987
 1204ERGO    C217044  14.996   2.279   7.111  0.1821 -0.2183  0.2535
 1205ERGO   ROH17045  14.704   7.372   6.616 -0.3872  0.1015  0.1020
 1205ERGO    R117046  14.841   7.207   6.801 -0.3637  0.0208  0.0138
 1205ERGO    R217047  15.053   7.299   6.953 -0.0155 -0.1800 -0.3304
 1205ERGO    R317048  14.903   7.207   7.160  0.1292  0.1623 -0.0631
 1205ERGO    R417049  15.156   7.061   7.182 -0.0205 -0.1375 -0.2842
 1205ERGO    R517050  14.957   6.974   7.174 -0.1456  0.1020  0.0389
 1205ERGO    C117051  15.075   6.837   7.509  0.1125  0.2084 -0.0062
 1205ERGO    C217052  15.205   6.607   7.711 -0.1656 -0.0950 -0.3181
 1206ERGO   ROH17053  16.066   9.813   6.809 -0.0286  0.0716  0.1233
 1206ERGO    R117054  16.072   9.975   7.042  0.0258  0.0777  0.1172
 1206ERGO    R217055  16.288   9.981   7.213  0.0568  0.0682  0.0744
 1206ERGO    R317056  16.275  10.249   7.168  0.0667  0.0690  0.0727
 1206ERGO    R417057  16.390  10.225   7.436  0.1367  0.0607  0.0468
 1206ERGO    R517058  16.215  10.342   7.381  0.1293  0.0756  0.0898
 1206ERGO    C117059  16.437  10.618   7.524  0.1927  0.0572  0.0292
 1206ERGO    C217060  16.555  10.752   7.821  0.4965  0.0427 -0.1537
 1207ERGO   ROH17061   1.641   3.301   6.409  0.0180  0.1966  0.0331
 1207ERGO    R117062   1.763   3.240   6.656 -0.0004  0.1420  0.0287
 1207ERGO    R217063   1.771   3.419   6.867 -0.0453  0.0831  0.0799
 1207ERGO    R317064   1.657   3.213   7.004 -0.0330  0.0299  0.0109
 1207ERGO    R417065   1.828   3.348   7.200  0.0106 -0.0625  0.0401
 1207ERGO    R517066   1.831   3.136   7.150 -0.0102 -0.0424 -0.0525
 1207ERGO    C117067   1.755   3.114   7.523  0.0546 -0.1971 -0.0478
 1207ERGO    C217068   1.657   3.293   7.782  0.3351 -0.2219 -0.1684
 1208ERGO   ROH17069   2.063  16.948   6.293  0.1700  0.1249 -0.1793
 1208ERGO    R117070   2.052  16.934   6.575  0.1903  0.1605 -0.1774
 1208ERGO    R217071   1.993  17.152   6.733  0.0128  0.1335 -0.2128
 1208ERGO    R317072   1.802  16.987   6.834  0.1529 -0.0091 -0.1752
 1208ERGO    R417073   1.809  17.215   7.019 -0.1154  0.1088 -0.2884
 1208ERGO    R517074   1.829  17.004   7.072  0.0858  0.1469 -0.1730
 1208ERGO    C117075   1.523  17.097   7.281 -0.0586 -0.0396 -0.2972
 1208ERGO    C217076   1.275  17.188   7.393  0.2805  0.2624 -0.0817
 1209ERGO   ROH17077   1.668   5.306   6.361  0.0192  0.1989  0.1349
 1209ERGO    R117078   1.792   5.237   6.606  0.0269  0.0759  0.0966
 1209ERGO    R217079   1.913   5.424   6.769  0.1115 -0.0202  0.1413
 1209ERGO    R317080   1.748   5.319   6.958  0.1014 -0.0246  0.1307
 1209ERGO    R417081   1.912   5.514   7.103  0.2522 -0.1848  0.1875
 1209ERGO    R517082   1.884   5.303   7.154  0.1486 -0.1991  0.0885
 1209ERGO    C117083   1.757   5.467   7.474  0.3246 -0.2849  0.2044
 1209ERGO    C217084   1.777   5.372   7.812  0.1104  0.1500 -0.0111
 1210ERGO   ROH17085   7.342  18.067   6.336 -0.0094  0.2921 -0.0230
 1210ERGO    R117086   7.469  18.145   6.577  0.0364 -0.0125  0.0543
 1210ERGO    R217087   7.328  18.247   6.792  0.1138  0.0023  0.0943
 1210ERGO    R317088   7.452  18.046   6.927 -0.1370 -0.2301 -0.0115
 1210ERGO    R417089   7.324  18.207   7.135  0.1791 -0.0854  0.0856
 1210ERGO    R517090   7.533  18.150   7.127  0.0976 -0.4045 -0.0097
 1210ERGO    C117091   7.437  17.995   7.462 -0.0182 -0.3548 -0.0188
 1210ERGO    C217092   7.401  17.714   7.670 -0.4033 -0.2512 -0.1853
 1211ERGO   ROH17093  16.824  16.747   5.870  0.0085  0.0394  0.0715
 1211ERGO    R117094  16.740  16.670   6.129  0.0012  0.0056  0.0595
 1211ERGO    R217095  16.885  16.496   6.287  0.0294  0.0337  0.0667
 1211ERGO    R317096  16.869  16.698   6.468 -0.0399  0.0218  0.0735
 1211ERGO    R417097  16.886  16.455   6.631  0.0790  0.0254  0.0653
 1211ERGO    R517098  16.734  16.610   6.645  0.0147 -0.0401  0.0837
 1211ERGO    C117099  16.872  16.621   7.000  0.0426  0.0095  0.0709
 1211ERGO    C217100  16.912  16.751   7.368  0.1960 -0.1847 -0.1466
 1212ERGO   ROH17101   0.127   2.297   6.224 -0.0106  0.0567 -0.1552
 1212ERGO    R117102   0.043   2.485   6.418  0.0319  0.0640 -0.1447
 1212ERGO    R217103  -0.043   2.411   6.670 -0.0360  0.0649 -0.1702
 1212ERGO    R317104   0.149   2.586   6.751  0.0180 -0.0183 -0.1142
 1212ERGO    R417105   0.019   2.498   6.999 -0.1884  0.1377 -0.1593
 1212ERGO    R517106   0.048   2.704   6.934 -0.0290  0.1023 -0.2138
 1212ERGO    C117107   0.235   2.712   7.267 -0.2267  0.1021 -0.1004
 1212ERGO    C217108   0.231   2.888   7.510 -0.0034  0.3561 -0.3199
 1213ERGO   ROH17109   2.428   0.232   6.159 -0.0397  0.3323  0.1137
 1213ERGO    R117110   2.181   0.231   6.298 -0.1634  0.1271 -0.1021
 1213ERGO    R217111   1.944   0.153   6.179  0.0470 -0.3236 -0.2359
 1213ERGO    R317112   1.931  -0.016   6.392  0.0961 -0.1331 -0.0767
 1213ERGO    R417113   1.660   0.091   6.366  0.0189 -0.3496 -0.2851
 1213ERGO    R517114   1.783   0.092   6.545 -0.0430 -0.0873 -0.2341
 1213ERGO    C117115   1.483  -0.104   6.674  0.0488 -0.1861 -0.1643
 1213ERGO    C217116   1.260  -0.278   6.967 -0.3100 -0.0240  0.0705
 1214ERGO   ROH17117   4.411   9.703   6.100 -0.0869 -0.0605  0.1070
 1214ERGO    R117118   4.512   9.656   6.360 -0.0903 -0.2326  0.0763
 1214ERGO    R217119   4.447   9.814   6.576  0.1995 -0.1505  0.0987
 1214ERGO    R317120   4.374   9.577   6.687 -0.1258 -0.0558  0.1083
 1214ERGO    R417121   4.433   9.751   6.916  0.0946 -0.0990  0.1058
 1214ERGO    R517122   4.518   9.553   6.877 -0.1577 -0.2274  0.1225
 1214ERGO    C117123   4.357   9.491   7.218 -0.2718  0.0198  0.1190
 1214ERGO    C217124   4.270   9.303   7.563  0.0976 -0.0491  0.0088
 1215ERGO   ROH17125   0.100   5.417   6.447  0.1577  0.1125  0.0565
 1215ERGO    R117126   0.270   5.269   6.619  0.0666  0.0053  0.0531
 1215ERGO    R217127   0.195   5.196   6.874  0.0205  0.0430  0.0425
 1215ERGO    R317128   0.260   4.947   6.788 -0.1233  0.0029  0.0443
 1215ERGO    R417129   0.306   4.940   7.078  0.2986  0.1251 -0.0002
 1215ERGO    R517130   0.449   4.885   6.922  0.0759  0.0511 -0.1955
 1215ERGO    C117131   0.431   4.557   7.116  0.3255  0.1354 -0.0234
 1215ERGO    C217132   0.268   4.413   7.408 -0.1748  0.0044  0.0450
 1216ERGO   ROH17133  16.039   4.718   5.914  0.0454  0.0221  0.0327
 1216ERGO    R117134  16.143   4.594   6.146  0.0829  0.0408  0.0261
 1216ERGO    R217135  16.362   4.426   6.140  0.0477 -0.0041 -0.0045
 1216ERGO    R317136  16.457   4.596   6.330  0.1329  0.0088 -0.0584
 1216ERGO    R417137  16.627   4.359   6.352  0.0625 -0.0406 -0.0345
 1216ERGO    R517138  16.517   4.455   6.513  0.1190  0.0305 -0.0368
 1216ERGO    C117139  16.871   4.480   6.652  0.1509 -0.0497 -0.1027
 1216ERGO    C217140  17.220   4.458   6.741  0.1194  0.1773 -0.1855
 1217ERGO   ROH17141  12.538  16.445   6.130  0.0426 -0.0998  0.0784
 1217ERGO    R117142  12.655  16.499   6.382  0.0374 -0.0310  0.0661
 1217ERGO    R217143  12.582  16.717   6.536 -0.0689 -0.0687  0.0698
 1217ERGO    R317144  12.540  16.527   6.726  0.0552 -0.0901  0.0771
 1217ERGO    R417145  12.602  16.770   6.877 -0.1704 -0.0245  0.0692
 1217ERGO    R517146  12.700  16.577   6.897 -0.0133  0.0563  0.1007
 1217ERGO    C117147  12.574  16.623   7.254 -0.1130 -0.0188  0.0756
 1217ERGO    C217148  12.560  16.744   7.531 -0.1109 -0.0140 -0.0385
 1218ERGO   ROH17149   2.929   9.887   6.160  0.1456 -0.3604 -0.0082
 1218ERGO    R117150   3.031   9.799   6.409  0.1111 -0.1750  0.0721
 1218ERGO    R217151   3.063   9.969   6.625 -0.0012 -0.0362 -0.0213
 1218ERGO    R317152   2.912   9.783   6.752  0.0321 -0.0077  0.0529
 1218ERGO    R417153   3.026   9.946   6.967 -0.0885  0.1688 -0.0155
 1218ERGO    R517154   3.037   9.730   6.949 -0.0048  0.1628  0.1238
 1218ERGO    C117155   2.862   9.758   7.287 -0.1080  0.3150  0.0575
 1218ERGO    C217156   2.654   9.968   7.499 -0.0892 -0.1581 -0.4088
 1219ERGO   ROH17157  10.150   9.868   6.529  0.2484 -0.1310  0.0346
 1219ERGO    R117158  10.315   9.849   6.759  0.1475  0.0368  0.1244
 1219ERGO    R217159  10.337  10.054   6.943 -0.0306  0.1286  0.0564
 1219ERGO    R317160  10.268   9.859   7.119 -0.0350  0.1684  0.0966
 1219ERGO    R417161  10.321  10.094   7.286 -0.0670  0.1998  0.0454
 1219ERGO    R517162  10.410   9.896   7.308 -0.0607  0.2162  0.1004
 1219ERGO    C117163  10.247   9.934   7.651 -0.0924  0.2789  0.0768
 1219ERGO    C217164  10.258  10.127   7.945  0.0562 -0.0371 -0.1580
 1220ERGO   ROH17165   6.495  11.744   6.410  0.1097 -0.0239 -0.0362
 1220ERGO    R117166   6.482  11.800   6.687  0.2141 -0.0027 -0.0348
 1220ERGO    R217167   6.242  11.817   6.824  0.2543  0.2148  0.0124
 1220ERGO    R317168   6.359  11.632   6.985  0.1216  0.1152 -0.0054
 1220ERGO    R417169   6.153  11.757   7.152  0.0417  0.0740 -0.0696
 1220ERGO    R517170   6.364  11.736   7.201  0.0096  0.0114  0.0493
 1220ERGO    C117171   6.209  11.548   7.495 -0.2067 -0.1017 -0.1340
 1220ERGO    C217172   6.235  11.369   7.885  0.0067  0.1911  0.0160
 1221ERGO   ROH17173  14.640  14.047   6.320 -0.0815 -0.0883 -0.1925
 1221ERGO    R117174  14.513  14.264   6.450 -0.0368 -0.1260 -0.0822
 1221ERGO    R217175  14.479  14.274   6.724  0.0417 -0.2158 -0.0611
 1221ERGO    R317176  14.606  14.513   6.699  0.0487 -0.2170 -0.0257
 1221ERGO    R417177  14.442  14.541   6.940 -0.0128 -0.2037 -0.0866
 1221ERGO    R517178  14.443  14.674   6.768  0.0397 -0.2122 -0.0811
 1221ERGO    C117179  14.539  14.922   7.042 -0.0382 -0.1979 -0.0682
 1221ERGO    C217180  14.644  15.150   7.210 -0.4053  0.1826  0.0853
 1222ERGO   ROH17181   4.954   0.756   6.141 -0.2033  0.0585 -0.0266
 1222ERGO    R117182   5.005   0.834   6.408 -0.0051 -0.0839 -0.0199
 1222ERGO    R217183   4.822   0.974   6.560  0.2303  0.1264  0.0849
 1222ERGO    R317184   4.860   0.770   6.735  0.0149  0.0200  0.0089
 1222ERGO    R417185   4.740   0.984   6.896  0.2987  0.1099  0.1013
 1222ERGO    R517186   4.925   0.877   6.939  0.1787 -0.1277  0.0345
 1222ERGO    C117187   4.727   0.797   7.255  0.1364  0.0004  0.0394
 1222ERGO    C217188   4.625   0.722   7.648  0.1341 -0.2345 -0.2475
 1223ERGO   ROH17189   7.770   1.784   6.844 -0.0682 -0.5372  0.1681
 1223ERGO    R117190   7.709   1.897   7.096  0.1949 -0.3033  0.1326
 1223ERGO    R217191   7.462   1.868   7.216  0.1383  0.2444  0.1870
 1223ERGO    R317192   7.610   1.775   7.424 -0.0099  0.0243  0.1965
 1223ERGO    R417193   7.396   1.931   7.550  0.1193  0.1926  0.1924
 1223ERGO    R517194   7.610   1.955   7.583  0.1316 -0.0338  0.2584
 1223ERGO    C117195   7.497   1.880   7.939 -0.0309 -0.0441  0.2044
 1223ERGO    C217196   7.553   1.725   8.112  0.0604  0.3712 -0.0494
 1224ERGO   ROH17197   9.682   6.332   6.631  0.2723  0.0937 -0.0328
 1224ERGO    R117198   9.699   6.437   6.893  0.1812 -0.0405  0.0271
 1224ERGO    R217199   9.477   6.529   7.031  0.1492 -0.0249 -0.0412
 1224ERGO    R317200   9.563   6.353   7.220 -0.0135 -0.1473 -0.0783
 1224ERGO    R417201   9.416   6.557   7.370  0.1387 -0.0566 -0.0400
 1224ERGO    R517202   9.620   6.490   7.408  0.0843 -0.2377 -0.0377
 1224ERGO    C117203   9.461   6.408   7.745 -0.0200 -0.1899 -0.0741
 1224ERGO    C217204   9.240   6.409   8.026 -0.4397 -0.1431  0.2128
 1225ERGO   ROH17205  13.209  11.224   6.420  0.2838 -0.2052 -0.0146
 1225ERGO    R117206  13.076  11.358   6.632  0.4375 -0.0124 -0.0406
 1225ERGO    R217207  12.928  11.224   6.823  0.0730  0.2149 -0.1742
 1225ERGO    R317208  13.091  11.356   6.995  0.2423 -0.1628 -0.0272
 1225ERGO    R417209  12.880  11.243   7.165 -0.3726  0.5140 -0.2435
 1225ERGO    R517210  12.942  11.452   7.156  0.2606  0.3638 -0.2837
 1225ERGO    C117211  13.005  11.379   7.525 -0.4731  0.3336 -0.1459
 1225ERGO    C217212  13.194  11.445   7.837  0.0410  0.1212 -0.0589
 1226ERGO   ROH17213   5.384  15.439   6.279 -0.1844  0.2141 -0.0777
 1226ERGO    R117214   5.475  15.516   6.536 -0.0593  0.2119 -0.1216
 1226ERGO    R217215   5.421  15.765   6.644 -0.1584  0.1443 -0.0238
 1226ERGO    R317216   5.323  15.618   6.850  0.0896  0.0253  0.0140
 1226ERGO    R417217   5.457  15.845   6.978 -0.2248  0.2578 -0.0427
 1226ERGO    R517218   5.492  15.634   7.020  0.0993  0.3064 -0.0135
 1226ERGO    C117219   5.386  15.754   7.366 -0.0306  0.2120 -0.0183
 1226ERGO    C217220   5.353  15.784   7.758 -0.2019 -0.1938  0.3538
 1227ERGO   ROH17221  17.002   4.060   6.180  0.1297 -0.0876  0.0718
 1227ERGO    R117222  16.982   4.077   6.462  0.1988 -0.0746  0.0766
 1227ERGO    R217223  16.836   3.897   6.612 -0.0147  0.1036  0.0928
 1227ERGO    R317224  17.071   3.868   6.747 -0.0238 -0.2081  0.0494
 1227ERGO    R417225  16.868   3.759   6.927 -0.1637  0.2301  0.1639
 1227ERGO    R517226  17.014   3.913   6.975  0.1060  0.0179  0.0384
 1227ERGO    C117227  17.106   3.652   7.237 -0.2590  0.0113  0.1646
 1227ERGO    C217228  17.096   3.462   7.559  0.0704 -0.1190  0.1531
 1228ERGO   ROH17229  12.473   7.524   6.562  0.1194  0.1828 -0.0564
 1228ERGO    R117230  12.434   7.606   6.830  0.2079  0.2658 -0.0684
 1228ERGO    R217231  12.307   7.842   6.897 -0.3048  0.0125 -0.1027
 1228ERGO    R317232  12.149   7.679   7.045  0.2425 -0.2863  0.1846
 1228ERGO    R417233  12.172   7.923   7.204 -0.5235  0.0947 -0.2178
 1228ERGO    R517234  12.215   7.720   7.271  0.1599  0.3135  0.1179
 1228ERGO    C117235  11.945   7.817   7.523 -0.1369 -0.1379 -0.0151
 1228ERGO    C217236  11.695   7.923   7.710  0.1226 -0.0437 -0.2194
 1229ERGO   ROH17237   1.689   4.806   6.273 -0.0114  0.2994  0.2131
 1229ERGO    R117238   1.810   4.675   6.492  0.0080  0.1957  0.1411
 1229ERGO    R217239   1.921   4.812   6.704  0.0639  0.0966  0.1769
 1229ERGO    R317240   1.755   4.654   6.851  0.0669  0.0623  0.1431
 1229ERGO    R417241   1.884   4.830   7.048  0.0831  0.0064  0.1836
 1229ERGO    R517242   1.877   4.612   7.053  0.0767  0.0047  0.1255
 1229ERGO    C117243   1.707   4.692   7.385  0.0971 -0.0783  0.1559
 1229ERGO    C217244   1.567   4.717   7.756 -0.2199 -0.1902  0.2141
 1230ERGO   ROH17245   9.971   5.056   6.899  0.1366 -0.0986 -0.1889
 1230ERGO    R117246   9.961   4.795   7.008  0.1699 -0.0894 -0.1627
 1230ERGO    R217247  10.188   4.643   7.052  0.2067  0.0201  0.0411
 1230ERGO    R317248  10.088   4.627   7.305  0.0091  0.0096 -0.0364
 1230ERGO    R417249  10.280   4.405   7.285  0.2100  0.1597  0.1839
 1230ERGO    R517250  10.071   4.391   7.346  0.1687  0.0057  0.0127
 1230ERGO    C117251  10.240   4.250   7.657  0.0264  0.2311  0.1944
 1230ERGO    C217252  10.169   4.122   7.842  0.0247  0.1765  0.0792
 1231ERGO   ROH17253  10.599   9.456   6.578  0.0351  0.4056  0.3887
 1231ERGO    R117254  10.615   9.185   6.659 -0.1982  0.3297  0.1896
 1231ERGO    R217255  10.838   9.081   6.785 -0.1340 -0.0471 -0.2231
 1231ERGO    R317256  10.656   9.005   6.972  0.0545  0.0767  0.0175
 1231ERGO    R417257  10.899   8.854   7.039  0.0808 -0.0162 -0.2439
 1231ERGO    R517258  10.699   8.772   7.006 -0.0031  0.0615  0.0143
 1231ERGO    C117259  10.763   8.651   7.362  0.3829  0.1177 -0.0300
 1231ERGO    C217260  10.998   8.541   7.574  0.0849 -0.2260  0.1530
 1232ERGO   ROH17261  10.740   9.390   8.374  0.1957 -0.2175 -0.1460
 1232ERGO    R117262  10.701   9.110   8.377  0.0607 -0.2000 -0.2150
 1232ERGO    R217263  10.528   8.986   8.553  0.1610 -0.1773 -0.1018
 1232ERGO    R317264  10.423   8.881   8.326 -0.1020 -0.0445 -0.0461
 1232ERGO    R417265  10.411   8.662   8.521  0.1297 -0.1611 -0.1553
 1232ERGO    R517266  10.502   8.654   8.323 -0.0979 -0.0437 -0.2697
 1232ERGO    C117267  10.244   8.375   8.289 -0.1355 -0.0271 -0.1342
 1232ERGO    C217268   9.908   8.304   8.283 -0.0303  0.3226  0.1623
 1233ERGO   ROH17269   3.826   6.084   6.177 -0.1532 -0.2019  0.0518
 1233ERGO    R117270   3.696   6.026   6.422 -0.3100 -0.0390  0.0098
 1233ERGO    R217271   3.819   5.885   6.626 -0.5387 -0.1575  0.0705
 1233ERGO    R317272   3.750   6.102   6.774 -0.3569 -0.0654  0.0223
 1233ERGO    R417273   3.844   5.906   6.970 -0.0785  0.0741  0.0304
 1233ERGO    R517274   3.653   6.011   6.972 -0.0847  0.0585  0.2172
 1233ERGO    C117275   3.794   6.123   7.309  0.3602  0.2953 -0.0381
 1233ERGO    C217276   3.712   6.182   7.680 -0.0824  0.2191  0.1213
 1234ERGO   ROH17277   9.532   8.143   6.396 -0.1974  0.2130 -0.0355
 1234ERGO    R117278   9.481   8.185   6.671 -0.3976  0.1445 -0.0622
 1234ERGO    R217279   9.289   8.045   6.810 -0.0501 -0.3695 -0.0888
 1234ERGO    R317280   9.496   7.988   6.977  0.0748  0.2535 -0.0039
 1234ERGO    R417281   9.256   7.977   7.147 -0.0298 -0.6417 -0.1374
 1234ERGO    R517282   9.436   8.096   7.183 -0.4261 -0.0240  0.0200
 1234ERGO    C117283   9.431   7.885   7.501  0.0993 -0.2153 -0.0860
 1234ERGO    C217284   9.249   7.747   7.839 -0.2572  0.4062 -0.1093
 1235ERGO   ROH17285   9.038  16.585   5.921 -0.1798 -0.0908  0.2186
 1235ERGO    R117286   9.099  16.737   6.153 -0.1363 -0.2127  0.2872
 1235ERGO    R217287   8.993  16.988   6.198  0.2383 -0.0382  0.2085
 1235ERGO    R317288   8.915  16.877   6.433 -0.1636  0.0700  0.1333
 1235ERGO    R417289   8.891  17.165   6.477  0.5352  0.1393  0.2091
 1235ERGO    R517290   9.001  17.024   6.601  0.1289 -0.1884  0.2242
 1235ERGO    C117291   8.758  17.164   6.859  0.3307  0.3443  0.1389
 1235ERGO    C217292   8.703  17.069   7.177  0.3964  0.3838 -0.2441
 1236ERGO   ROH17293  12.954  13.164   6.042 -0.0000  0.0479  0.0560
 1236ERGO    R117294  12.870  13.146   6.312 -0.0536 -0.1747  0.0257
 1236ERGO    R217295  12.868  12.907   6.452  0.3646 -0.2122 -0.0247
 1236ERGO    R317296  13.018  13.048   6.629  0.0358  0.0439  0.0516
 1236ERGO    R417297  12.886  12.843   6.791  0.5115 -0.3707 -0.0613
 1236ERGO    R517298  12.884  13.058   6.827  0.0056 -0.3877  0.0597
 1236ERGO    C117299  13.037  12.937   7.155  0.2884 -0.2226 -0.0108
 1236ERGO    C217300  12.939  12.793   7.451 -0.1979 -0.1721 -0.2047
 1237ERGO   ROH17301   0.440   9.538   6.069 -0.0060 -0.2079 -0.1300
 1237ERGO    R117302   0.305   9.469   6.308  0.0527 -0.1242 -0.0715
 1237ERGO    R217303   0.031   9.494   6.337  0.0744  0.0157  0.0359
 1237ERGO    R317304   0.047   9.231   6.407 -0.0290  0.0118  0.0448
 1237ERGO    R417305  -0.124   9.352   6.612 -0.1911  0.0327 -0.1023
 1237ERGO    R517306   0.056   9.234   6.646 -0.2397  0.0035  0.0535
 1237ERGO    C117307  -0.199   9.024   6.837 -0.4427  0.0389 -0.1744
 1237ERGO    C217308  -0.202   8.956   7.079  0.1370 -0.2487 -0.2672
 1238ERGO   ROH17309  10.694  15.035   6.555  0.4711  0.2158 -0.1584
 1238ERGO    R117310  10.578  15.038   6.813  0.2113  0.2277 -0.2711
 1238ERGO    R217311  10.729  15.029   7.045 -0.0276 -0.0014 -0.1154
 1238ERGO    R317312  10.591  15.255   7.106  0.1223  0.1080 -0.1784
 1238ERGO    R417313  10.668  15.142   7.365  0.0300  0.1198 -0.1476
 1238ERGO    R517314  10.467  15.197   7.302  0.0718  0.2414 -0.1720
 1238ERGO    C117315  10.502  15.421   7.609  0.2045  0.2930 -0.2255
 1238ERGO    C217316  10.566  15.588   7.983 -0.1872 -0.0860 -0.0934
 1239ERGO   ROH17317  10.550  16.919   6.351  0.2018  0.0662 -0.0136
 1239ERGO    R117318  10.492  16.767   6.583  0.3676  0.0266  0.0007
 1239ERGO    R217319  10.678  16.726   6.784  0.3311  0.4736  0.1225
 1239ERGO    R317320  10.480  16.826   6.942  0.0254  0.1261 -0.0210
 1239ERGO    R417321  10.677  16.714   7.129  0.2600  0.7176  0.1341
 1239ERGO    R517322  10.464  16.669   7.122  0.3483  0.1974  0.0877
 1239ERGO    C117323  10.492  16.801   7.479 -0.0684  0.5334  0.0061
 1239ERGO    C217324  10.355  16.888   7.695 -0.0028  0.1389  0.3900
 1240ERGO   ROH17325   1.822   2.474   6.145  0.0560 -0.0628 -0.0333
 1240ERGO    R117326   1.917   2.325   6.366  0.0829  0.0901  0.0609
 1240ERGO    R217327   2.045   2.082   6.337 -0.1265 -0.0491  0.2272
 1240ERGO    R317328   2.240   2.203   6.483  0.0659 -0.0418 -0.0311
 1240ERGO    R417329   2.300   1.917   6.502 -0.1324 -0.0635  0.2201
 1240ERGO    R517330   2.276   2.056   6.668  0.0864  0.1243  0.0948
 1240ERGO    C117331   2.632   1.935   6.735  0.0448 -0.0649 -0.0266
 1240ERGO    C217332   2.973   1.850   6.763 -0.1135 -0.2268 -0.2200
 1241ERGO   ROH17333   9.325   0.179   6.211  0.1470  0.0258 -0.1432
 1241ERGO    R117334   9.254   0.310   6.452  0.2491  0.1188 -0.1614
 1241ERGO    R217335   9.019   0.256   6.588  0.1646  0.3765 -0.1879
 1241ERGO    R317336   9.188   0.211   6.796  0.0937  0.2079 -0.1669
 1241ERGO    R417337   8.934   0.287   6.921  0.0393  0.0218 -0.1837
 1241ERGO    R517338   9.129   0.377   6.958 -0.0002  0.0288 -0.0199
 1241ERGO    C117339   9.044   0.263   7.311 -0.1003 -0.3431 -0.1615
 1241ERGO    C217340   8.969   0.178   7.618 -0.1767 -0.0520 -0.1119
 1242ERGO   ROH17341  14.845  13.425   6.225 -0.1965 -0.3224  0.1751
 1242ERGO    R117342  14.866  13.597   6.449 -0.1409 -0.1775  0.0610
 1242ERGO    R217343  14.647  13.675   6.598 -0.1046 -0.0850  0.0694
 1242ERGO    R317344  14.794  13.577   6.805 -0.0490  0.0481  0.0935
 1242ERGO    R417345  14.622  13.781   6.926 -0.0369  0.1006  0.0156
 1242ERGO    R517346  14.839  13.768   6.942 -0.0339  0.1296 -0.0262
 1242ERGO    C117347  14.745  13.751   7.311  0.0550  0.3334  0.0070
 1242ERGO    C217348  14.685  13.465   7.537  0.0999 -0.0129 -0.0903
 1243ERGO   ROH17349  15.158  12.540   6.386  0.1841  0.0558 -0.0775
 1243ERGO    R117350  15.051  12.656   6.621  0.1242  0.0156 -0.0844
 1243ERGO    R217351  14.905  12.511   6.806  0.2103 -0.0521 -0.0683
 1243ERGO    R317352  15.090  12.609   6.980  0.1605  0.0669 -0.0816
 1243ERGO    R417353  14.861  12.541   7.148  0.1988 -0.0349 -0.0712
 1243ERGO    R517354  14.962  12.733   7.140  0.0968  0.0185 -0.0949
 1243ERGO    C117355  15.009  12.649   7.510  0.1453  0.0870 -0.0855
 1243ERGO    C217356  15.038  12.779   7.776 -0.0174  0.2425  0.1060
 1244ERGO   ROH17357  11.867   3.255   6.019  0.0886 -0.0327  0.0517
 1244ERGO    R117358  11.998   3.275   6.269  0.0992  0.0571  0.0400
 1244ERGO    R217359  11.981   3.501   6.428 -0.0859  0.0277  0.0679
 1244ERGO    R317360  11.898   3.322   6.616  0.0927 -0.0694  0.0554
 1244ERGO    R417361  12.029   3.535   6.769 -0.0098 -0.0111  0.0607
 1244ERGO    R517362  12.073   3.322   6.779  0.1408  0.0170  0.0035
 1244ERGO    C117363  11.979   3.388   7.143  0.2022 -0.1250  0.0448
 1244ERGO    C217364  11.936   3.386   7.526  0.2889  0.1474 -0.6233
 1245ERGO   ROH17365   3.134   5.005   6.247 -0.0216 -0.1975  0.0415
 1245ERGO    R117366   3.307   5.031   6.469 -0.1154  0.0239  0.0893
 1245ERGO    R217367   3.222   5.126   6.714 -0.3057 -0.0883  0.0596
 1245ERGO    R317368   3.329   4.893   6.805 -0.0266  0.0485  0.0964
 1245ERGO    R417369   3.398   5.092   7.010 -0.5651  0.1165  0.2442
 1245ERGO    R517370   3.536   4.959   6.906 -0.2293  0.3625  0.3416
 1245ERGO    C117371   3.601   4.854   7.267 -0.4541  0.3643  0.3861
 1245ERGO    C217372   3.784   5.025   7.527 -0.1459  0.0346  0.0725
 1246ERGO   ROH17373   5.587   2.149   6.537 -0.2076  0.0078  0.0382
 1246ERGO    R117374   5.650   2.162   6.812 -0.0741 -0.1508  0.0163
 1246ERGO    R217375   5.516   2.327   6.988  0.2034 -0.0336  0.1214
 1246ERGO    R317376   5.479   2.096   7.126 -0.0246 -0.0304  0.0695
 1246ERGO    R417377   5.495   2.305   7.332  0.1873 -0.0886  0.1173
 1246ERGO    R517378   5.614   2.122   7.322  0.0071 -0.2078  0.0741
 1246ERGO    C117379   5.448   2.075   7.663 -0.0362 -0.1176  0.0661
 1246ERGO    C217380   5.556   2.149   8.056  0.2575 -0.1751  0.0715
 1247ERGO   ROH17381  15.587   0.650   6.171  0.0725 -0.0234 -0.0321
 1247ERGO    R117382  15.718   0.738   6.406  0.0358  0.1035 -0.0589
 1247ERGO    R217383  15.584   0.862   6.614 -0.0302  0.0328 -0.0619
 1247ERGO    R317384  15.699   0.665   6.762  0.1310  0.1375 -0.0459
 1247ERGO    R417385  15.607   0.862   6.959 -0.1319  0.0333 -0.0547
 1247ERGO    R517386  15.809   0.782   6.940 -0.0393  0.2410 -0.0044
 1247ERGO    C117387  15.729   0.678   7.299 -0.0399  0.1319 -0.0355
 1247ERGO    C217388  15.653   0.570   7.714  0.0957  0.1517  0.0144
 1248ERGO   ROH17389   9.063   4.111   6.640 -0.1591 -0.0790  0.1356
 1248ERGO    R117390   9.011   4.080   6.917 -0.1393 -0.0036  0.1488
 1248ERGO    R217391   9.166   3.921   7.080 -0.1912 -0.0486  0.1618
 1248ERGO    R317392   9.187   4.148   7.228 -0.0662 -0.0277  0.1114
 1248ERGO    R417393   9.199   3.930   7.424 -0.0131  0.0130  0.1436
 1248ERGO    R517394   9.063   4.101   7.427  0.0283  0.0395  0.1832
 1248ERGO    C117395   9.238   4.149   7.763  0.2079  0.0684  0.0857
 1248ERGO    C217396   9.237   4.108   8.127 -0.0406 -0.1974 -0.0780
 1249ERGO   ROH17397   2.378   3.834   6.016  0.1082 -0.1737  0.0347
 1249ERGO    R117398   2.526   3.852   6.256  0.1163 -0.1893  0.0321
 1249ERGO    R217399   2.653   4.085   6.335  0.2490 -0.2344 -0.0314
 1249ERGO    R317400   2.508   4.048   6.563  0.2201 -0.0905 -0.0251
 1249ERGO    R417401   2.744   4.200   6.648  0.2864 -0.1810 -0.0624
 1249ERGO    R517402   2.673   4.012   6.733  0.1909 -0.1172 -0.0056
 1249ERGO    C117403   2.661   4.232   7.044  0.2812 -0.0148 -0.0746
 1249ERGO    C217404   2.777   4.373   7.382 -0.2454 -0.1172 -0.3740
 1250ERGO   ROH17405  15.832  13.765   6.515  0.3513 -0.1511  0.0657
 1250ERGO    R117406  15.871  13.894   6.764  0.2774 -0.0363  0.0178
 1250ERGO    R217407  15.697  13.863   6.977  0.2746 -0.0236  0.0124
 1250ERGO    R317408  15.924  13.792   7.109  0.2920  0.1241  0.0651
 1250ERGO    R417409  15.735  13.869   7.320  0.0949 -0.2368  0.0391
 1250ERGO    R517410  15.937  13.947   7.292  0.0312  0.0094  0.1914
 1250ERGO    C117411  15.970  13.806   7.645  0.0066 -0.2223  0.1040
 1250ERGO    C217412  16.132  13.868   7.968 -0.3121 -0.0518  0.0276
 1251ERGO   ROH17413  17.954  13.665   6.078 -0.1249  0.0976 -0.0200
 1251ERGO    R117414  18.038  13.584   6.336 -0.2484 -0.0527 -0.0261
 1251ERGO    R217415  18.157  13.757   6.515  0.0018 -0.2433 -0.0080
 1251ERGO    R317416  17.959  13.671   6.680 -0.1281  0.0293 -0.0174
 1251ERGO    R417417  18.181  13.740   6.859 -0.0454 -0.2234 -0.0037
 1251ERGO    R517418  18.074  13.550   6.853 -0.2903 -0.0955  0.0107
 1251ERGO    C117419  18.009  13.651   7.215 -0.1952  0.0439 -0.0102
 1251ERGO    C217420  18.141  13.719   7.407 -0.5683  0.0261  0.0267
 1252ERGO   ROH17421   8.376   2.967   6.313 -0.3897  0.2310  0.0251
 1252ERGO    R117422   8.519   2.919   6.553 -0.1867  0.0891 -0.1204
 1252ERGO    R217423   8.606   3.124   6.717 -0.0128 -0.0049 -0.0910
 1252ERGO    R317424   8.470   2.985   6.907  0.1304 -0.0798 -0.0422
 1252ERGO    R417425   8.688   3.118   7.053  0.0240  0.1567 -0.0966
 1252ERGO    R517426   8.641   2.905   7.055  0.2178  0.1134 -0.0360
 1252ERGO    C117427   8.608   2.984   7.427  0.1800  0.1803 -0.0541
 1252ERGO    C217428   8.694   3.026   7.725  0.1263 -0.3661  0.0648
 1253ERGO   ROH17429   2.851  11.389   6.249  0.0724 -0.2019 -0.1139
 1253ERGO    R117430   2.917  11.447   6.518  0.1000 -0.1574 -0.1300
 1253ERGO    R217431   2.726  11.470   6.717  0.1115 -0.0283 -0.1315
 1253ERGO    R317432   2.878  11.283   6.841  0.0388 -0.0579 -0.0869
 1253ERGO    R417433   2.715  11.398   7.055  0.0373  0.0064 -0.1261
 1253ERGO    R517434   2.932  11.380   7.053  0.0310 -0.0537 -0.0882
 1253ERGO    C117435   2.853  11.180   7.368 -0.0741 -0.0013 -0.0811
 1253ERGO    C217436   2.707  10.989   7.569  0.0395  0.0741  0.7015
 1254ERGO   ROH17437  17.575   4.772   6.548  0.2085 -0.0240 -0.0574
 1254ERGO    R117438  17.673   4.665   6.791  0.1337  0.0469  0.0033
 1254ERGO    R217439  17.648   4.798   7.032 -0.1324  0.0199 -0.0096
 1254ERGO    R317440  17.532   4.565   7.112  0.0018 -0.0773 -0.0913
 1254ERGO    R417441  17.591   4.708   7.361 -0.3162 -0.0091 -0.0472
 1254ERGO    R517442  17.651   4.505   7.310 -0.1003  0.0360  0.0081
 1254ERGO    C117443  17.450   4.437   7.627 -0.2974 -0.1173 -0.1458
 1254ERGO    C217444  17.387   4.355   8.130 -0.1753 -0.0705 -0.0358
 1255ERGO   ROH17445  12.052  12.087   6.730  0.0734  0.0023 -0.1240
 1255ERGO    R117446  12.212  12.075   6.963 -0.0165 -0.2608 -0.0729
 1255ERGO    R217447  12.255  12.295   7.125  0.3651 -0.3022 -0.1158
 1255ERGO    R317448  12.164  12.128   7.320 -0.0240 -0.0842 -0.0978
 1255ERGO    R417449  12.273  12.359   7.465  0.5265 -0.3043 -0.1222
 1255ERGO    R517450  12.325  12.150   7.496  0.0442 -0.4385 -0.1047
 1255ERGO    C117451  12.198  12.239   7.845  0.2553 -0.1008 -0.1091
 1255ERGO    C217452  11.972  12.092   8.177 -0.0986 -0.2172  0.3567
 1256ERGO   ROH17453  12.360  14.090   6.456 -0.1831  0.2488  0.0055
 1256ERGO    R117454  12.407  13.934   6.687 -0.0260  0.1472 -0.0934
 1256ERGO    R217455  12.551  14.028   6.903 -0.2337  0.2078  0.0184
 1256ERGO    R317456  12.329  13.957   7.042 -0.1769 -0.2269 -0.0973
 1256ERGO    R417457  12.547  13.933   7.236 -0.2262  0.3002  0.0455
 1256ERGO    R517458  12.401  13.779   7.185  0.1237 -0.0360 -0.0002
 1256ERGO    C117459  12.335  13.811   7.559 -0.1686 -0.0542 -0.0473
 1256ERGO    C217460  12.277  13.644   7.886 -0.2709 -0.2453 -0.1510
 1257ERGO   ROH17461  10.654   6.031   6.688  0.1165  0.1073  0.0736
 1257ERGO    R117462  10.583   6.189   6.912  0.3167  0.1805  0.0848
 1257ERGO    R217463  10.408   6.101   7.106  0.1283  0.4257  0.0170
 1257ERGO    R317464  10.613   6.162   7.274  0.1859  0.0665  0.0908
 1257ERGO    R417465  10.381   6.122   7.451  0.0114  0.5171  0.0047
 1257ERGO    R517466  10.511   6.297   7.445  0.3528  0.2877  0.0304
 1257ERGO    C117467  10.559   6.192   7.808 -0.0027  0.2330  0.0670
 1257ERGO    C217468  10.632   6.183   8.106 -0.2147  0.1997  0.0693
 1258ERGO   ROH17469   8.968   7.097   6.174 -0.3136  0.0995  0.0423
 1258ERGO    R117470   9.028   7.155   6.445 -0.3396  0.1442  0.0394
 1258ERGO    R217471   8.836   7.146   6.645 -0.2799 -0.2150  0.0914
 1258ERGO    R317472   9.015   6.978   6.763  0.0354  0.0517  0.0062
 1258ERGO    R417473   8.869   7.098   6.986 -0.0939 -0.2287  0.0716
 1258ERGO    R517474   9.085   7.094   6.960 -0.0914  0.1295  0.0038
 1258ERGO    C117475   9.056   6.913   7.294  0.3104  0.0136 -0.0198
 1258ERGO    C217476   9.095   6.725   7.649 -0.0151 -0.1972  0.0156
 1259ERGO   ROH17477  14.136   1.428   5.834  0.2783 -0.0009  0.1095
 1259ERGO    R117478  14.024   1.440   6.094  0.1109 -0.1015  0.0447
 1259ERGO    R217479  14.110   1.277   6.299  0.0944 -0.0697  0.0837
 1259ERGO    R317480  14.143   1.513   6.430 -0.1391 -0.0580  0.1240
 1259ERGO    R417481  14.154   1.309   6.641  0.2019 -0.0896  0.0708
 1259ERGO    R517482  14.024   1.484   6.636 -0.0139 -0.2490  0.1677
 1259ERGO    C117483  14.212   1.549   6.962  0.0456 -0.0903  0.1011
 1259ERGO    C217484  14.356   1.580   7.257 -0.2356  0.2781 -0.2571
 1260ERGO   ROH17485  16.206  12.023   6.335 -0.0690  0.2390  0.0896
 1260ERGO    R117486  16.148  12.176   6.566 -0.1920  0.0977  0.1552
 1260ERGO    R217487  15.965  12.094   6.756 -0.0942 -0.1549  0.1519
 1260ERGO    R317488  16.174  12.131   6.927 -0.1039 -0.0161  0.1338
 1260ERGO    R417489  15.945  12.253   7.063 -0.1642 -0.1642  0.1513
 1260ERGO    R517490  16.137  12.348   7.021 -0.2325 -0.0417  0.1349
 1260ERGO    C117491  16.129  12.379   7.401 -0.2141 -0.0392  0.1341
 1260ERGO    C217492  16.273  12.469   7.676  0.2139 -0.2591  0.2271
 1261ERGO   ROH17493   0.752  15.348   5.747 -0.0812  0.0194 -0.0946
 1261ERGO    R117494   0.807  15.380   6.023  0.0167 -0.1215 -0.0976
 1261ERGO    R217495   0.638  15.517   6.194  0.1946 -0.0050 -0.0172
 1261ERGO    R317496   0.649  15.286   6.336 -0.0031 -0.0606 -0.0881
 1261ERGO    R417497   0.634  15.496   6.538  0.1477 -0.1048 -0.0229
 1261ERGO    R517498   0.783  15.339   6.526  0.0257 -0.2241 -0.0586
 1261ERGO    C117499   0.642  15.267   6.873 -0.0652 -0.2149 -0.0927
 1261ERGO    C217500   0.773  14.988   7.173 -0.1454 -0.0822 -0.1350
 1262ERGO   ROH17501   3.494  13.119   6.395  0.0494  0.1694 -0.0307
 1262ERGO    R117502   3.326  13.135   6.622 -0.0417  0.0872 -0.0911
 1262ERGO    R217503   3.141  12.939   6.684  0.1009 -0.0558 -0.1027
 1262ERGO    R317504   3.270  12.938   6.923  0.0241  0.1169 -0.0596
 1262ERGO    R417505   3.014  12.806   6.977  0.0876 -0.0192 -0.0924
 1262ERGO    R517506   3.097  12.977   7.084 -0.0517  0.0741 -0.1311
 1262ERGO    C117507   3.061  12.728   7.372  0.0077  0.1643 -0.0458
 1262ERGO    C217508   2.761  12.576   7.532  0.1760 -0.1672  0.1013
 1263ERGO   ROH17509   5.840  13.878   6.192  0.0754 -0.2853 -0.1087
 1263ERGO    R117510   5.751  13.841   6.459 -0.0077 -0.1757 -0.1194
 1263ERGO    R217511   5.926  13.815   6.672 -0.0702 -0.1509 -0.0590
 1263ERGO    R317512   5.780  14.020   6.774 -0.0470 -0.0780 -0.1727
 1263ERGO    R417513   5.902  13.893   7.007 -0.2091 -0.0640 -0.0892
 1263ERGO    R517514   5.690  13.934   6.978 -0.1763  0.0036 -0.1983
 1263ERGO    C117515   5.750  14.131   7.299 -0.2683  0.0549 -0.2135
 1263ERGO    C217516   5.928  14.111   7.694  0.0117 -0.0371  0.2240
 1264ERGO   ROH17517   6.603  11.222   6.480  0.1934 -0.0940  0.0809
 1264ERGO    R117518   6.456  11.298   6.709  0.2184 -0.0396  0.0797
 1264ERGO    R217519   6.277  11.129   6.834  0.1038  0.0480  0.0398
 1264ERGO    R317520   6.427  11.185   7.054  0.1205 -0.0750  0.0597
 1264ERGO    R417521   6.206  11.021   7.155 -0.0330  0.1126  0.0313
 1264ERGO    R517522   6.267  11.217   7.229  0.1220  0.0631  0.0361
 1264ERGO    C117523   6.306  11.011   7.548 -0.0970  0.0347  0.0452
 1264ERGO    C217524   6.436  10.917   7.850 -0.0415  0.0218  0.0416
 1265ERGO   ROH17525  11.660   9.953   6.643 -0.0549 -0.0968 -0.1431
 1265ERGO    R117526  11.628   9.871   6.912 -0.1816  0.0538 -0.1124
 1265ERGO    R217527  11.819   9.724   7.047 -0.3973 -0.1681 -0.0531
 1265ERGO    R317528  11.801   9.927   7.228 -0.1119 -0.0712 -0.1261
 1265ERGO    R417529  11.955   9.719   7.365 -0.4120 -0.2639 -0.0474
 1265ERGO    R517530  11.775   9.816   7.439 -0.2832  0.0300 -0.0864
 1265ERGO    C117531  12.018   9.906   7.719 -0.1526 -0.2286 -0.1125
 1265ERGO    C217532  12.210   9.871   7.942 -0.2086  0.1907 -0.1279
 1266ERGO   ROH17533   5.801  17.279   6.299  0.0272  0.0482 -0.0484
 1266ERGO    R117534   5.964  17.398   6.497  0.0286 -0.0101 -0.0146
 1266ERGO    R217535   5.860  17.538   6.712  0.0354  0.0638 -0.0606
 1266ERGO    R317536   6.011  17.364   6.857 -0.0902  0.0066  0.0034
 1266ERGO    R417537   5.938  17.576   7.046 -0.0762  0.0477 -0.0326
 1266ERGO    R517538   6.139  17.505   7.002 -0.0868 -0.0380  0.0457
 1266ERGO    C117539   6.125  17.436   7.377 -0.2590 -0.0153  0.0438
 1266ERGO    C217540   5.925  17.551   7.614  0.0989  0.0722  0.0112
 1267ERGO   ROH17541  17.334  10.659   6.071  0.0847 -0.0469  0.0503
 1267ERGO    R117542  17.348  10.500   6.305  0.0569 -0.0896  0.0251
 1267ERGO    R217543  17.548  10.314   6.349  0.0687 -0.0892  0.0272
 1267ERGO    R317544  17.581  10.453   6.580  0.0175 -0.1194  0.0505
 1267ERGO    R417545  17.719  10.198   6.626  0.0571 -0.0856  0.0341
 1267ERGO    R517546  17.565  10.287   6.752  0.0330 -0.1373  0.0257
 1267ERGO    C117547  17.849  10.261   7.004  0.0022 -0.1119  0.0600
 1267ERGO    C217548  17.968  10.433   7.372  0.3255  0.0546  0.1104
 1268ERGO   ROH17549   0.572   1.009   6.200 -0.0734 -0.1574 -0.0935
 1268ERGO    R117550   0.557   1.131   6.455 -0.0592 -0.1118 -0.1152
 1268ERGO    R217551   0.390   1.037   6.654 -0.0331 -0.0844 -0.0881
 1268ERGO    R317552   0.620   1.031   6.799 -0.0236 -0.0411 -0.0990
 1268ERGO    R417553   0.411   0.944   6.986 -0.0630  0.2373  0.0076
 1268ERGO    R517554   0.555   1.106   7.017  0.0166  0.2114 -0.1651
 1268ERGO    C117555   0.639   0.884   7.316 -0.0715  0.4652  0.0531
 1268ERGO    C217556   0.902   0.786   7.582 -0.0442 -0.0212 -0.0413
 1269ERGO   ROH17557   3.865   3.779   6.176 -0.3256  0.3676 -0.0266
 1269ERGO    R117558   3.972   3.623   6.387 -0.2465  0.1846 -0.1979
 1269ERGO    R217559   4.051   3.733   6.629 -0.1110 -0.0148 -0.1458
 1269ERGO    R317560   3.882   3.547   6.731 -0.0921 -0.0678 -0.2115
 1269ERGO    R417561   4.019   3.658   6.964 -0.1416 -0.1076 -0.1695
 1269ERGO    R517562   4.004   3.448   6.911 -0.1009 -0.0938 -0.2230
 1269ERGO    C117563   3.842   3.439   7.256 -0.1417 -0.2114 -0.2450
 1269ERGO    C217564   3.729   3.258   7.460 -0.2954 -0.3171 -0.0801
 1270ERGO   ROH17565   0.839   8.332   6.153  0.2899 -0.2981 -0.2205
 1270ERGO    R117566   1.008   8.251   6.364  0.1779 -0.1229 -0.0608
 1270ERGO    R217567   1.168   8.429   6.504 -0.0601  0.0270  0.0241
 1270ERGO    R317568   1.040   8.323   6.720 -0.1599 -0.0064 -0.0500
 1270ERGO    R417569   1.208   8.537   6.830 -0.1957 -0.0307  0.0609
 1270ERGO    R517570   1.204   8.329   6.894 -0.2333 -0.0441  0.0228
 1270ERGO    C117571   1.112   8.501   7.222 -0.3683 -0.0957  0.0128
 1270ERGO    C217572   1.107   8.709   7.541 -0.0023 -0.1201 -0.2459
 1271ERGO   ROH17573   7.452   9.716   6.878 -0.1345  0.1542  0.0072
 1271ERGO    R117574   7.427   9.829   7.137 -0.1480  0.1826 -0.0049
 1271ERGO    R217575   7.288   9.705   7.340 -0.1420  0.1901  0.0144
 1271ERGO    R317576   7.521   9.736   7.476 -0.1418  0.2263  0.0027
 1271ERGO    R417577   7.314   9.753   7.682 -0.1054 -0.0327  0.0436
 1271ERGO    R517578   7.471   9.899   7.644 -0.1983  0.0762  0.1234
 1271ERGO    C117579   7.548   9.811   8.007 -0.0840 -0.1285  0.0497
 1271ERGO    C217580   7.368   9.742   8.274  0.3566  0.2760 -0.2435
 1272ERGO   ROH17581   0.019  14.745   5.948 -0.1649  0.1142  0.1153
 1272ERGO    R117582  -0.046  14.693   6.218 -0.1153 -0.1207  0.0863
 1272ERGO    R217583  -0.074  14.437   6.319  0.0634 -0.2199 -0.0866
 1272ERGO    R317584   0.110  14.524   6.500  0.0201 -0.2152 -0.0477
 1272ERGO    R417585  -0.050  14.328   6.646 -0.0452 -0.1409 -0.0532
 1272ERGO    R517586  -0.010  14.532   6.707 -0.0295 -0.1455 -0.0880
 1272ERGO    C117587   0.135  14.346   7.006 -0.1492 -0.0905  0.0029
 1272ERGO    C217588   0.082  14.123   7.236 -0.0566 -0.1910 -0.1901
 1273ERGO   ROH17589  17.322   7.416   6.406  0.2550 -0.0487 -0.0836
 1273ERGO    R117590  17.317   7.383   6.687  0.4284 -0.0810 -0.0826
 1273ERGO    R217591  17.530   7.453   6.849  0.3532  0.3538 -0.1583
 1273ERGO    R317592  17.341   7.599   6.979  0.0887 -0.0421 -0.0789
 1273ERGO    R417593  17.574   7.601   7.158  0.0538  0.1796 -0.0272
 1273ERGO    R517594  17.371   7.542   7.210  0.1278 -0.1840 -0.1167
 1273ERGO    C117595  17.423   7.826   7.460 -0.3689 -0.2935  0.1238
 1273ERGO    C217596  17.594   8.071   7.724  0.0408 -0.1950 -0.0215
 1274ERGO   ROH17597  11.420   2.109   5.645 -0.0682  0.0817 -0.1159
 1274ERGO    R117598  11.333   1.988   5.886 -0.0808  0.0674 -0.1279
 1274ERGO    R217599  11.468   1.776   6.003 -0.0424  0.1178 -0.0855
 1274ERGO    R317600  11.468   1.940   6.220 -0.1403  0.1249 -0.0960
 1274ERGO    R417601  11.499   1.670   6.330 -0.0973  0.1364 -0.0741
 1274ERGO    R517602  11.349   1.817   6.387 -0.1494  0.0992 -0.1210
 1274ERGO    C117603  11.517   1.761   6.725 -0.2214  0.1539 -0.0773
 1274ERGO    C217604  11.575   1.700   7.043 -0.0440  0.1012 -0.3989
 1275ERGO   ROH17605  10.871  13.949   6.437  0.2077 -0.0704 -0.2496
 1275ERGO    R117606  10.951  14.100   6.662 -0.0584 -0.0756 -0.1482
 1275ERGO    R217607  10.822  14.084   6.906 -0.0803 -0.4138 -0.1787
 1275ERGO    R317608  11.071  14.029   6.999 -0.0073 -0.0903 -0.1691
 1275ERGO    R417609  10.926  14.131   7.232 -0.1184 -0.1739 -0.1990
 1275ERGO    R517610  11.116  14.204   7.155 -0.2040  0.0224 -0.2335
 1275ERGO    C117611  11.221  14.107   7.509 -0.0722  0.2695 -0.2017
 1275ERGO    C217612  11.277  14.189   7.862 -0.1680 -0.0911  0.1407
 1276ERGO   ROH17613  10.690  12.481   6.539  0.0180 -0.1168 -0.0696
 1276ERGO    R117614  10.813  12.594   6.767  0.0407 -0.1714 -0.0554
 1276ERGO    R217615  10.680  12.765   6.939  0.0599 -0.2122 -0.0051
 1276ERGO    R317616  10.761  12.586   7.127  0.0772 -0.2538 -0.0507
 1276ERGO    R417617  10.769  12.845   7.263 -0.0168 -0.2909  0.0364
 1276ERGO    R517618  10.932  12.701   7.249  0.0272 -0.2442  0.0151
 1276ERGO    C117619  10.897  12.724   7.628 -0.0454 -0.3758  0.0178
 1276ERGO    C217620  10.954  12.726   7.946  0.1434  0.2114  0.2598
 1277ERGO   ROH17621   4.487  11.130   6.280  0.0670 -0.0062 -0.0396
 1277ERGO    R117622   4.528  11.251   6.533  0.0049 -0.0739  0.0043
 1277ERGO    R217623   4.321  11.347   6.687 -0.0294 -0.0299 -0.0590
 1277ERGO    R317624   4.429  11.185   6.877 -0.1653 -0.1137 -0.0535
 1277ERGO    R417625   4.347  11.426   7.023  0.2152  0.0335 -0.0918
 1277ERGO    R517626   4.545  11.334   7.024  0.0926 -0.2257 -0.1454
 1277ERGO    C117627   4.464  11.319   7.396  0.2300 -0.0082 -0.1057
 1277ERGO    C217628   4.381  11.313   7.749  0.1756  0.0464 -0.2188
 1278ERGO   ROH17629   5.548  12.681   6.349  0.2738 -0.0738 -0.0804
 1278ERGO    R117630   5.517  12.865   6.562  0.1851 -0.0470 -0.1156
 1278ERGO    R217631   5.475  12.784   6.823  0.1777 -0.0164 -0.1079
 1278ERGO    R317632   5.691  12.941   6.873  0.1193  0.0643 -0.1050
 1278ERGO    R417633   5.603  12.848   7.137 -0.0378  0.2824 -0.0763
 1278ERGO    R517634   5.636  13.055   7.076 -0.0338  0.2361 -0.2390
 1278ERGO    C117635   5.882  13.032   7.367 -0.2182  0.5321 -0.0551
 1278ERGO    C217636   5.999  13.200   7.596 -0.1038 -0.0249  0.0815
 1279ERGO   ROH17637  17.457   0.756   5.866 -0.2119  0.0472 -0.0657
 1279ERGO    R117638  17.410   0.746   6.145 -0.1071  0.0687 -0.0462
 1279ERGO    R217639  17.156   0.734   6.252 -0.0683  0.0606  0.0508
 1279ERGO    R317640  17.255   0.514   6.379 -0.0043  0.0784  0.0317
 1279ERGO    R417641  17.095   0.654   6.583  0.2154  0.1832  0.1352
 1279ERGO    R517642  17.304   0.592   6.601  0.2183  0.1390 -0.0367
 1279ERGO    C117643  17.152   0.402   6.895  0.4405  0.2714  0.1665
 1279ERGO    C217644  16.971   0.313   7.234  0.0448  0.0390 -0.2409
 1280ERGO   ROH17645  12.814   1.202   5.748 -0.1955  0.0525 -0.1636
 1280ERGO    R117646  12.681   1.068   5.959 -0.0927  0.1190 -0.0564
 1280ERGO    R217647  12.804   0.875   6.114 -0.0630  0.0613 -0.1589
 1280ERGO    R317648  12.722   1.034   6.319  0.1784  0.0978 -0.0861
 1280ERGO    R417649  12.760   0.769   6.440 -0.2661 -0.0410 -0.2173
 1280ERGO    R517650  12.580   0.893   6.450 -0.0719  0.2561 -0.1738
 1280ERGO    C117651  12.657   0.857   6.822 -0.1577 -0.0664 -0.1830
 1280ERGO    C217652  12.710   0.860   7.162 -0.1293  0.0294  0.1902
 1281ERGO   ROH17653   8.116  13.809   6.121  0.0666  0.2374  0.1013
 1281ERGO    R117654   8.020  13.862   6.382  0.0351  0.0704  0.1241
 1281ERGO    R217655   7.910  13.665   6.543  0.1019 -0.0516  0.0200
 1281ERGO    R317656   8.098  13.751   6.720  0.0615 -0.0696  0.0730
 1281ERGO    R417657   7.886  13.637   6.887  0.0237 -0.0905  0.0120
 1281ERGO    R517658   7.972  13.836   6.904  0.0182 -0.0911  0.0543
 1281ERGO    C117659   8.048  13.701   7.252 -0.0599 -0.1302  0.0571
 1281ERGO    C217660   8.225  13.921   7.468 -0.2128 -0.4683  0.1064
 1282ERGO   ROH17661   7.862   4.500   6.354 -0.0630  0.0582 -0.0858
 1282ERGO    R117662   7.718   4.610   6.572 -0.0697 -0.0562 -0.0307
 1282ERGO    R217663   7.795   4.575   6.835  0.0627  0.0088 -0.0588
 1282ERGO    R317664   7.785   4.846   6.840 -0.1560  0.0025 -0.0599
 1282ERGO    R417665   7.728   4.765   7.116 -0.1000 -0.0452 -0.0604
 1282ERGO    R517666   7.607   4.897   6.992 -0.2032 -0.1416 -0.0653
 1282ERGO    C117667   7.681   5.130   7.285 -0.4000 -0.0826 -0.0624
 1282ERGO    C217668   7.822   5.295   7.611  0.1517 -0.1661 -0.4220
 1283ERGO   ROH17669   4.998   7.419   6.362  0.2141 -0.1796 -0.1056
 1283ERGO    R117670   5.174   7.611   6.473  0.3025 -0.2594 -0.1086
 1283ERGO    R217671   5.098   7.785   6.673  0.2874 -0.0163 -0.3238
 1283ERGO    R317672   5.315   7.682   6.801  0.0764 -0.1241 -0.0376
 1283ERGO    R417673   5.251   7.927   6.949  0.2825  0.1756 -0.4178
 1283ERGO    R517674   5.444   7.875   6.862  0.2805 -0.1947 -0.2235
 1283ERGO    C117675   5.544   7.914   7.228  0.0816  0.1863 -0.2038
 1283ERGO    C217676   5.607   7.953   7.534 -0.0623  0.0104  0.0848
 1284ERGO   ROH17677  15.208   6.002   6.194 -0.1037  0.2741 -0.0048
 1284ERGO    R117678  15.302   5.942   6.454 -0.1659 -0.0062 -0.0439
 1284ERGO    R217679  15.422   6.130   6.616  0.2325 -0.2918  0.0077
 1284ERGO    R317680  15.230   6.054   6.793  0.1120  0.0076  0.0121
 1284ERGO    R417681  15.460   6.130   6.960  0.2706 -0.4268  0.0040
 1284ERGO    R517682  15.351   5.941   6.967 -0.0645 -0.2431 -0.0233
 1284ERGO    C117683  15.302   6.058   7.326  0.1796 -0.2244  0.0059
 1284ERGO    C217684  15.194   6.029   7.611 -0.1520  0.1213 -0.0786
 1285ERGO   ROH17685  11.443   5.658   6.281  0.1180 -0.1044  0.0738
 1285ERGO    R117686  11.645   5.552   6.448  0.0991  0.1420  0.2585
 1285ERGO    R217687  11.625   5.553   6.724 -0.3152 -0.1706  0.2379
 1285ERGO    R317688  11.670   5.286   6.697  0.2759 -0.0666  0.0250
 1285ERGO    R417689  11.716   5.342   6.982 -0.3127 -0.2429  0.1782
 1285ERGO    R517690  11.853   5.242   6.844  0.1343  0.1702  0.2882
 1285ERGO    C117691  11.810   4.969   7.107  0.2437 -0.1874 -0.0565
 1285ERGO    C217692  11.903   4.829   7.356  0.1374 -0.3009 -0.1102
 1286ERGO   ROH17693   0.284  12.484   6.133 -0.1055  0.0495 -0.0958
 1286ERGO    R117694   0.170  12.611   6.359 -0.1344  0.0176 -0.0924
 1286ERGO    R217695   0.075  12.470   6.578 -0.0673 -0.0081 -0.0802
 1286ERGO    R317696   0.244  12.634   6.714 -0.1155  0.0584 -0.0985
 1286ERGO    R417697   0.104  12.485   6.922 -0.0312 -0.0008 -0.0836
 1286ERGO    R517698   0.121  12.700   6.908 -0.1192  0.0069 -0.0828
 1286ERGO    C117699   0.280  12.647   7.250 -0.0555  0.0658 -0.1029
 1286ERGO    C217700   0.219  12.637   7.683 -0.3100  0.1445 -0.0575
 1287ERGO   ROH17701  13.506   3.397   5.959 -0.2630  0.1727  0.0092
 1287ERGO    R117702  13.458   3.502   6.218 -0.0287  0.1304  0.0690
 1287ERGO    R217703  13.297   3.374   6.403  0.1016  0.1325  0.1668
 1287ERGO    R317704  13.518   3.396   6.561  0.2282  0.0561  0.0076
 1287ERGO    R417705  13.308   3.298   6.740  0.2631  0.2406  0.1894
 1287ERGO    R517706  13.433   3.473   6.771  0.4011  0.1883  0.0427
 1287ERGO    C117707  13.521   3.273   7.084  0.4760  0.2319  0.0530
 1287ERGO    C217708  13.303   3.058   7.306 -0.2131  0.1788  0.0546
 1288ERGO   ROH17709   6.878  15.842   6.224  0.0884  0.0855  0.0783
 1288ERGO    R117710   6.886  15.778   6.499  0.1751  0.0909  0.0750
 1288ERGO    R217711   7.100  15.646   6.615  0.1876  0.0630  0.0004
 1288ERGO    R317712   7.100  15.859   6.783  0.2843  0.0598  0.0039
 1288ERGO    R417713   7.172  15.631   6.952 -0.0697 -0.0279  0.0548
 1288ERGO    R517714   7.011  15.773   6.988  0.0452  0.1391 -0.0602
 1288ERGO    C117715   7.214  15.823   7.307 -0.1288 -0.0840  0.0896
 1288ERGO    C217716   7.183  15.821   7.629 -0.0739 -0.2766  0.1802
 1289ERGO   ROH17717   2.431   0.986   5.977  0.2869 -0.2454 -0.3445
 1289ERGO    R117718   2.509   0.781   6.156  0.2045 -0.0968 -0.1340
 1289ERGO    R217719   2.532   0.822   6.428 -0.0158  0.1077 -0.1410
 1289ERGO    R317720   2.362   0.610   6.442  0.0281  0.0739 -0.1215
 1289ERGO    R417721   2.458   0.645   6.716 -0.1265  0.2369 -0.0894
 1289ERGO    R517722   2.463   0.462   6.599 -0.0207  0.1788  0.0087
 1289ERGO    C117723   2.255   0.344   6.896 -0.1498  0.2804 -0.0411
 1289ERGO    C217724   2.265   0.243   7.254 -0.0004  0.1353 -0.2727
 1290ERGO   ROH17725   9.283  11.999   6.538 -0.0409  0.0158  0.0163
 1290ERGO    R117726   9.354  12.127   6.780  0.1281 -0.1220  0.0422
 1290ERGO    R217727   9.179  12.149   6.993  0.1065  0.1728 -0.0007
 1290ERGO    R317728   9.384  12.033   7.130 -0.1261 -0.2027  0.0442
 1290ERGO    R417729   9.220  12.163   7.336  0.1900  0.3180 -0.0159
 1290ERGO    R517730   9.434  12.190   7.304  0.2564 -0.1884 -0.0705
 1290ERGO    C117731   9.436  12.063   7.664  0.0201  0.0497  0.0174
 1290ERGO    C217732   9.686  11.964   7.809  0.1858  0.0153  0.0117
 1291ERGO   ROH17733  11.501  16.517   6.218  0.0052  0.0505  0.0516
 1291ERGO    R117734  11.666  16.555   6.445 -0.0311 -0.0957  0.1040
 1291ERGO    R217735  11.671  16.793   6.586  0.2302 -0.0523  0.0265
 1291ERGO    R317736  11.616  16.631   6.798 -0.0729  0.0867  0.0601
 1291ERGO    R417737  11.612  16.903   6.909  0.1142  0.1399 -0.0585
 1291ERGO    R517738  11.729  16.734   6.982 -0.0979  0.0540  0.0939
 1291ERGO    C117739  11.526  16.815   7.295 -0.2377  0.3824 -0.0765
 1291ERGO    C217740  11.475  16.782   7.635  0.0707 -0.0494  0.1020
 1292ERGO   ROH17741   8.009  16.904   6.026  0.2382  0.2316  0.1284
 1292ERGO    R117742   7.926  16.937   6.295 -0.2058  0.0541  0.0226
 1292ERGO    R217743   7.726  16.783   6.409  0.0314 -0.4718 -0.2197
 1292ERGO    R317744   7.917  16.732   6.596 -0.0541  0.0582  0.0282
 1292ERGO    R417745   7.666  16.644   6.719  0.0101 -0.5067 -0.2403
 1292ERGO    R517746   7.811  16.784   6.804 -0.4235 -0.1204 -0.1133
 1292ERGO    C117747   7.810  16.516   7.076 -0.0826 -0.0296 -0.0196
 1292ERGO    C217748   7.654  16.525   7.319 -0.0822  0.0901 -0.0834
 1293ERGO   ROH17749   7.836  18.028   6.114 -0.2492  0.1564  0.2346
 1293ERGO    R117750   7.833  17.874   6.352 -0.0032  0.0999  0.2035
 1293ERGO    R217751   8.036  17.884   6.539  0.0045  0.3524  0.1800
 1293ERGO    R317752   7.832  17.939   6.710 -0.0591  0.0247  0.2185
 1293ERGO    R417753   8.016  17.772   6.865  0.2945  0.3802  0.2100
 1293ERGO    R517754   7.803  17.737   6.835  0.3383 -0.0120  0.2701
 1293ERGO    C117755   7.814  17.759   7.216  0.4037  0.0886  0.2636
 1293ERGO    C217756   7.795  17.595   7.429  0.0191  0.0514  0.2222
 1294ERGO   ROH17757  10.093  13.266   6.390  0.3931 -0.0285  0.2098
 1294ERGO    R117758  10.160  13.315   6.661  0.1770 -0.1099  0.2782
 1294ERGO    R217759  10.101  13.552   6.789  0.2742 -0.0695  0.2305
 1294ERGO    R317760   9.980  13.388   6.969 -0.0507  0.0347  0.1169
 1294ERGO    R417761  10.004  13.644   7.108  0.4441 -0.0726  0.2845
 1294ERGO    R517762  10.074  13.450   7.180  0.0780 -0.2704  0.1644
 1294ERGO    C117763   9.835  13.542   7.463  0.2380  0.0236  0.2092
 1294ERGO    C217764   9.644  13.851   7.688 -0.0315 -0.0433 -0.1329
 1295ERGO   ROH17765   7.766   0.796   6.042  0.1135 -0.0600 -0.1080
 1295ERGO    R117766   7.971   0.824   6.235  0.1037 -0.1713 -0.0838
 1295ERGO    R217767   7.921   0.827   6.506  0.0572 -0.0371 -0.1027
 1295ERGO    R317768   8.105   0.627   6.510 -0.1069 -0.1931  0.0082
 1295ERGO    R417769   8.094   0.723   6.787 -0.0968 -0.0779 -0.0191
 1295ERGO    R517770   8.272   0.703   6.663 -0.0766 -0.2701  0.0234
 1295ERGO    C117771   8.367   0.475   6.954 -0.3406 -0.2480  0.1336
 1295ERGO    C217772   8.491   0.185   7.105  0.0700  0.1216  0.4136
 1296ERGO   ROH17773   5.639  11.628   6.165  0.2448  0.1021 -0.0631
 1296ERGO    R117774   5.468  11.692   6.381  0.1563  0.0386 -0.1151
 1296ERGO    R217775   5.439  11.528   6.602  0.2375  0.0819 -0.0744
 1296ERGO    R317776   5.504  11.754   6.738  0.0428  0.1721 -0.1254
 1296ERGO    R417777   5.329  11.607   6.920  0.0812  0.1150 -0.1347
 1296ERGO    R517778   5.305  11.813   6.856 -0.0362  0.0789 -0.2096
 1296ERGO    C117779   5.327  11.866   7.233 -0.1927  0.2187 -0.2177
 1296ERGO    C217780   5.304  12.023   7.539  0.0635  0.0931  0.0685
 1297ERGO   ROH17781  14.235   4.329   6.074 -0.4366 -0.0140 -0.0335
 1297ERGO    R117782  14.270   4.193   6.320 -0.1794  0.1147  0.0054
 1297ERGO    R217783  14.306   4.326   6.560 -0.2149  0.2480 -0.0583
 1297ERGO    R317784  14.095   4.174   6.639 -0.0202  0.0480  0.0888
 1297ERGO    R417785  14.273   4.181   6.872  0.1040  0.2586 -0.0167
 1297ERGO    R517786  14.192   4.003   6.775  0.2255  0.1647  0.0605
 1297ERGO    C117787  14.055   3.954   7.128  0.4725  0.0770  0.1456
 1297ERGO    C217788  14.148   3.846   7.421  0.1569 -0.1769 -0.0897
 1298ERGO   ROH17789  10.456  11.601   6.388  0.0195  0.0093  0.1031
 1298ERGO    R117790  10.358  11.677   6.643 -0.1117 -0.1224  0.0933
 1298ERGO    R217791  10.156  11.540   6.772  0.0309 -0.3746  0.0526
 1298ERGO    R317792  10.337  11.526   6.974  0.0175 -0.1697  0.0811
 1298ERGO    R417793  10.099  11.643   7.097 -0.1395 -0.4323  0.0425
 1298ERGO    R517794  10.301  11.725   7.101 -0.2275 -0.2051  0.0734
 1298ERGO    C117795  10.237  11.691   7.475 -0.2515 -0.2734  0.0634
 1298ERGO    C217796  10.043  11.417   7.636 -0.0324  0.1458  0.1018
 1299ERGO   ROH17797  14.570  10.810   6.637  0.1007 -0.0888  0.1503
 1299ERGO    R117798  14.615  10.949   6.879 -0.2318  0.2090  0.0510
 1299ERGO    R217799  14.419  11.096   7.005 -0.6284 -0.2289 -0.0196
 1299ERGO    R317800  14.483  10.940   7.218 -0.1592  0.0731  0.0754
 1299ERGO    R417801  14.392  11.194   7.336 -0.8193 -0.0825 -0.0763
 1299ERGO    R517802  14.581  11.092   7.375 -0.5282  0.4470 -0.0417
 1299ERGO    C117803  14.436  11.103   7.728 -0.4901  0.2862 -0.0201
 1299ERGO    C217804  14.525  11.263   7.961  0.1880 -0.1227  0.2773
 1300ERGO   ROH17805   7.366  11.293   6.602  0.1352 -0.1729  0.0917
 1300ERGO    R117806   7.355  11.224   6.876  0.3096  0.0308  0.1532
 1300ERGO    R217807   7.481  11.372   7.072  0.0167  0.4765  0.0213
 1300ERGO    R317808   7.233  11.378   7.183  0.0033  0.0362  0.0323
 1300ERGO    R417809   7.409  11.490   7.389 -0.2096  0.6267 -0.0839
 1300ERGO    R517810   7.269  11.324   7.413  0.1493  0.3325  0.0840
 1300ERGO    C117811   7.133  11.564   7.677 -0.3539  0.3008 -0.1348
 1300ERGO    C217812   7.050  11.824   7.895 -0.2185 -0.0541  0.2382
 1301ERGO   ROH17813  17.285   5.050   6.045  0.2112 -0.3991  0.0873
 1301ERGO    R117814  17.318   5.044   6.326  0.1817 -0.3921  0.0893
 1301ERGO    R217815  17.146   5.173   6.499  0.4372  0.0170  0.0389
 1301ERGO    R317816  17.126   4.927   6.613 -0.0854  0.0806  0.1161
 1301ERGO    R417817  17.090   5.115   6.835  0.5649  0.2572  0.1055
 1301ERGO    R517818  17.234   4.951   6.825  0.1623 -0.1191  0.0240
 1301ERGO    C117819  17.039   4.850   7.137  0.1488  0.4568  0.2167
 1301ERGO    C217820  17.111   4.729   7.348 -0.3041 -0.3859  0.1693
 1302ERGO   ROH17821   3.812   0.349   6.773 -0.1027  0.0391  0.0412
 1302ERGO    R117822   3.752   0.218   7.017 -0.0549 -0.0303  0.0165
 1302ERGO    R217823   3.940   0.071   7.156  0.0186  0.0630  0.0221
 1302ERGO    R317824   3.869   0.235   7.361 -0.1077 -0.0045  0.0323
 1302ERGO    R417825   3.959  -0.012   7.491  0.0623  0.0534  0.0170
 1302ERGO    R517826   3.768   0.088   7.522 -0.0095 -0.0868  0.0168
 1302ERGO    C117827   3.902   0.093   7.878 -0.0308 -0.0156  0.0235
 1302ERGO    C217828   3.884   0.090   8.207  0.2091 -0.2262 -0.1423
 1303ERGO   ROH17829   3.661  13.750   6.105  0.0560  0.0515 -0.0451
 1303ERGO    R117830   3.819  13.923   6.264 -0.0454  0.0361  0.0742
 1303ERGO    R217831   3.708  14.113   6.432 -0.1548 -0.0759  0.1287
 1303ERGO    R317832   3.863  13.990   6.619 -0.1629 -0.1043  0.1167
 1303ERGO    R417833   3.739  14.214   6.761  0.0274  0.0327  0.0793
 1303ERGO    R517834   3.952  14.169   6.750 -0.0014 -0.1067  0.0163
 1303ERGO    C117835   3.902  14.158   7.128  0.1259  0.0693  0.0394
 1303ERGO    C217836   3.994  14.312   7.529 -0.0734 -0.1856  0.0429
 1304ERGO   ROH17837   6.279   1.627   6.386  0.1344  0.0026 -0.0747
 1304ERGO    R117838   6.293   1.475   6.624  0.0358  0.0304 -0.0518
 1304ERGO    R217839   6.505   1.495   6.801  0.0067 -0.0206 -0.0175
 1304ERGO    R317840   6.308   1.546   6.981 -0.0072  0.0711 -0.0569
 1304ERGO    R417841   6.552   1.542   7.140 -0.0252  0.0484 -0.0215
 1304ERGO    R517842   6.372   1.426   7.177 -0.0614  0.0995 -0.0185
 1304ERGO    C117843   6.394   1.617   7.506 -0.0568  0.1748 -0.0609
 1304ERGO    C217844   6.348   1.672   7.859  0.1310 -0.0804  0.1942
 1305ERGO   ROH17845   9.508   8.965   6.478 -0.1608 -0.0833  0.1005
 1305ERGO    R117846   9.688   8.998   6.694 -0.0965 -0.2108  0.0684
 1305ERGO    R217847   9.675   9.212   6.868  0.1881 -0.1078 -0.0229
 1305ERGO    R317848   9.666   9.017   7.056 -0.0434 -0.0179  0.0613
 1305ERGO    R417849   9.772   9.252   7.197  0.0988 -0.0511 -0.0039
 1305ERGO    R517850   9.862   9.053   7.189 -0.0646 -0.1276  0.1173
 1305ERGO    C117851   9.820   9.091   7.566 -0.1705  0.0663  0.0862
 1305ERGO    C217852   9.750   9.267   7.880 -0.1628  0.0129  0.1271
 1306ERGO   ROH17853  11.538  15.585   6.253 -0.1770  0.1566 -0.0218
 1306ERGO    R117854  11.559  15.452   6.502 -0.1187  0.0975 -0.0567
 1306ERGO    R217855  11.729  15.538   6.701 -0.0281  0.0197 -0.0917
 1306ERGO    R317856  11.503  15.536   6.852  0.0195  0.0377 -0.0214
 1306ERGO    R417857  11.720  15.589   7.043  0.0333  0.3819 -0.1412
 1306ERGO    R517858  11.569  15.431   7.057  0.1410  0.3036  0.0738
 1306ERGO    C117859  11.501  15.617   7.383  0.1137  0.6097 -0.1043
 1306ERGO    C217860  11.673  15.894   7.600 -0.0961  0.2377  0.0105
 1307ERGO   ROH17861   4.999  15.376   6.040  0.5065 -0.0733  0.0590
 1307ERGO    R117862   4.874  15.413   6.291  0.3452  0.0591 -0.0394
 1307ERGO    R217863   4.900  15.233   6.498  0.0264  0.0512 -0.0014
 1307ERGO    R317864   4.980  15.453   6.637  0.1161 -0.0070  0.0404
 1307ERGO    R417865   4.890  15.262   6.842  0.0479 -0.0146  0.0049
 1307ERGO    R517866   4.822  15.469   6.817  0.1269  0.0175  0.0481
 1307ERGO    C117867   4.959  15.486   7.173  0.1444 -0.1075  0.0478
 1307ERGO    C217868   4.933  15.553   7.489  0.1324  0.1220  0.2239
 1308ERGO   ROH17869  16.338   8.474   6.552 -0.0307  0.0812 -0.0545
 1308ERGO    R117870  16.236   8.486   6.816 -0.1020 -0.0287 -0.0766
 1308ERGO    R217871  16.275   8.284   7.000  0.0861  0.0167 -0.0684
 1308ERGO    R317872  16.374   8.486   7.153 -0.1727  0.1317 -0.0456
 1308ERGO    R417873  16.204   8.331   7.335  0.2063 -0.2603 -0.0010
 1308ERGO    R517874  16.193   8.546   7.298 -0.1988 -0.2535  0.0965
 1308ERGO    C117875  16.257   8.548   7.674  0.0333 -0.3135  0.0598
 1308ERGO    C217876  16.346   8.760   7.960  0.1726 -0.3632 -0.0438
 1309ERGO   ROH17877  12.555  14.529   6.365 -0.0606  0.1531  0.0300
 1309ERGO    R117878  12.525  14.607   6.636 -0.0750  0.0613  0.0563
 1309ERGO    R217879  12.363  14.470   6.813 -0.0499 -0.0297  0.0176
 1309ERGO    R317880  12.590  14.460   6.962 -0.0439 -0.0327  0.0063
 1309ERGO    R417881  12.373  14.451   7.158 -0.0229  0.0169  0.0187
 1309ERGO    R517882  12.540  14.590   7.157 -0.0129 -0.0046 -0.0097
 1309ERGO    C117883  12.592  14.430   7.499 -0.0017  0.0411  0.0087
 1309ERGO    C217884  12.803  14.357   7.857  0.0730 -0.1443 -0.2945
 1310ERGO   ROH17885   3.857  11.278   5.941 -0.1028 -0.0521 -0.1508
 1310ERGO    R117886   3.775  11.295   6.211 -0.1573 -0.0372 -0.1683
 1310ERGO    R217887   3.761  11.074   6.376 -0.0747 -0.0107 -0.1251
 1310ERGO    R317888   3.921  11.224   6.537 -0.1765  0.1029 -0.1287
 1310ERGO    R417889   3.708  11.127   6.714  0.0450 -0.2783 -0.0613
 1310ERGO    R517890   3.769  11.335   6.685 -0.2386 -0.1791  0.0240
 1310ERGO    C117891   3.828  11.300   7.061  0.0192 -0.3273 -0.0277
 1310ERGO    C217892   3.723  11.367   7.430  0.2983  0.2687  0.2016
 1311ERGO   ROH17893  10.918  17.308   6.298  0.0667 -0.0324 -0.0335
 1311ERGO    R117894  10.772  17.366   6.533 -0.0179 -0.0321 -0.0851
 1311ERGO    R217895  10.747  17.186   6.742 -0.0624 -0.0195 -0.0765
 1311ERGO    R317896  10.844  17.393   6.889 -0.1360  0.0055 -0.0641
 1311ERGO    R417897  10.775  17.188   7.086  0.0160 -0.0613 -0.0828
 1311ERGO    R517898  10.708  17.395   7.086 -0.0907 -0.0970 -0.0328
 1311ERGO    C117899  10.882  17.383   7.425 -0.0072 -0.0622 -0.0749
 1311ERGO    C217900  10.882  17.582   7.708 -0.2047 -0.2628 -0.2085
 1312ERGO   ROH17901  10.247  14.614   6.366 -0.0921 -0.0275  0.0304
 1312ERGO    R117902  10.244  14.814   6.566  0.0354 -0.0034  0.0101
 1312ERGO    R217903  10.014  14.889   6.699  0.0568  0.2364 -0.0714
 1312ERGO    R317904  10.162  14.833   6.920 -0.0676  0.1070 -0.0205
 1312ERGO    R417905   9.930  14.979   7.022  0.0349  0.3110 -0.0988
 1312ERGO    R517906  10.139  15.027   7.058  0.0615  0.1244 -0.0293
 1312ERGO    C117907  10.020  14.980   7.417 -0.0948  0.2331 -0.0669
 1312ERGO    C217908  10.137  15.153   7.732  0.2303  0.0811  0.1704
 1313ERGO   ROH17909  16.177   7.176   6.572 -0.0735  0.2841  0.0961
 1313ERGO    R117910  16.062   7.013   6.772 -0.0457  0.3059  0.1289
 1313ERGO    R217911  16.180   6.779   6.860 -0.1058  0.2428  0.0327
 1313ERGO    R317912  16.155   6.896   7.104  0.0673  0.2142  0.0665
 1313ERGO    R417913  16.225   6.618   7.162 -0.1518  0.1353 -0.0164
 1313ERGO    R517914  16.054   6.728   7.241 -0.0378  0.2672  0.0591
 1313ERGO    C117915  16.227   6.634   7.567 -0.0158  0.0457 -0.0134
 1313ERGO    C217916  16.206   6.403   7.721  0.0839  0.0700 -0.2582
 1314ERGO   ROH17917   1.893   1.120   6.039  0.3244 -0.1065 -0.1018
 1314ERGO    R117918   2.052   1.150   6.272  0.3832 -0.1759 -0.1357
 1314ERGO    R217919   1.944   1.160   6.527  0.4254  0.0460 -0.1372
 1314ERGO    R317920   2.118   0.956   6.573  0.2221 -0.1170 -0.0573
 1314ERGO    R417921   2.057   1.063   6.838  0.2641  0.0231 -0.0825
 1314ERGO    R517922   2.255   1.035   6.753  0.2656 -0.1918 -0.0451
 1314ERGO    C117923   2.287   0.816   7.064 -0.0207 -0.1433  0.0243
 1314ERGO    C217924   2.589   0.658   7.204  0.2173  0.3232  0.3559
 1315ERGO   ROH17925   5.357  14.176   6.186 -0.0804 -0.0524  0.2351
 1315ERGO    R117926   5.545  14.237   6.389 -0.0412 -0.0136  0.1872
 1315ERGO    R217927   5.772  14.387   6.341 -0.0528 -0.0216  0.1155
 1315ERGO    R317928   5.676  14.538   6.547 -0.0111  0.0162  0.1075
 1315ERGO    R417929   5.968  14.547   6.577 -0.0009 -0.0237  0.0736
 1315ERGO    R517930   5.823  14.488   6.729  0.0042  0.0141  0.0975
 1315ERGO    C117931   5.993  14.781   6.907  0.0686  0.0108  0.0416
 1315ERGO    C217932   6.206  14.851   7.050  0.0139 -0.0780 -0.3146
 1316ERGO   ROH17933   1.075   5.889   6.546  0.0889 -0.1516 -0.1319
 1316ERGO    R117934   1.015   5.870   6.822  0.0619 -0.1277 -0.1365
 1316ERGO    R217935   0.849   6.049   6.951  0.1946 -0.0093 -0.1303
 1316ERGO    R317936   0.717   5.823   7.025  0.0154  0.0860 -0.1524
 1316ERGO    R417937   0.655   6.018   7.236  0.2475  0.0897 -0.0827
 1316ERGO    R517938   0.738   5.818   7.263  0.0803  0.0069 -0.1584
 1316ERGO    C117939   0.419   5.788   7.471  0.1101  0.2369 -0.0757
 1316ERGO    C217940   0.235   5.846   7.734  0.2780 -0.0330 -0.2233
 1317ERGO   ROH17941   7.066   8.871   6.593 -0.1876 -0.0220 -0.0402
 1317ERGO    R117942   7.111   8.897   6.870 -0.0928  0.0964 -0.0683
 1317ERGO    R217943   7.187   8.685   7.030 -0.0825  0.1618 -0.0026
 1317ERGO    R317944   7.391   8.851   7.098 -0.0286  0.1527 -0.1305
 1317ERGO    R417945   7.375   8.657   7.318  0.0354  0.1850 -0.0748
 1317ERGO    R517946   7.371   8.874   7.336  0.0706  0.2003 -0.1183
 1317ERGO    C117947   7.677   8.796   7.551  0.1547  0.1899 -0.2370
 1317ERGO    C217948   7.989   8.865   7.908 -0.1201 -0.2979  0.2785
 1318ERGO   ROH17949  11.924  13.638   6.451 -0.1692 -0.1420 -0.0489
 1318ERGO    R117950  12.068  13.592   6.690 -0.1336  0.1049 -0.0194
 1318ERGO    R217951  11.974  13.671   6.938 -0.2656  0.0496 -0.0477
 1318ERGO    R317952  12.014  13.409   7.000  0.0652  0.1115  0.0195
 1318ERGO    R417953  12.027  13.549   7.257 -0.0800  0.1928 -0.0225
 1318ERGO    R517954  12.176  13.413   7.176  0.0790  0.3561  0.0004
 1318ERGO    C117955  12.094  13.233   7.501  0.3385  0.3344  0.0555
 1318ERGO    C217956  12.134  13.140   7.814 -0.1380 -0.0273 -0.0971
 1319ERGO   ROH17957   5.741   5.248   6.270 -0.0758  0.1272 -0.0956
 1319ERGO    R117958   5.620   5.166   6.512  0.0487 -0.1926 -0.1371
 1319ERGO    R217959   5.736   4.980   6.680  0.5312  0.1606 -0.0531
 1319ERGO    R317960   5.703   5.176   6.866 -0.1296  0.1171 -0.1012
 1319ERGO    R417961   5.677   4.926   7.017  0.3767  0.0627 -0.0954
 1319ERGO    R517962   5.535   5.091   7.013 -0.0491 -0.2920 -0.2355
 1319ERGO    C117963   5.611   5.079   7.387 -0.3336 -0.0350 -0.1652
 1319ERGO    C217964   5.557   4.984   7.740  0.1551 -0.1277 -0.0995
 1320ERGO   ROH17965  13.825  12.035   6.337 -0.0818 -0.0899 -0.0928
 1320ERGO    R117966  13.954  11.946   6.573  0.0018 -0.0573 -0.1262
 1320ERGO    R217967  14.136  12.102   6.710  0.0454 -0.0370 -0.2101
 1320ERGO    R317968  13.971  12.052   6.921  0.1213 -0.0139 -0.1440
 1320ERGO    R417969  14.227  12.125   7.043  0.1377  0.1162 -0.2450
 1320ERGO    R517970  14.111  11.944   7.082  0.2060  0.0901 -0.1447
 1320ERGO    C117971  14.126  12.092   7.434  0.2628  0.2270 -0.2032
 1320ERGO    C217972  14.256  12.153   7.758  0.1071 -0.0282 -0.0639
 1321ERGO   ROH17973  13.391  13.971   6.036 -0.0678 -0.1840  0.0823
 1321ERGO    R117974  13.441  13.884   6.301 -0.0890 -0.0774  0.1212
 1321ERGO    R217975  13.614  14.015   6.471 -0.0937 -0.0173  0.0721
 1321ERGO    R317976  13.399  14.018   6.636 -0.1021  0.0633  0.0663
 1321ERGO    R417977  13.630  14.052   6.814 -0.0738 -0.1280  0.0840
 1321ERGO    R517978  13.473  13.901   6.832 -0.1714 -0.0450  0.0349
 1321ERGO    C117979  13.437  14.075   7.170 -0.0702 -0.1168  0.0855
 1321ERGO    C217980  13.737  14.084   7.402 -0.0313 -0.0492 -0.1520
 1322ERGO   ROH17981   5.843   4.287   6.240 -0.1245 -0.3628  0.0455
 1322ERGO    R117982   5.762   4.321   6.509 -0.0029 -0.3160  0.0764
 1322ERGO    R217983   5.926   4.259   6.723  0.2110  0.0125  0.0127
 1322ERGO    R317984   5.873   4.515   6.796 -0.0719 -0.0096 -0.0991
 1322ERGO    R417985   5.982   4.390   7.038  0.1500  0.2313 -0.0651
 1322ERGO    R517986   5.794   4.497   7.021  0.0128  0.0025 -0.0659
 1322ERGO    C117987   5.966   4.707   7.290 -0.1511  0.3379 -0.2154
 1322ERGO    C217988   6.041   4.805   7.592  0.0950 -0.0960  0.1811
 1323ERGO   ROH17989  16.908   7.625   6.689  0.2016  0.0739  0.1503
 1323ERGO    R117990  16.817   7.639   6.956  0.1236  0.0169  0.1271
 1323ERGO    R217991  16.925   7.484   7.158  0.1691  0.0818  0.1555
 1323ERGO    R317992  16.960   7.725   7.280 -0.0114  0.1059  0.1626
 1323ERGO    R417993  17.038   7.528   7.482  0.3147  0.1703  0.0937
 1323ERGO    R517994  16.893   7.688   7.506  0.1623  0.0128  0.1977
 1323ERGO    C117995  17.137   7.780   7.784  0.2304  0.2444  0.0644
 1323ERGO    C217996  17.246   7.832   8.106 -0.3147 -0.1873  0.0378
 1324ERGO   ROH17997  14.249   8.332   6.677  0.0524  0.0269  0.1791
 1324ERGO    R117998  14.266   8.169   6.908  0.2845  0.0361  0.1723
 1324ERGO    R217999  14.482   8.176   7.080  0.2327  0.4234  0.2406
 1324ERGO    R318000  14.290   8.222   7.268  0.0824  0.0641  0.1810
 1324ERGO    R418001  14.527   8.144   7.422  0.1368  0.4035  0.2510
 1324ERGO    R518002  14.329   8.055   7.434  0.2774  0.0832  0.1485
 1324ERGO    C118003  14.373   8.168   7.796 -0.0601  0.0546  0.2010
 1324ERGO    C218004  14.506   8.363   8.054  0.1043 -0.1018 -0.1967
 1325ERGO   ROH18005  14.703   0.532   5.845  0.0764 -0.0353 -0.0157
 1325ERGO    R118006  14.673   0.612   6.115  0.2579 -0.0109 -0.0016
 1325ERGO    R218007  14.509   0.479   6.292 -0.0529  0.3251 -0.0262
 1325ERGO    R318008  14.735   0.467   6.442 -0.0702 -0.2167 -0.0260
 1325ERGO    R418009  14.515   0.467   6.637 -0.0918  0.5312 -0.0171
 1325ERGO    R518010  14.686   0.603   6.634  0.3069  0.0584 -0.1117
 1325ERGO    C118011  14.731   0.448   6.980 -0.1309  0.1425 -0.0115
 1325ERGO    C218012  14.768   0.366   7.384  0.2899  0.0599 -0.0009
 1326ERGO   ROH18013  12.933   8.510   6.733  0.1284 -0.0857  0.0112
 1326ERGO    R118014  12.869   8.665   6.960  0.1597 -0.0631  0.0046
 1326ERGO    R218015  12.776   8.554   7.196  0.0972 -0.0303 -0.0052
 1326ERGO    R318016  12.985   8.690   7.304  0.1334 -0.1029  0.0169
 1326ERGO    R418017  12.844   8.574   7.534 -0.0863  0.1552  0.0226
 1326ERGO    R518018  12.896   8.784   7.506  0.0800  0.1027 -0.0975
 1326ERGO    C118019  13.080   8.714   7.833 -0.1591  0.1952  0.0596
 1326ERGO    C218020  13.217   8.692   8.169 -0.5551  0.1331 -0.0106
 1327ERGO   ROH18021  14.594   3.324   5.861  0.3390 -0.0286  0.0342
 1327ERGO    R118022  14.540   3.271   6.133  0.2153  0.0087  0.0172
 1327ERGO    R218023  14.653   3.059   6.269  0.1318  0.0118  0.0893
 1327ERGO    R318024  14.732   3.253   6.442  0.0802  0.0211  0.1033
 1327ERGO    R418025  14.721   3.009   6.604  0.3342 -0.0352  0.0429
 1327ERGO    R518026  14.622   3.198   6.648  0.2197 -0.1156  0.1446
 1327ERGO    C118027  14.835   3.163   6.962  0.4038 -0.0538  0.0290
 1327ERGO    C218028  14.840   3.186   7.246 -0.2133  0.1315 -0.1017
 1328ERGO   ROH18029   5.506   9.978   6.375 -0.2656  0.1116  0.0148
 1328ERGO    R118030   5.458   9.827   6.610  0.1107 -0.0472 -0.0008
 1328ERGO    R218031   5.648   9.794   6.808  0.1981  0.4396  0.0165
 1328ERGO    R318032   5.451   9.890   6.968 -0.0881 -0.0854  0.0020
 1328ERGO    R418033   5.651   9.783   7.153  0.1381  0.3519  0.0139
 1328ERGO    R518034   5.439   9.734   7.149  0.2514 -0.1709 -0.0474
 1328ERGO    C118035   5.468   9.867   7.505 -0.1655 -0.1921 -0.0011
 1328ERGO    C218036   5.516   9.950   7.774 -0.1421 -0.2035 -0.4593
 1329ERGO   ROH18037   6.669   2.979   6.301 -0.0769 -0.1552  0.0854
 1329ERGO    R118038   6.570   3.030   6.561 -0.0632 -0.1194  0.0837
 1329ERGO    R218039   6.465   2.832   6.721  0.0614 -0.1210  0.1655
 1329ERGO    R318040   6.649   2.922   6.899  0.0434  0.0314  0.1079
 1329ERGO    R418041   6.415   2.856   7.063  0.1570 -0.1938  0.1850
 1329ERGO    R518042   6.521   3.046   7.060 -0.0141 -0.0958  0.1621
 1329ERGO    C118043   6.559   2.955   7.428  0.1958 -0.0932  0.1424
 1329ERGO    C218044   6.428   3.001   7.748  0.1343 -0.0301  0.2090
 1330ERGO   ROH18045   9.062  11.022   6.569 -0.1276 -0.0001  0.0859
 1330ERGO    R118046   9.161  10.955   6.825 -0.3802 -0.2520  0.1239
 1330ERGO    R218047   9.284  11.139   6.991  0.2092 -0.5784  0.0896
 1330ERGO    R318048   9.096  11.057   7.169 -0.1177  0.0795  0.0784
 1330ERGO    R418049   9.317  11.152   7.334  0.1350 -0.5284  0.0944
 1330ERGO    R518050   9.221  10.957   7.346 -0.4787 -0.2367  0.1615
 1330ERGO    C118051   9.160  11.081   7.702 -0.2150  0.1185  0.0867
 1330ERGO    C218052   9.171  11.134   8.124 -0.3393 -0.3084 -0.0392
 1331ERGO   ROH18053   8.631  15.071   5.898  0.3632 -0.0320 -0.0618
 1331ERGO    R118054   8.806  15.021   6.115  0.2060 -0.0432  0.0622
 1331ERGO    R218055   8.826  15.191   6.332  0.0224 -0.0748  0.1000
 1331ERGO    R318056   8.773  14.965   6.473 -0.0543 -0.1011  0.0321
 1331ERGO    R418057   8.863  15.159   6.674 -0.1648 -0.1300  0.1173
 1331ERGO    R518058   8.943  14.959   6.642 -0.1434 -0.1266  0.1260
 1331ERGO    C118059   8.834  14.928   7.006 -0.3458 -0.1868  0.0635
 1331ERGO    C218060   8.692  14.837   7.239  0.0254 -0.1191  0.0186
 1332ERGO   ROH18061   4.757  10.810   6.064  0.1412 -0.3180  0.1046
 1332ERGO    R118062   4.677  10.735   6.325  0.3114 -0.3026  0.1644
 1332ERGO    R218063   4.859  10.685   6.528  0.4395  0.2295  0.2064
 1332ERGO    R318064   4.711  10.871   6.660  0.0434  0.0234  0.0618
 1332ERGO    R418065   4.774  10.669   6.863  0.1603  0.1514  0.1327
 1332ERGO    R518066   4.577  10.743   6.811  0.0987 -0.1514 -0.0457
 1332ERGO    C118067   4.586  10.834   7.182 -0.3740 -0.0876 -0.0460
 1332ERGO    C218068   4.444  10.777   7.580 -0.0349 -0.1971  0.1678
 1333ERGO   ROH18069  17.763   8.334   6.426  0.1980  0.0274  0.0274
 1333ERGO    R118070  17.773   8.370   6.707  0.1940 -0.0252  0.0336
 1333ERGO    R218071  17.700   8.607   6.829  0.1562 -0.0620  0.0781
 1333ERGO    R318072  17.536   8.445   6.972  0.1835 -0.1160  0.0506
 1333ERGO    R418073  17.628   8.647   7.164 -0.0225 -0.0051  0.0346
 1333ERGO    R518074  17.640   8.431   7.188  0.0935  0.0080  0.1041
 1333ERGO    C118075  17.431   8.518   7.495 -0.1010 -0.0224 -0.0165
 1333ERGO    C218076  17.211   8.795   7.602  0.0694 -0.0172  0.1453
 1334ERGO   ROH18077   5.385   1.084   6.115 -0.3017  0.0350 -0.1672
 1334ERGO    R118078   5.425   1.011   6.386 -0.1278 -0.0678 -0.2195
 1334ERGO    R218079   5.459   1.197   6.586 -0.0425 -0.1443 -0.1656
 1334ERGO    R318080   5.253   1.063   6.702  0.0508 -0.2276 -0.0928
 1334ERGO    R418081   5.375   1.217   6.921 -0.0551 -0.0130 -0.1756
 1334ERGO    R518082   5.337   1.002   6.918  0.0974 -0.0465 -0.0555
 1334ERGO    C118083   5.133   1.103   7.225  0.0252 -0.0147 -0.1131
 1334ERGO    C218084   4.999   1.151   7.626  0.0507 -0.1108 -0.0400
 1335ERGO   ROH18085   5.274  15.125   6.701  0.0073  0.0639 -0.0236
 1335ERGO    R118086   5.238  14.888   6.851 -0.0025  0.0343 -0.0727
 1335ERGO    R218087   5.444  14.709   6.899 -0.0038  0.0303 -0.0866
 1335ERGO    R318088   5.372  14.747   7.159 -0.0304 -0.0221 -0.0861
 1335ERGO    R418089   5.568  14.528   7.166 -0.1546 -0.1367 -0.1282
 1335ERGO    R518090   5.367  14.525   7.251 -0.1728 -0.0536 -0.1660
 1335ERGO    C118091   5.573  14.456   7.565 -0.2675 -0.2831 -0.1519
 1335ERGO    C218092   5.800  14.563   7.813 -0.4009  0.1470 -0.1224
 1336ERGO   ROH18093  11.339  12.053   6.565  0.1978 -0.1536 -0.2169
 1336ERGO    R118094  11.199  11.991   6.803  0.0124 -0.0572 -0.2985
 1336ERGO    R218095  11.230  11.750   6.935 -0.0928 -0.0066 -0.1778
 1336ERGO    R318096  11.285  11.911   7.147 -0.2539  0.0768 -0.1982
 1336ERGO    R418097  11.205  11.655   7.266 -0.0952  0.0409 -0.1647
 1336ERGO    R518098  11.120  11.851   7.311 -0.2468 -0.0094 -0.2219
 1336ERGO    C118099  11.242  11.750   7.659 -0.2478  0.1467 -0.1762
 1336ERGO    C218100  11.139  11.471   7.963 -0.0332 -0.1827  0.0337
 1337ERGO   ROH18101   7.102   6.872   6.497 -0.0184 -0.0730  0.0071
 1337ERGO    R118102   7.211   6.783   6.742  0.0806  0.0276  0.0017
 1337ERGO    R218103   7.418   6.915   6.869  0.0666  0.1413 -0.0794
 1337ERGO    R318104   7.246   6.916   7.079  0.1150  0.1247 -0.0414
 1337ERGO    R418105   7.507   6.981   7.196  0.1524  0.0033 -0.0749
 1337ERGO    R518106   7.372   6.822   7.260  0.1202  0.0277 -0.1000
 1337ERGO    C118107   7.397   7.021   7.584  0.2478 -0.0926 -0.0366
 1337ERGO    C218108   7.513   6.986   7.952 -0.2202 -0.1999  0.1014
 1338ERGO   ROH18109  15.150  17.249   5.926  0.2623  0.2042 -0.1433
 1338ERGO    R118110  15.238  17.263   6.195  0.1359  0.1230 -0.0976
 1338ERGO    R218111  15.152  17.460   6.369  0.0377  0.0576 -0.0726
 1338ERGO    R318112  15.083  17.248   6.524 -0.0161  0.0005 -0.1733
 1338ERGO    R418113  15.061  17.479   6.702  0.0775 -0.0833 -0.0526
 1338ERGO    R518114  15.175  17.297   6.739  0.0223 -0.1401 -0.1563
 1338ERGO    C118115  14.943  17.290   7.041  0.0504 -0.2190 -0.1354
 1338ERGO    C218116  14.813  17.121   7.367 -0.2261 -0.0232  0.2968
 1339ERGO   ROH18117  11.918   8.554   6.420  0.1079 -0.1115  0.0384
 1339ERGO    R118118  11.956   8.722   6.644  0.1840 -0.1108  0.0250
 1339ERGO    R218119  11.769   8.745   6.846  0.1225  0.1088 -0.0556
 1339ERGO    R318120  11.980   8.680   7.005 -0.0047 -0.0751  0.0435
 1339ERGO    R418121  11.788   8.810   7.185 -0.0134  0.0246 -0.0305
 1339ERGO    R518122  11.998   8.864   7.157  0.0433 -0.1168  0.0911
 1339ERGO    C118123  11.998   8.787   7.531 -0.2121 -0.1972  0.0771
 1339ERGO    C218124  11.914   8.838   7.861 -0.2903 -0.2564 -0.3485
 1340ERGO   ROH18125  12.990  17.369   6.025 -0.1932  0.0049  0.2680
 1340ERGO    R118126  13.118  17.329   6.275 -0.2199 -0.1504  0.2581
 1340ERGO    R218127  13.172  17.537   6.449  0.2006 -0.1855  0.1812
 1340ERGO    R318128  13.035  17.382   6.625 -0.0639  0.1242  0.2557
 1340ERGO    R418129  13.174  17.579   6.792  0.2212  0.0050  0.1587
 1340ERGO    R518130  13.181  17.362   6.813 -0.1174  0.0026  0.2833
 1340ERGO    C118131  13.046  17.458   7.157 -0.0151  0.4068  0.2155
 1340ERGO    C218132  12.922  17.325   7.512  0.1863  0.1169  0.1367
 1341ERGO   ROH18133   5.868  15.448   6.250  0.2296 -0.4511  0.0010
 1341ERGO    R118134   5.989  15.550   6.485  0.0831 -0.4233  0.0649
 1341ERGO    R218135   5.939  15.805   6.579  0.2057 -0.3264 -0.1323
 1341ERGO    R318136   5.876  15.673   6.809 -0.1377 -0.1425 -0.1131
 1341ERGO    R418137   5.904  15.954   6.889  0.2659 -0.1468 -0.2100
 1341ERGO    R518138   6.006  15.782   6.977 -0.0543 -0.2826 -0.0833
 1341ERGO    C118139   5.825  15.917   7.285 -0.0215  0.1303 -0.2373
 1341ERGO    C218140   5.868  16.101   7.624  0.1734  0.1450 -0.0183
 1342ERGO   ROH18141  12.841   2.088   5.482  0.1440 -0.0539  0.1544
 1342ERGO    R118142  12.841   1.985   5.745  0.2850 -0.2901  0.0644
 1342ERGO    R218143  13.058   1.850   5.852  0.5968  0.1698  0.0387
 1342ERGO    R318144  13.035   2.036   6.049  0.0195 -0.0478  0.1986
 1342ERGO    R418145  13.229   1.842   6.152  0.3092  0.2332  0.2090
 1342ERGO    R518146  13.048   1.909   6.252  0.0589 -0.2189  0.0934
 1342ERGO    C118147  13.308   2.011   6.512 -0.4002  0.0660  0.4582
 1342ERGO    C218148  13.463   2.092   6.830 -0.0105  0.2179  0.2367
 1343ERGO   ROH18149   6.056   6.293   6.507  0.1314 -0.0613  0.1338
 1343ERGO    R118150   5.831   6.281   6.679  0.0766 -0.1035  0.0610
 1343ERGO    R218151   5.798   6.082   6.868  0.0170 -0.1516  0.0070
 1343ERGO    R318152   5.772   6.293   7.038 -0.0331 -0.1892  0.0448
 1343ERGO    R418153   5.700   6.060   7.199 -0.2069 -0.1992 -0.0614
 1343ERGO    R518154   5.581   6.240   7.171 -0.1331 -0.1621 -0.0932
 1343ERGO    C118155   5.619   6.245   7.551 -0.3843 -0.2624 -0.0657
 1343ERGO    C218156   5.654   6.421   7.932  0.0106 -0.0339  0.1584
 1344ERGO   ROH18157  15.384  11.682   6.487  0.0028 -0.0148  0.0503
 1344ERGO    R118158  15.504  11.639   6.739  0.0008 -0.0155  0.0516
 1344ERGO    R218159  15.567  11.846   6.911  0.0335 -0.0105  0.0398
 1344ERGO    R318160  15.418  11.702   7.087  0.0126  0.0202  0.0465
 1344ERGO    R418161  15.563  11.893   7.254  0.1559 -0.1092  0.0554
 1344ERGO    R518162  15.558  11.677   7.279  0.0515 -0.1081 -0.0027
 1344ERGO    C118163  15.420  11.785   7.618  0.2075 -0.1379  0.0709
 1344ERGO    C218164  15.305  11.628   7.921 -0.1370 -0.1236 -0.0353
 1345ERGO   ROH18165   4.243   7.147   6.475  0.1052  0.0426  0.0044
 1345ERGO    R118166   4.304   7.179   6.750 -0.0220 -0.0180  0.0404
 1345ERGO    R218167   4.112   7.159   6.948 -0.0687 -0.3294 -0.0296
 1345ERGO    R318168   4.284   6.975   7.051  0.1075 -0.1862 -0.0635
 1345ERGO    R418169   4.139   7.080   7.283  0.1052 -0.2727 -0.0294
 1345ERGO    R518170   4.355   7.071   7.258  0.1040 -0.1091 -0.0988
 1345ERGO    C118171   4.316   6.861   7.575  0.3719 -0.1054 -0.0611
 1345ERGO    C218172   4.237   6.826   7.886  0.3854  0.0322 -0.0504
 1346ERGO   ROH18173   3.931  15.106   6.051 -0.0455  0.2928  0.0154
 1346ERGO    R118174   3.981  15.093   6.329 -0.0616  0.3413  0.0209
 1346ERGO    R218175   3.920  15.300   6.502 -0.4358  0.2220  0.0412
 1346ERGO    R318176   3.784  15.106   6.635 -0.1325 -0.0293 -0.0054
 1346ERGO    R418177   3.800  15.327   6.825 -0.3807 -0.0942  0.0912
 1346ERGO    R518178   3.862  15.121   6.860 -0.0876 -0.0288 -0.0222
 1346ERGO    C118179   3.604  15.160   7.138 -0.0638 -0.5142  0.0764
 1346ERGO    C218180   3.316  15.080   7.348 -0.0843 -0.2228  0.0498
 1347ERGO   ROH18181   7.171  13.281   6.345 -0.0238 -0.0833 -0.0312
 1347ERGO    R118182   7.108  13.456   6.559  0.0206 -0.0290 -0.0615
 1347ERGO    R218183   6.925  13.391   6.755 -0.0818  0.0967 -0.1087
 1347ERGO    R318184   7.132  13.450   6.922 -0.0915 -0.0227 -0.0546
 1347ERGO    R418185   6.905  13.602   7.028 -0.0981 -0.1265  0.0650
 1347ERGO    R518186   7.101  13.682   6.975 -0.1061 -0.0699  0.1353
 1347ERGO    C118187   7.087  13.781   7.343 -0.1167 -0.3685  0.2170
 1347ERGO    C218188   7.135  13.884   7.793 -0.2322 -0.1635 -0.1241
 1348ERGO   ROH18189  14.152   9.516   6.524  0.1415 -0.1184 -0.0793
 1348ERGO    R118190  14.227   9.578   6.790 -0.0874 -0.0647 -0.0269
 1348ERGO    R218191  14.136   9.435   7.007  0.0526 -0.2815 -0.1163
 1348ERGO    R318192  14.401   9.411   7.062  0.0751  0.1532  0.0086
 1348ERGO    R418193  14.272   9.432   7.325 -0.1841 -0.6731 -0.0106
 1348ERGO    R518194  14.436   9.555   7.250 -0.3683 -0.1563  0.3570
 1348ERGO    C118195  14.600   9.408   7.561 -0.3008 -0.4930  0.1683
 1348ERGO    C218196  14.752   9.355   7.758 -0.1173 -0.1665  0.1014
 1349W        W18197   1.246  15.426   4.474  0.1316  0.0639  0.0033
 1350W        W18198   8.536   1.234   4.820  0.0176  0.1320  0.0221
 1351W        W18199   1.599   4.496  15.501 -0.2328  0.1899  0.1834
 1352W        W18200   6.695  17.059   0.941 -0.3173  0.2808  0.1794
 1353W        W18201   8.066   0.017   4.408  0.1342 -0.2706  0.0001
 1354W        W18202  16.672   8.197   1.751 -0.0724 -0.2277  0.1584
 1355W        W18203  15.455   5.113   0.841 -0.0247 -0.2370  0.2604
 1356W        W18204   3.330  15.417   1.305 -0.2553  0.1003 -0.1915
 1357W        W18205   3.652  10.775  11.323  0.1730  0.0255  0.5708
 1358W        W18206  13.379   3.079  10.597  0.1888  0.0188 -0.1442
 1359W        W18207   3.544   1.709   0.510 -0.1230  0.1518 -0.1448
 1360W        W18208  10.986   6.468  15.307 -0.0227  0.2740  0.4371
 1361W        W18209  17.553   4.298   0.329  0.0136 -0.2466  0.1965
 1362W        W18210   0.821  12.263  11.771  0.0780  0.0833  0.0755
 1363W        W18211  13.920  11.618   5.024  0.0588 -0.0343 -0.0992
 1364W        W18212   1.558   5.452  14.791  0.0078  0.0325 -0.1494
 1365W        W18213  14.175   8.658  11.939 -0.3532 -0.2546 -0.0499
 1366W        W18214   5.587   7.979   6.283 -0.1324 -0.1592  0.1085
 1367W        W18215  11.699   9.117   2.483 -0.3018 -0.0304 -0.0857
 1368W        W18216  16.804  13.144   1.680 -0.1413  0.0399  0.2492
 1369W        W18217  10.838   4.978  14.465  0.0425 -0.0270  0.1781
 1370W        W18218   8.400   0.642  10.275 -0.2400 -0.3209 -0.2579
 1371W        W18219  17.469  13.281   0.037 -0.0959  0.2166 -0.0793
 1372W        W18220  17.962   6.487  15.298  0.0438 -0.0417 -0.4129
 1373W        W18221   4.658   0.949  12.100 -0.4529 -0.1480 -0.1240
 1374W        W18222   3.742  14.708   0.816  0.1117  0.0033  0.2183
 1375W        W18223  10.469   3.074  16.085  0.2384 -0.0300 -0.0985
 1376W        W18224  12.091   1.643  13.833 -0.0555 -0.0687 -0.1209
 1377W        W18225  10.134  14.894  13.405  0.1138  0.0432  0.1467
 1378W        W18226   3.222  15.895   0.118  0.1408  0.2779 -0.0803
 1379W        W18227   3.936  15.897  14.863 -0.1247 -0.1172 -0.0857
 1380W        W18228  11.839   4.156  14.886 -0.3381  0.0096  0.1884
 1381W        W18229   2.581  14.703   0.088  0.0121  0.0866 -0.0475
 1382W        W18230  17.898   9.911   4.308 -0.1173  0.2128 -0.0290
 1383W        W18231  18.023  10.779  15.639 -0.1899  0.2409  0.1401
 1384W        W18232  16.898  16.146  11.881  0.0189  0.3367  0.1733
 1385W        W18233   3.176   0.749   0.768  0.1657 -0.1791  0.4615
 1386W        W18234   9.282  13.648   1.608  0.0486  0.1269 -0.3498
 1387W        W18235  17.440   9.143  11.127  0.0993 -0.0872  0.4074
 1388W        W18236  17.371   3.759   0.448 -0.1383 -0.2769 -0.1301
 1389W        W18237   2.425   7.791  15.706  0.0571 -0.3384 -0.3036
 1390W        W18238   8.084   8.338   3.130 -0.1614  0.1966 -0.0632
 1391W        W18239  12.186  10.086  15.570  0.1132  0.0012  0.1742
 1392W        W18240  15.258   3.635   2.263  0.0872  0.3032  0.0542
 1393W        W18241   1.355  12.767   5.193 -0.0812 -0.1779  0.1290
 1394W        W18242   1.019   1.543  11.398  0.2181 -0.1910 -0.1233
 1395W        W18243  18.087   1.179  10.696 -0.0385  0.1733 -0.0532
 1396W        W18244  16.014   2.914   0.592  0.0221  0.1299 -0.3200
 1397W        W18245   8.832  18.178   3.534  0.0832 -0.0399 -0.1185
 1398W        W18246  14.435   7.433   0.836 -0.2832  0.1194 -0.2099
 1399W        W18247   6.961  10.481   5.339 -0.2835 -0.2319 -0.2336
 1400W        W18248  16.506   0.013   4.439  0.4174 -0.3527 -0.0781
 1401W        W18249  10.306  11.415   5.180 -0.2889 -0.0743  0.3511
 1402W        W18250  15.002   4.449   3.899  0.3927 -0.3323  0.2162
 1403W        W18251  10.485   7.861  16.012  0.4531  0.1380  0.1601
 1404W        W18252  15.814  14.785  13.558  0.1805  0.2112  0.0728
 1405W        W18253   2.057  11.576   3.174 -0.0094 -0.0955 -0.0194
 1406W        W18254  18.023  11.609   2.184  0.2345  0.0949  0.2555
 1407W        W18255   1.947   3.021  11.738  0.1786  0.0949  0.2369
 1408W        W18256   7.434   1.698  11.019  0.1145 -0.0671  0.0084
 1409W        W18257   6.681  10.642  13.619 -0.0118 -0.0707  0.1591
 1410W        W18258  12.761  16.477  11.242 -0.1240  0.1157 -0.2677
 1411W        W18259  16.946   0.513   0.219  0.1543  0.0885 -0.1864
 1412W        W18260  17.967  16.968   3.538 -0.0947  0.0986 -0.0867
 1413W        W18261  15.197   6.676   3.999  0.3762  0.1624  0.2199
 1414W        W18262   5.833   9.173  15.776 -0.1553  0.0551 -0.4607
 1415W        W18263  15.097   2.282  10.958  0.1550 -0.0214 -0.3113
 1416W        W18264  10.687   3.615  14.897 -0.0805  0.1775  0.3052
 1417W        W18265   3.715   2.077   4.249 -0.3187 -0.1772 -0.1404
 1418W        W18266  18.071   9.078  10.460  0.3205 -0.1401 -0.1515
 1419W        W18267   4.751   6.149  13.351  0.0474  0.1421  0.2565
 1420W        W18268  15.396  12.113   2.878  0.2808  0.1559  0.4234
 1421W        W18269   1.575  15.416  14.671 -0.0395 -0.1080  0.0143
 1422W        W18270   7.029  15.023  14.527 -0.2203  0.0886  0.1978
 1423W        W18271  10.814  12.626  13.830 -0.2891 -0.3047 -0.1296
 1424W        W18272  18.033   7.190   4.206  0.1246  0.0828 -0.1524
 1425W        W18273   4.335  15.939   3.512  0.0236 -0.1328  0.3093
 1426W        W18274   6.831   3.985  15.586  0.0972 -0.1750  0.0363
 1427W        W18275  18.049  11.108  11.965  0.0296  0.2925 -0.2903
 1428W        W18276   7.386   3.241  12.301  0.2402 -0.0011 -0.0521
 1429W        W18277   0.690  17.509   0.036  0.2304 -0.2570  0.1003
 1430W        W18278   6.718  12.707   3.303  0.0679  0.0839 -0.0851
 1431W        W18279   7.292  13.019   2.580  0.0134 -0.3997  0.1764
 1432W        W18280   0.184  16.561  14.431  0.0136  0.1739  0.1013
 1433W        W18281   4.049   9.714  12.947 -0.1404 -0.0190 -0.1072
 1434W        W18282   0.350   4.142  14.777  0.2060 -0.1630 -0.0236
 1435W        W18283  11.305   8.693  13.667 -0.1902  0.4813  0.2589
 1436W        W18284  13.979   5.451  15.930 -0.0586  0.0490 -0.0212
 1437W        W18285  14.526   2.683   2.526  0.4665 -0.0382  0.0450
 1438W        W18286   9.711   5.225   3.468  0.1103  0.0524  0.0368
 1439W        W18287   2.106   2.475  13.503  0.0055  0.0406  0.0867
 1440W        W18288   4.255  13.958   3.798  0.0114  0.0936  0.4060
 1441W        W18289  12.998   2.855   0.767 -0.0487 -0.0070  0.1715
 1442W        W18290  12.211   3.112   4.159 -0.2696  0.2215  0.1328
 1443W        W18291   6.677   5.133   1.372 -0.0561 -0.3858 -0.1221
 1444W        W18292   9.663   7.842  14.159 -0.0114 -0.1624  0.1399
 1445W        W18293  14.479   7.634  11.666 -0.1644  0.3108 -0.2244
 1446W        W18294  10.158   4.578   1.782  0.2637 -0.4165  0.0125
 1447W        W18295  14.611   6.300   4.196  0.0111 -0.0211 -0.4820
 1448W        W18296  14.133   8.277  12.872 -0.2134  0.0907 -0.0824
 1449W        W18297   1.655   4.355   3.235  0.0187  0.4073 -0.0448
 1450W        W18298  13.505   6.080   4.315 -0.0713  0.0887  0.0837
 1451W        W18299  14.772   6.584  12.037  0.0170 -0.0608 -0.0458
 1452W        W18300  14.526  16.147  11.049  0.5410  0.0769 -0.3626
 1453W        W18301   9.471   6.767  11.896 -0.1656 -0.2179  0.2049
 1454W        W18302  14.384  14.497   4.021 -0.2165  0.0010 -0.2080
 1455W        W18303   9.639   7.288  15.117 -0.5179  0.0673  0.3177
 1456W        W18304   3.033   7.251  11.628  0.2281  0.1729 -0.4121
 1457W        W18305   0.686   4.354   0.366 -0.0397 -0.0390 -0.1222
 1458W        W18306   2.726   8.242   0.494 -0.1576  0.1017 -0.1754
 1459W        W18307  14.031  14.196   0.031 -0.1726  0.0577  0.1556
 1460W        W18308   5.441   2.798   3.882 -0.0214  0.0240  0.0933
 1461W        W18309  11.974   8.108   1.930  0.1708 -0.0760  0.2134
 1462W        W18310  16.946   4.244   4.169 -0.1716  0.2100 -0.0003
 1463W        W18311   5.007   5.752  15.113  0.0023  0.0093 -0.1809
 1464W        W18312   7.192  12.460  14.547 -0.0210  0.2334  0.1535
 1465W        W18313   2.866  14.016   1.788 -0.1827  0.1924 -0.0834
 1466W        W18314   8.347   1.904   2.293 -0.2279 -0.0535  0.2300
 1467W        W18315  15.590   2.284   3.904 -0.3984 -0.0633 -0.2309
 1468W        W18316  13.660  16.503   4.500  0.1868 -0.1149  0.0713
 1469W        W18317  13.449   0.939   1.917  0.3112 -0.2798  0.0904
 1470W        W18318  16.740  14.595   3.656 -0.1353 -0.1647 -0.1893
 1471W        W18319  11.402  14.418  13.463  0.0737  0.1667  0.1944
 1472W        W18320   0.409  11.487  16.026 -0.0831  0.0189  0.1351
 1473W        W18321   5.961  13.960  14.498 -0.0960 -0.0399  0.0679
 1474W        W18322  14.177   6.919   0.188 -0.3680 -0.0527  0.2633
 1475W        W18323  15.569   9.586  13.155 -0.1401  0.0181 -0.0392
 1476W        W18324  16.919   9.484   5.433 -0.1464 -0.1108  0.0470
 1477W        W18325  14.491  12.558  12.986  0.1529 -0.0233 -0.0371
 1478W        W18326  17.827   4.020  12.751  0.2587 -0.1110  0.1718
 1479W        W18327  12.305   4.361  12.853 -0.1215 -0.0482 -0.0211
 1480W        W18328  10.857   7.204   4.293  0.1025 -0.0067 -0.2546
 1481W        W18329   1.208  15.008   0.115 -0.1321  0.1401 -0.0977
 1482W        W18330  14.954   8.155   1.823 -0.2103  0.1775 -0.2701
 1483W        W18331  16.109   8.075   0.671  0.0024 -0.1422 -0.3611
 1484W        W18332   2.666  17.529   4.692  0.0042  0.2702  0.0802
 1485W        W18333  11.159  13.017   2.804  0.0839  0.0600  0.0613
 1486W        W18334  11.865   2.294  15.929  0.4478  0.0865  0.2679
 1487W        W18335   6.089   8.576   5.826 -0.1115  0.0153 -0.2924
 1488W        W18336  16.801   0.986   3.831 -0.0505  0.0153 -0.1191
 1489W        W18337   4.014   5.556   0.573 -0.1976 -0.1225  0.0750
 1490W        W18338   7.495   6.859   1.819  0.1378  0.1269 -0.0759
 1491W        W18339  12.917  13.489  15.686 -0.4733 -0.2688 -0.1331
 1492W        W18340   1.886   0.763   0.452 -0.1323 -0.0088 -0.0231
 1493W        W18341   1.072   1.976   2.059 -0.0810  0.2091 -0.0482
 1494W        W18342   3.785  11.730  13.012 -0.1339  0.0843 -0.1141
 1495W        W18343   7.162   4.283  12.891 -0.0258 -0.0191 -0.1142
 1496W        W18344  11.581   4.751  16.066 -0.0266 -0.1325  0.1099
 1497W        W18345  16.605  12.688   0.635 -0.0910 -0.1634 -0.1240
 1498W        W18346   8.752  17.242   0.367 -0.0739  0.0089  0.1549
 1499W        W18347   7.908   7.968  15.087  0.2442 -0.2516 -0.4065
 1500W        W18348   3.976   1.946  13.217  0.2557  0.0024  0.0528
 1501W        W18349   0.686   8.009   1.140  0.0384 -0.3882  0.1041
 1502W        W18350   2.513   3.234  14.537 -0.1602  0.3425  0.0457
 1503W        W18351   2.742   5.274  12.650 -0.1001 -0.0088  0.3742
 1504W        W18352  18.105   7.511   0.824  0.1881 -0.2890  0.1097
 1505W        W18353  10.918   3.560   3.754 -0.0274  0.2161  0.3503
 1506W        W18354  15.379   4.795  15.539 -0.0592 -0.3278 -0.0777
 1507W        W18355   1.493  12.297   0.202 -0.1056  0.0104 -0.0928
 1508W        W18356   6.736   5.523   0.023 -0.1699  0.1668  0.2000
 1509W        W18357   4.514  12.624  13.673 -0.1879 -0.0952  0.0547
 1510W        W18358   4.085   4.592  15.427 -0.0716 -0.1425 -0.1083
 1511W        W18359   1.638  15.174   1.940  0.0021  0.0856 -0.0185
 1512W        W18360   5.601  14.084  11.323 -0.1353 -0.1977 -0.2217
 1513W        W18361   1.409  15.970  12.019  0.2963  0.1700 -0.0733
 1514W        W18362  11.954  13.397   3.912  0.0230 -0.0144  0.0347
 1515W        W18363  14.986   5.528   5.471 -0.1687 -0.2404 -0.1318
 1516W        W18364   8.575   9.976  11.332  0.0707 -0.1981 -0.0185
 1517W        W18365   8.796   7.095   0.059  0.2096 -0.1843 -0.0722
 1518W        W18366  16.852   4.782   4.074  0.1859  0.6175 -0.1291
 1519W        W18367   8.122   3.354  12.743  0.1461 -0.4152 -0.3339
 1520W        W18368   9.521   1.827  13.378 -0.0742 -0.3978 -0.0925
 1521W        W18369   7.979  16.625  14.369  0.0110  0.1219 -0.2641
 1522W        W18370  15.329   5.867  12.259  0.1395  0.3240 -0.0552
 1523W        W18371   6.902   7.764  11.454  0.3112  0.0904  0.3877
 1524W        W18372  11.926  14.044   0.799 -0.2555  0.1296  0.0443
 1525W        W18373  16.937   7.330  15.914  0.1004  0.0208  0.1190
 1526W        W18374  16.541  17.219   0.206 -0.2556  0.0377  0.0214
 1527W        W18375   6.939   5.116   4.178  0.0222 -0.1468  0.1698
 1528W        W18376   7.169  14.309   2.594  0.3772  0.2826  0.0815
 1529W        W18377  13.336  13.166  15.587  0.1325 -0.6227 -0.0675
 1530W        W18378   0.394  12.259  12.545  0.0518  0.0731 -0.3053
 1531W        W18379  15.389  16.238   2.665  0.0321  0.0372  0.1428
 1532W        W18380   4.290  16.440  13.968 -0.1978 -0.1071  0.3004
 1533W        W18381  17.779   6.923   0.441  0.0231 -0.1552 -0.0673
 1534W        W18382  16.219  14.646  15.358 -0.1630  0.3019  0.0768
 1535W        W18383   7.529   9.780  12.267  0.0543  0.0699  0.2305
 1536W        W18384  10.360   7.740   1.018  0.1082 -0.1399  0.0187
 1537W        W18385  15.708  17.540   1.598 -0.1314  0.1501 -0.1270
 1538W        W18386   4.031   0.978   3.911 -0.3297  0.1509  0.2148
 1539W        W18387   8.290   0.371  10.701  0.2429 -0.2490  0.0494
 1540W        W18388   4.034   8.772  12.071  0.2079 -0.3909 -0.1686
 1541W        W18389   1.796   7.465   1.937 -0.0377  0.2685  0.0241
 1542W        W18390  10.006   6.615   3.284 -0.1300 -0.2659 -0.2636
 1543W        W18391   1.939   8.196   5.338  0.3690  0.1355  0.0120
 1544W        W18392  16.838   6.085   4.544  0.0208 -0.1384 -0.0938
 1545W        W18393  14.565  13.925   3.629 -0.3157  0.0875  0.2458
 1546W        W18394  14.389  16.334  14.250 -0.0847 -0.1783  0.6036
 1547W        W18395   2.163   5.721   1.365  0.1746 -0.1237  0.2090
 1548W        W18396  12.532   8.894  14.173 -0.0164  0.0617 -0.2488
 1549W        W18397  17.682  15.979   2.141 -0.4339  0.0671 -0.0201
 1550W        W18398   9.803   0.024  11.646 -0.2544  0.2982  0.0112
 1551W        W18399   0.862  16.386  15.049  0.0111  0.1965 -0.3067
 1552W        W18400   5.752   7.967   0.170  0.1249 -0.1631 -0.2324
 1553W        W18401   0.471   7.701  14.042  0.0353  0.2993 -0.1932
 1554W        W18402  13.639   6.704  13.594 -0.2915 -0.0848 -0.2507
 1555W        W18403  14.814  13.646  16.048 -0.1349 -0.2711 -0.2902
 1556W        W18404  17.497  14.264   1.882  0.0298  0.2844  0.0208
 1557W        W18405  14.685   0.082   1.961 -0.1726  0.0117  0.0108
 1558W        W18406  14.142   5.076  15.230  0.0390 -0.0965  0.1550
 1559W        W18407   0.471  13.219   5.188  0.1101  0.1305 -0.1449
 1560W        W18408  11.488   7.504  13.598  0.3850  0.1818  0.0474
 1561W        W18409  16.043   2.839   4.549  0.0456 -0.0489 -0.1639
 1562W        W18410   1.814  14.294  12.810  0.1068  0.3485  0.2839
 1563W        W18411   3.010   9.703  11.117  0.1009  0.0601 -0.0592
 1564W        W18412   9.426   2.745   3.823 -0.0408  0.1649 -0.0760
 1565W        W18413   6.399   1.342  13.650  0.1496 -0.0431 -0.0513
 1566W        W18414   4.242  12.732   1.557  0.0327 -0.0696 -0.0084
 1567W        W18415  10.915  13.964  12.231 -0.0405  0.0910 -0.1017
 1568W        W18416   9.457  14.637   2.350  0.0848  0.2714 -0.2053
 1569W        W18417  13.035   2.691  10.669  0.1972  0.0093  0.0789
 1570W        W18418  15.631   8.008   0.833  0.1933  0.2178 -0.0622
 1571W        W18419  15.659   9.162   3.625  0.2365  0.0344 -0.1572
 1572W        W18420  15.305   9.771  15.998  0.1868 -0.2318  0.0869
 1573W        W18421  17.518  14.753   3.721  0.0177  0.0736 -0.0359
 1574W        W18422   0.175   1.210   5.022 -0.2667  0.3679  0.2638
 1575W        W18423   6.230   7.150  14.836  0.1059 -0.2481 -0.0368
 1576W        W18424   8.607  10.522  14.487 -0.1115 -0.3108 -0.3352
 1577W        W18425   1.186  13.787  13.744  0.2343  0.0180 -0.1160
 1578W        W18426   4.480  14.858   4.849  0.2947 -0.1450  0.0870
 1579W        W18427   6.448   7.777   1.412  0.1221  0.0230 -0.1455
 1580W        W18428  17.954   9.780   0.463  0.0390 -0.0086 -0.1454
 1581W        W18429  12.182   9.527   2.899 -0.0994 -0.1643  0.2048
 1582W        W18430  16.348   1.595  15.098  0.1405  0.1310 -0.1717
 1583W        W18431   2.428  16.301   3.163  0.0003  0.2008 -0.1967
 1584W        W18432   2.295  15.771  11.666  0.2670 -0.0067 -0.1295
 1585W        W18433   2.206  10.799   5.221 -0.0927 -0.0115 -0.2816
 1586W        W18434  16.763   3.676   2.062  0.4700 -0.0881 -0.0027
 1587W        W18435  11.243  14.913   4.337  0.2878 -0.0899 -0.2450
 1588W        W18436  11.888   9.211  15.301 -0.2540 -0.0144 -0.2923
 1589W        W18437  12.920  13.582   0.091 -0.1904 -0.2588  0.0261
 1590W        W18438   4.481   3.563   3.636  0.0362  0.1657 -0.2971
 1591W        W18439   7.074   8.322  14.773  0.0893  0.1901 -0.1191
 1592W        W18440  17.639  17.899  10.206 -0.3208  0.0639 -0.1846
 1593W        W18441  10.556   3.419   2.536  0.0332 -0.2721  0.0212
 1594W        W18442   2.596   9.637  11.536 -0.0758  0.0046 -0.1109
 1595W        W18443   9.767  16.858   3.084 -0.0270 -0.0949  0.0995
 1596W        W18444   6.587  15.015  14.723  0.1099  0.0490 -0.3039
 1597W        W18445   9.227   3.071   3.329  0.1487 -0.1368  0.2620
 1598W        W18446  10.469   8.210   4.139 -0.3384 -0.0353 -0.0839
 1599W        W18447   1.507  15.271   3.195  0.4656 -0.3851 -0.0697
 1600W        W18448  15.628   4.739  11.782 -0.2624 -0.0179 -0.2375
 1601W        W18449   8.720   8.261   6.113 -0.0246 -0.1299  0.0444
 1602W        W18450   4.362  12.407  12.618 -0.2340  0.0939  0.0852
 1603W        W18451   0.189   4.165   4.457  0.0545  0.2020  0.5110
 1604W        W18452   1.645  11.994   2.981 -0.1087 -0.0372  0.0445
 1605W        W18453   4.075  12.512  10.085 -0.0618 -0.1663 -0.0905
 1606W        W18454   6.121   1.079  10.122  0.2331  0.0525  0.2059
 1607W        W18455  16.857   0.499   3.639  0.1863 -0.2932  0.2248
 1608W        W18456   9.508   4.341   0.472 -0.1566  0.2174 -0.3036
 1609W        W18457  15.359  10.511  15.806  0.3241  0.3178  0.0149
 1610W        W18458   1.198   7.961  12.261 -0.1444  0.2537 -0.0224
 1611W        W18459   9.791  18.215  14.727 -0.1403  0.0732  0.0437
 1612W        W18460   6.656   5.622   4.349  0.1742  0.0187 -0.1373
 1613W        W18461   9.806   9.477   4.589  0.5817  0.2541  0.3370
 1614W        W18462  13.475   9.206  12.133 -0.0370 -0.2604 -0.4340
 1615W        W18463   5.910  11.246  15.281 -0.1887  0.0563 -0.0797
 1616W        W18464  11.110   8.299   1.307 -0.0879  0.3412  0.0615
 1617W        W18465   2.926  18.213   3.549 -0.0867  0.1989  0.1595
 1618W        W18466   8.655  17.235   4.989 -0.0840  0.2025 -0.0180
 1619W        W18467  11.358   0.544   3.905 -0.0304 -0.0616 -0.2847
 1620W        W18468   0.365   5.288  11.439 -0.2286  0.0483 -0.3440
 1621W        W18469   4.857  17.798  12.458 -0.1455  0.0552  0.2067
 1622W        W18470  10.056  12.466  14.603  0.1638 -0.0009 -0.0340
 1623W        W18471   0.833  15.787  14.360 -0.0511  0.3384 -0.1205
 1624W        W18472   0.951  10.383  11.635  0.1521 -0.0210  0.1148
 1625W        W18473   8.072  18.155   3.475 -0.0916 -0.2401  0.0511
 1626W        W18474  12.747   1.655   3.991  0.1992  0.0333 -0.0395
 1627W        W18475  16.613   0.625   1.437  0.1870 -0.1168 -0.0751
 1628W        W18476  17.110   6.571  13.963 -0.0253  0.1549  0.0309
 1629W        W18477   9.563   5.197  13.669  0.2357  0.2143  0.0010
 1630W        W18478   5.938  13.664  15.926 -0.0966  0.2315 -0.1260
 1631W        W18479  10.323  16.304   0.620 -0.1889 -0.2634 -0.0484
 1632W        W18480   2.173   8.833  11.678 -0.2216  0.0615  0.2635
 1633W        W18481  14.161   6.131   1.634 -0.1563 -0.0696  0.3379
 1634W        W18482   3.479   8.284   3.533  0.0731 -0.1636 -0.3273
 1635W        W18483   0.285   9.309   5.548 -0.4363  0.2101  0.0012
 1636W        W18484   9.453  17.752   2.778  0.3166 -0.2484 -0.2247
 1637W        W18485  17.899   0.329  12.637 -0.2903 -0.2081  0.2017
 1638W        W18486   4.679   8.524   0.860  0.3783  0.0064 -0.1823
 1639W        W18487  10.562   4.894   1.664 -0.1990 -0.2069 -0.0900
 1640W        W18488   9.791   1.617   0.560  0.1302  0.1599 -0.0220
 1641W        W18489  13.911  15.829  15.323  0.0653  0.3183 -0.1001
 1642W        W18490  13.070   1.313  15.479 -0.0980  0.0051 -0.2300
 1643W        W18491   2.892   5.527  13.571  0.0252 -0.0086 -0.0291
 1644W        W18492   4.030   5.601   3.525 -0.0146  0.0399  0.2183
 1645W        W18493   3.173   7.800  10.483 -0.0087 -0.4348  0.0823
 1646W        W18494   6.123   5.039   1.459 -0.1090 -0.2729 -0.2197
 1647W        W18495  16.558   2.807  12.662  0.1437  0.0894  0.2543
 1648W        W18496  13.929  16.932   3.736  0.3817  0.1676  0.1954
 1649W        W18497   5.770  14.274  15.426  0.0493  0.1753  0.0953
 1650W        W18498   3.697   1.881  15.393  0.1385 -0.2018 -0.0008
 1651W        W18499  12.216  13.864   4.325  0.0738 -0.0270 -0.0285
 1652W        W18500  14.147   3.409   0.918 -0.2831  0.1754 -0.0309
 1653W        W18501   7.864  17.683   3.428  0.2140  0.1794  0.0751
 1654W        W18502   9.624  17.088   1.505 -0.0247  0.1944 -0.0033
 1655W        W18503   2.086  13.130   4.076  0.0135  0.2500 -0.1041
 1656W        W18504   5.984  11.096   1.629  0.0411  0.2074  0.0376
 1657W        W18505  12.156  14.106  11.995 -0.1833  0.3845  0.0751
 1658W        W18506   8.212   6.119   0.572  0.1461  0.1913  0.0474
 1659W        W18507  12.427  17.293   4.879  0.0552  0.1291  0.0394
 1660W        W18508   4.332   1.512  13.852 -0.0457  0.0207 -0.1837
 1661W        W18509  10.667  14.680  13.642  0.3094 -0.0127  0.0204
 1662W        W18510  13.990  13.812   5.286  0.2188  0.0574  0.1064
 1663W        W18511  12.070  14.372   4.245  0.0591  0.2417  0.0758
 1664W        W18512   7.948  10.757   4.583 -0.0668 -0.2218 -0.0915
 1665W        W18513  16.822   3.312   4.319 -0.2588  0.3150  0.0849
 1666W        W18514  10.946   1.447   3.007 -0.1124  0.0604  0.0529
 1667W        W18515   2.234  17.521  13.118  0.1147 -0.2563  0.0144
 1668W        W18516   0.857   6.235  12.025 -0.1383  0.1664  0.0332
 1669W        W18517   4.750  17.116   1.583  0.0572  0.0127  0.2942
 1670W        W18518   4.273   0.932   3.492 -0.1082  0.1623 -0.0212
 1671W        W18519  10.622  17.703   2.341 -0.0873 -0.5498  0.1938
 1672W        W18520  11.450  10.829  14.625  0.0378  0.2486 -0.4850
 1673W        W18521   9.626  18.029   0.334 -0.0050  0.5130  0.0726
 1674W        W18522  16.927   9.652  14.629 -0.1474 -0.0517  0.1918
 1675W        W18523  10.780   0.704  13.510  0.4772 -0.0613 -0.1518
 1676W        W18524  16.744  16.178   2.327 -0.0847 -0.2703  0.0695
 1677W        W18525   9.610   3.267   3.090  0.0087 -0.0344  0.2916
 1678W        W18526  17.981  10.454   1.467 -0.1066 -0.1176  0.1776
 1679W        W18527   6.624  13.882  15.321 -0.1567 -0.0999  0.4844
 1680W        W18528  11.900   3.620   1.016  0.1259 -0.2564  0.1574
 1681W        W18529   9.034  14.439   0.033 -0.0386  0.3810  0.0159
 1682W        W18530  10.395   3.769   0.564  0.1277 -0.0748  0.2323
 1683W        W18531   3.237  16.726  10.127 -0.0029 -0.4477 -0.1191
 1684W        W18532   1.139   4.283   3.941  0.1898 -0.1544 -0.0303
 1685W        W18533   2.766  14.163   3.170  0.1162 -0.0177  0.2057
 1686W        W18534  13.626   3.063   0.023 -0.2058 -0.1520 -0.1164
 1687W        W18535  11.830  16.846   4.195 -0.1069  0.1128  0.1052
 1688W        W18536  16.537   5.867  13.000  0.0439  0.2102 -0.0944
 1689W        W18537  15.683   0.931  14.008 -0.0790 -0.1018 -0.1020
 1690W        W18538  17.207   8.757   3.771  0.0168  0.4408  0.2272
 1691W        W18539   7.179  13.617   3.449 -0.0974  0.3866  0.0838
 1692W        W18540   8.256   2.169   3.729 -0.1864  0.0205 -0.2383
 1693W        W18541  18.019  14.758   2.321  0.2515  0.0080  0.0962
 1694W        W18542  17.920  15.872   1.133  0.2896 -0.1169  0.0636
 1695W        W18543   6.233   5.609  15.615 -0.0139 -0.0674  0.1322
 1696W        W18544   6.820  13.421  13.473 -0.2285  0.1723 -0.4544
 1697W        W18545   6.514   6.757  14.928  0.0867 -0.0687 -0.2278
 1698W        W18546  17.785   7.247  16.108  0.3123 -0.2047  0.0140
 1699W        W18547   5.566   5.545   0.612 -0.2392 -0.0182  0.1827
 1700W        W18548  10.947   0.410   3.592 -0.3120  0.2088  0.1201
 1701W        W18549  16.736  13.523  12.860  0.1578 -0.0537  0.0165
 1702W        W18550  14.088  14.889  11.761  0.0043  0.2826 -0.1842
 1703W        W18551   2.989   4.368  13.700 -0.3594  0.0660 -0.2983
 1704W        W18552  14.452  14.045   1.987  0.0278 -0.0826  0.0920
 1705W        W18553   8.980  14.261  11.371  0.0503 -0.0628 -0.0475
 1706W        W18554  13.381   2.245   2.155  0.3441 -0.1609 -0.1261
 1707W        W18555   6.701  12.187  15.975  0.3990 -0.0836 -0.1128
 1708W        W18556   6.333   7.119   4.382  0.0940  0.0015 -0.1622
 1709W        W18557   8.355  13.167  12.722  0.0164  0.1408 -0.0529
 1710W        W18558   9.325  10.167   1.915 -0.0252  0.2690 -0.0614
 1711W        W18559   1.085   7.901  13.363  0.1199  0.0507 -0.1676
 1712W        W18560   6.048   0.672   4.023 -0.1744  0.0890  0.1169
 1713W        W18561   0.943   3.701  11.838  0.2207 -0.3405 -0.0170
 1714W        W18562   3.209  10.475   4.496 -0.1785 -0.2676  0.1479
 1715W        W18563   6.995   0.262  12.353 -0.0175 -0.2359 -0.0573
 1716W        W18564  14.770   4.563  15.642 -0.1512  0.0614 -0.0004
 1717W        W18565   2.191   3.643  15.967 -0.2632 -0.0921  0.3338
 1718W        W18566  10.498  10.394  11.980  0.0347  0.1284  0.2465
 1719W        W18567  11.015   6.448   3.245 -0.1059  0.2874  0.1670
 1720W        W18568   1.905  17.167   3.456  0.0811 -0.0382 -0.1830
 1721W        W18569   1.659   6.139  14.080  0.4802 -0.0595 -0.1688
 1722W        W18570   1.763   3.765   0.845 -0.0356  0.0300 -0.0626
 1723W        W18571  11.001   1.819  15.750  0.1871  0.0680 -0.1211
 1724W        W18572   6.395  10.600   0.774 -0.1770 -0.1338 -0.0488
 1725W        W18573  16.246  13.783   1.814 -0.1203 -0.2227 -0.0012
 1726W        W18574   1.532   9.578  11.392  0.0036 -0.0385 -0.2995
 1727W        W18575   8.269   0.023  11.942  0.2144 -0.0631  0.3969
 1728W        W18576   2.595   6.964  13.946  0.0331 -0.6154 -0.1976
 1729W        W18577   4.667  13.669   3.516  0.3080  0.3065  0.0830
 1730W        W18578  15.784  10.498  15.098  0.2065  0.0830  0.1211
 1731W        W18579   2.495   9.040  14.563 -0.0140  0.0231 -0.0542
 1732W        W18580   1.855   1.643  15.569  0.3886  0.1937 -0.0275
 1733W        W18581  16.818  16.570   3.005 -0.0560 -0.0114 -0.5079
 1734W        W18582   1.353  11.133  15.660 -0.1357  0.2041  0.0961
 1735W        W18583   2.142  17.572  14.295 -0.0418  0.1571  0.1588
 1736W        W18584  14.882   8.844   0.433  0.2352  0.0778 -0.0037
 1737W        W18585   9.080   4.154  12.906  0.2242 -0.2120 -0.2654
 1738W        W18586   5.505  17.215   1.436  0.0907 -0.2297  0.1754
 1739W        W18587   8.403  11.119  13.645 -0.1920 -0.2951  0.2227
 1740W        W18588  12.690   4.373   2.646  0.0591 -0.3926 -0.3379
 1741W        W18589   4.254  14.399   0.895  0.1246  0.1673 -0.1737
 1742W        W18590   2.526   3.607   2.383  0.2097 -0.1193 -0.0872
 1743W        W18591   3.179   8.620   2.855  0.1242  0.0249  0.3709
 1744W        W18592  15.153  16.045   1.715 -0.2682  0.4894 -0.1721
 1745W        W18593   2.331   0.758  13.852 -0.2350 -0.1841  0.1092
 1746W        W18594   0.688  15.510   3.482 -0.1680  0.0504  0.0208
 1747W        W18595  10.791  10.533   3.245  0.1945 -0.0566  0.2221
 1748W        W18596   6.427   2.448   1.279  0.0721  0.0397  0.2034
 1749W        W18597   0.979   4.692  14.836 -0.2685  0.4262 -0.1506
 1750W        W18598  11.616  13.708  15.382  0.3296 -0.1794 -0.0454
 1751W        W18599   7.135  16.675   3.672  0.0661  0.1209  0.0323
 1752W        W18600  13.078   3.109   2.202  0.0047 -0.1445  0.3842
 1753W        W18601  16.995  13.159   2.520  0.1687 -0.2044 -0.1184
 1754W        W18602   7.079   2.829   2.232 -0.0565  0.0528 -0.1339
 1755W        W18603   5.377   1.079  14.969 -0.0601  0.1981  0.3419
 1756W        W18604   9.808   2.748   1.149  0.0854  0.5259  0.0553
 1757W        W18605  11.863  16.190   3.044  0.0451 -0.2249  0.0954
 1758W        W18606   0.334  11.255  11.289 -0.4297 -0.1116 -0.0989
 1759W        W18607   0.947  16.474  15.617 -0.0350  0.0010 -0.1981
 1760W        W18608  11.549  11.520   5.561 -0.0491  0.1359 -0.1167
 1761W        W18609   1.478   5.448   5.755 -0.3228  0.0690  0.0320
 1762W        W18610   0.148  10.840  14.343  0.0657  0.1449 -0.0852
 1763W        W18611   1.715  18.095   4.100  0.1477  0.0244  0.0935
 1764W        W18612  12.284  17.666   3.854  0.2497 -0.1214  0.2649
 1765W        W18613  14.518  16.524   0.243  0.3279 -0.2063 -0.1949
 1766W        W18614   5.497   9.113  11.030 -0.0252  0.0192 -0.0307
 1767W        W18615  14.823   7.979  11.996  0.0440  0.3308 -0.0726
 1768W        W18616  17.434   3.087   3.502  0.1106 -0.1074  0.3155
 1769W        W18617  15.491   5.101   4.718  0.1662  0.0630  0.2113
 1770W        W18618   4.595  12.004  14.389  0.0575  0.2849  0.2362
 1771W        W18619   8.459  11.255   1.546 -0.0780 -0.1825 -0.1298
 1772W        W18620   9.603   0.760   4.291  0.2867 -0.1236 -0.0829
 1773W        W18621   4.014  12.897  10.520  0.3412  0.0792  0.0174
 1774W        W18622  15.790  11.307  15.768  0.2584 -0.0540  0.0104
 1775W        W18623   8.866  14.158   0.898  0.2146 -0.0294 -0.0632
 1776W        W18624  13.514  14.088   0.672  0.1518  0.1958  0.1240
 1777W        W18625   5.462  14.356   1.996  0.2053  0.1021 -0.0152
 1778W        W18626   7.157  15.647  13.773  0.2002  0.1136 -0.1779
 1779W        W18627   4.177   4.027   3.850 -0.1455 -0.0404 -0.3214
 1780W        W18628  15.883  10.030   5.349 -0.1923 -0.1685 -0.2121
 1781W        W18629  15.824   5.912   4.086  0.1618 -0.1740  0.0730
 1782W        W18630   4.087  13.672  12.095 -0.3211 -0.0532 -0.2280
 1783W        W18631   3.114   4.426   1.847 -0.1191 -0.0175  0.0274
 1784W        W18632  17.689  12.835   1.489  0.2988 -0.0527 -0.4038
 1785W        W18633  10.025   1.984  11.744  0.2350 -0.0912 -0.2058
 1786W        W18634   5.653   5.219  13.979 -0.0032  0.3510  0.0264
 1787W        W18635   6.923  14.962   4.139 -0.0193  0.1059 -0.0274
 1788W        W18636   7.706   4.206  15.362 -0.3298  0.2050 -0.3062
 1789W        W18637   0.353   7.449   5.047  0.0457  0.0311  0.0509
 1790W        W18638  14.636  13.669   2.596 -0.0170 -0.1843  0.0402
 1791W        W18639   8.303   9.760   5.227  0.2769 -0.1903  0.0967
 1792W        W18640   6.429   8.286   1.169 -0.0994  0.2446  0.0168
 1793W        W18641   8.941   5.126  11.599 -0.0028 -0.2930 -0.4048
 1794W        W18642   0.543  10.834   4.768  0.1629 -0.0642 -0.3932
 1795W        W18643  16.211  12.000  15.472 -0.1166 -0.5701  0.2163
 1796W        W18644  11.776  14.007   0.180 -0.2342 -0.1385  0.0016
 1797W        W18645  18.173   1.384  15.970  0.5056 -0.2200 -0.2732
 1798W        W18646  10.980   3.005  12.696  0.1291 -0.1730 -0.2782
 1799W        W18647  11.532   8.926  14.490 -0.4010 -0.0871 -0.4025
 1800W        W18648   3.397   7.357   0.978 -0.0042  0.2485  0.3627
 1801W        W18649  10.213   7.734   3.868 -0.1345  0.0979  0.2382
 1802W        W18650  10.526   5.591   2.824  0.4761 -0.0007  0.1768
 1803W        W18651  11.402   8.807   5.108 -0.0499 -0.2406 -0.0199
 1804W        W18652   3.452   1.187   0.567 -0.0276  0.0351  0.0039
 1805W        W18653   9.566   1.286  13.262 -0.0148 -0.2552 -0.0010
 1806W        W18654   7.248   2.432   5.907 -0.1262 -0.1467  0.1663
 1807W        W18655   5.650   7.789   3.511 -0.2678 -0.1128  0.2181
 1808W        W18656  15.862   0.249   5.767 -0.0743 -0.0311 -0.0748
 1809W        W18657  17.963  16.871  11.801 -0.1353 -0.2383  0.0857
 1810W        W18658   0.676  17.220   0.875 -0.1214 -0.0354  0.0080
 1811W        W18659  13.101   7.700   1.630  0.2810  0.2264 -0.1560
 1812W        W18660   5.980   1.443   3.308 -0.2407 -0.0766  0.1281
 1813W        W18661   8.129  16.369   1.992 -0.0840 -0.1759  0.4703
 1814W        W18662   3.163   5.738   4.261 -0.0641  0.1091 -0.0011
 1815W        W18663   0.711  16.940  11.006  0.3461 -0.1250  0.2241
 1816W        W18664   0.766  17.231  14.430  0.0529  0.0016  0.2987
 1817W        W18665  11.743   9.908   0.761 -0.1488 -0.1041 -0.0066
 1818W        W18666  16.937   0.103  15.545 -0.1699  0.3797  0.1627
 1819W        W18667   6.301  15.833  13.653  0.0475 -0.0334 -0.1502
 1820W        W18668  14.715  14.156  12.345  0.4828 -0.3081 -0.1069
 1821W        W18669  16.862  14.089  11.131  0.1729  0.0133 -0.0588
 1822W        W18670   1.641  15.716  15.066  0.2465 -0.1329 -0.1946
 1823W        W18671   8.454  12.865   4.662 -0.4014  0.0711  0.1985
 1824W        W18672  14.820  12.087   1.612 -0.0877  0.4484  0.0861
 1825W        W18673   5.835   4.372  11.889  0.0928 -0.1027  0.1343
 1826W        W18674  11.981  12.522   1.896  0.1468 -0.0849  0.1970
 1827W        W18675  15.756   5.035  12.658 -0.0929  0.2577 -0.3344
 1828W        W18676  17.937   1.989   0.693 -0.1152  0.1892  0.0559
 1829W        W18677  10.546  10.920   3.467 -0.0275  0.0424  0.3346
 1830W        W18678   5.479   8.252   2.435 -0.0122  0.2622 -0.0452
 1831W        W18679   1.440  17.625  11.547 -0.0970  0.1884 -0.0767
 1832W        W18680   7.118   5.637   4.142 -0.3134  0.0344  0.1793
 1833W        W18681  10.365   3.835   3.082  0.0186  0.2969  0.1359
 1834W        W18682  15.960  10.784   2.498  0.0926  0.1369  0.1991
 1835W        W18683   8.019   0.281  11.608 -0.2509 -0.1001  0.1829
 1836W        W18684   0.013  10.580  13.930 -0.0164  0.2055 -0.1121
 1837W        W18685  11.450   4.687  11.818 -0.1121  0.0111  0.1152
 1838W        W18686   1.613  17.321   0.360  0.0006  0.2870  0.0990
 1839W        W18687  14.836   3.584   4.986  0.3204  0.1511  0.0534
 1840W        W18688  16.113  16.728   3.685 -0.1282  0.1129 -0.1194
 1841W        W18689   6.672   5.676  12.606 -0.1354 -0.0441 -0.0438
 1842W        W18690  13.067   9.853   5.562 -0.2948  0.4708  0.0928
 1843W        W18691   1.635   7.588   3.609  0.2967 -0.0231 -0.4023
 1844W        W18692   6.205  11.248   3.581  0.4323 -0.1351  0.0162
 1845W        W18693   4.627   3.330  11.967 -0.1469  0.1221  0.2018
 1846W        W18694  14.340  14.988   4.214 -0.0810 -0.0345  0.1012
 1847W        W18695  13.663   7.035   0.920  0.2035  0.1729  0.1295
 1848W        W18696   5.801   9.068  12.100  0.3940  0.6574  0.1389
 1849W        W18697  10.169  12.896  11.536 -0.2240  0.0261 -0.1231
 1850W        W18698  14.647   9.584  12.946 -0.1898 -0.0379  0.0245
 1851W        W18699   6.497   7.703   3.540 -0.1858  0.2241  0.0900
 1852W        W18700   1.359   4.124   3.528 -0.1913 -0.1205 -0.2072
 1853W        W18701   7.771  17.255  12.483  0.1004 -0.3074 -0.1609
 1854W        W18702   3.550  17.757  14.246  0.0929  0.1921 -0.2436
 1855W        W18703   4.970   2.699   4.066 -0.2148  0.2023 -0.1057
 1856W        W18704   4.752  15.579  15.056 -0.1905 -0.3283  0.2933
 1857W        W18705  15.128   3.491  13.794 -0.0155 -0.0912 -0.2726
 1858W        W18706  13.888  17.606   1.085 -0.1564 -0.0081  0.1938
 1859W        W18707  10.158  17.975  12.906 -0.0675 -0.0226 -0.0659
 1860W        W18708   9.892   6.945  11.645 -0.0287 -0.1540  0.2195
 1861W        W18709  13.566  11.771  15.000  0.1879  0.1054 -0.0160
 1862W        W18710  10.474   4.796   3.576  0.2324  0.1725 -0.2691
 1863W        W18711   2.833   0.036   1.831 -0.1464 -0.1774 -0.2093
 1864W        W18712  17.252   8.960   5.272  0.2834 -0.1567 -0.0089
 1865W        W18713   7.884   7.330  11.628 -0.0676  0.0231 -0.0075
 1866W        W18714  11.105  12.532  15.654  0.1211  0.0435  0.1533
 1867W        W18715  18.169  10.132   3.512 -0.0230 -0.1273 -0.0349
 1868W        W18716   3.763   9.622   5.349  0.0587 -0.0755 -0.1209
 1869W        W18717  13.810  10.441  14.981 -0.2550  0.1638  0.1245
 1870W        W18718   5.011   1.527  12.900 -0.0631 -0.2356  0.0403
 1871W        W18719   9.630  12.590   3.876 -0.3677  0.1780 -0.0220
 1872W        W18720   9.612  16.682   3.549  0.2551  0.0009  0.3372
 1873W        W18721  11.480   8.909  13.155  0.0328 -0.1411  0.0193
 1874W        W18722  17.011  12.272   1.929 -0.0129 -0.0140  0.0694
 1875W        W18723  15.190  11.563   2.172 -0.1349 -0.2179 -0.3756
 1876W        W18724  11.407  14.113  15.424  0.1304  0.0893  0.3099
 1877W        W18725  11.019  18.092  15.602  0.0277  0.3464  0.1049
 1878W        W18726   6.958  11.787   2.631 -0.1100  0.1583  0.1735
 1879W        W18727   0.047  17.553  14.206 -0.2359  0.1119  0.2367
 1880W        W18728   2.474  15.611   3.088 -0.3507  0.0590 -0.2337
 1881W        W18729  10.425   2.277   4.290 -0.0711  0.0808  0.0026
 1882W        W18730  12.496   8.715  10.557  0.0939  0.0142 -0.0034
 1883W        W18731   5.176  11.862   2.258 -0.1488 -0.0090  0.4649
 1884W        W18732  16.280   8.829   1.691 -0.1442 -0.2238 -0.0409
 1885W        W18733   3.589  10.907   2.992 -0.0463 -0.0523 -0.1269
 1886W        W18734  15.441  12.957   0.780  0.0016  0.0782  0.4862
 1887W        W18735  15.799   4.866  14.146 -0.2227  0.0561  0.0703
 1888W        W18736   6.723   8.857  11.299  0.0493  0.0857  0.3157
 1889W        W18737   6.273   3.018   2.709  0.2219 -0.3422 -0.2848
 1890W        W18738   9.864  15.061  12.062 -0.2488 -0.2536 -0.0017
 1891W        W18739   7.324   7.298   0.045 -0.0130 -0.0877 -0.1363
 1892W        W18740   9.557   5.195   0.143  0.3346  0.0273  0.0748
 1893W        W18741  11.616   9.764  13.326  0.3374  0.1703  0.2914
 1894W        W18742   2.523   5.613  15.004  0.1425  0.3249 -0.1336
 1895W        W18743  12.716  17.354   0.273  0.0390 -0.1379  0.2335
 1896W        W18744   2.435   3.072   4.412  0.0056  0.1214 -0.0723
 1897W        W18745   2.513   4.365   0.549 -0.1813 -0.0636 -0.0922
 1898W        W18746  15.898  14.169  11.704 -0.2435 -0.1996  0.0790
 1899W        W18747  12.227  17.139   0.303 -0.0821  0.2156 -0.0068
 1900W        W18748  13.244   6.087  14.527 -0.3644  0.2805 -0.2128
 1901W        W18749   1.491   3.768  13.040  0.0970 -0.2769  0.1752
 1902W        W18750   1.536   4.605   4.078 -0.0970  0.2965  0.0705
 1903W        W18751  14.154   5.440   3.971 -0.0169  0.0014  0.3605
 1904W        W18752   3.793  15.160  13.711  0.0976  0.0859 -0.1534
 1905W        W18753  13.879   0.466   3.931 -0.0488  0.3854 -0.0277
 1906W        W18754   9.904   3.085  11.782 -0.3026  0.0355 -0.1315
 1907W        W18755   8.606   0.064   4.996 -0.2643 -0.3833 -0.3856
 1908W        W18756   6.838  10.675  12.164 -0.3734 -0.3595  0.0537
 1909W        W18757  10.274   3.276   0.872 -0.0896 -0.1819  0.0955
 1910W        W18758   1.597  13.027   1.362  0.1790  0.0417  0.4393
 1911W        W18759   1.853   0.560  13.891 -0.0417  0.0710  0.0302
 1912W        W18760   4.143   7.058  13.810  0.1037 -0.1063  0.0622
 1913W        W18761  16.685  15.129  14.743  0.0596  0.0232 -0.0636
 1914W        W18762  14.289   1.780  12.514 -0.0809  0.1810 -0.0287
 1915W        W18763   2.274   3.580   3.814 -0.0316  0.0293 -0.0749
 1916W        W18764   6.643   0.603   1.102 -0.0211 -0.1121 -0.0337
 1917W        W18765   5.775   2.616  12.318  0.2726  0.1967  0.1487
 1918W        W18766   7.153   0.091  13.676 -0.2282  0.2828 -0.0316
 1919W        W18767  11.715  14.626  14.219 -0.1154  0.0884  0.1134
 1920W        W18768  10.963  17.873  11.171  0.0868  0.1246 -0.0563
 1921W        W18769  18.117   3.341   2.191  0.0642  0.0534 -0.1284
 1922W        W18770   3.470  18.205   3.371 -0.1580  0.1050  0.2943
 1923W        W18771  15.205   0.917  12.182 -0.0676  0.0309  0.0547
 1924W        W18772  15.526  14.358  13.644 -0.2527 -0.1382 -0.2245
 1925W        W18773  12.789  11.083   1.404  0.0870 -0.0922 -0.0117
 1926W        W18774   4.919  12.741  16.026  0.4530 -0.0424 -0.3805
 1927W        W18775  10.525   3.003  12.903  0.2075  0.0755  0.2971
 1928W        W18776   9.417   7.639  15.813  0.0291  0.2034 -0.0539
 1929W        W18777   3.865   5.909   3.131 -0.0870  0.2316 -0.2138
 1930W        W18778  12.989  17.259   0.711  0.0146  0.0507 -0.3644
 1931W        W18779   1.522   3.290   2.174  0.0096 -0.2199 -0.2312
 1932W        W18780   1.502  12.780   0.779  0.1730 -0.0651 -0.0544
 1933W        W18781   5.215  17.780  12.087  0.0104 -0.0663  0.0663
 1934W        W18782  12.278  15.886   4.424  0.0778 -0.2130 -0.0191
 1935W        W18783  12.525  16.613   2.592 -0.5399 -0.0839 -0.0849
 1936W        W18784  18.212   3.662  11.575 -0.0147  0.0518  0.0576
 1937W        W18785   5.845  14.478  13.881 -0.1506 -0.0050 -0.1860
 1938W        W18786   0.333   2.316   3.773 -0.1026  0.0261 -0.0993
 1939W        W18787   3.229   5.992  13.353 -0.1225  0.2338  0.2064
 1940W        W18788  17.134   9.942  14.219  0.0418 -0.0825  0.1928
 1941W        W18789  10.992  11.734  14.920 -0.1955 -0.2107 -0.1627
 1942W        W18790  16.592  10.100   0.313  0.0904  0.0998 -0.1559
 1943W        W18791   7.888   6.044  12.486 -0.1683  0.1327 -0.1818
 1944W        W18792   8.714  16.099  10.638  0.2542 -0.0883  0.0104
 1945W        W18793   3.838   3.290  11.273  0.0841 -0.0579  0.3171
 1946W        W18794  12.443   6.625   6.188 -0.0417 -0.0118  0.1941
 1947W        W18795  11.674   9.472  12.098  0.0841  0.2009  0.0979
 1948W        W18796  10.328   7.184  11.724  0.1792  0.1745 -0.0776
 1949W        W18797   0.365  13.232   3.621  0.2225  0.0253 -0.1036
 1950W        W18798  14.037   2.777   3.426  0.1714 -0.1218  0.0778
 1951W        W18799  17.251  13.859  11.996  0.1819  0.1399  0.3109
 1952W        W18800   0.706   8.734  15.965  0.0955  0.1047 -0.1780
 1953W        W18801   4.371   0.525  13.131  0.0303  0.0967  0.0497
 1954W        W18802   8.427   5.919   2.500  0.2215  0.0021 -0.0967
 1955W        W18803   5.783  11.957   5.092  0.3245 -0.1614 -0.0975
 1956W        W18804  15.473  17.393   2.045  0.0125  0.0429 -0.0017
 1957W        W18805   8.275  10.161   6.161 -0.0433  0.0247  0.1427
 1958W        W18806   0.447   8.877   3.510  0.0904 -0.1221 -0.0042
 1959W        W18807   1.852   0.246  15.218  0.0431  0.0866  0.3626
 1960W        W18808  16.449  10.440  13.543  0.2376 -0.1279  0.0140
 1961W        W18809  13.344  15.170   5.644  0.1901  0.0711  0.0929
 1962W        W18810  12.804   8.071   1.490  0.2653 -0.0355  0.3345
 1963W        W18811   7.387   8.961   3.109  0.4171 -0.0656  0.0285
 1964W        W18812   5.143  15.860   5.754 -0.2994 -0.0817 -0.4523
 1965W        W18813  12.932  12.472   0.828 -0.0251 -0.0781 -0.0936
 1966W        W18814  14.159  11.632   6.019 -0.0429 -0.0492  0.0861
 1967W        W18815  11.439  16.091  15.227  0.0369 -0.1106 -0.0848
 1968W        W18816  11.691   6.736   4.168  0.5037 -0.0486 -0.2461
 1969W        W18817  12.973   5.722   1.571 -0.0449  0.1319 -0.2533
 1970W        W18818  14.573  11.259   5.791  0.0884 -0.0131  0.3447
 1971W        W18819  15.691   2.179  12.044  0.0712  0.0623 -0.2365
 1972W        W18820  17.467   9.450   1.665  0.1222  0.1705  0.1719
 1973W        W18821   3.562   3.767  14.941  0.1488 -0.0569  0.2112
 1974W        W18822   3.563  16.735  15.109 -0.1363 -0.0840  0.1324
 1975W        W18823  11.762   6.872   2.675 -0.2042  0.2307 -0.0768
 1976W        W18824  14.225   2.714  10.112  0.0344 -0.0441 -0.1468
 1977W        W18825  12.175   6.189  11.117 -0.1498  0.0121  0.2836
 1978W        W18826   2.084   1.619   3.413 -0.1686 -0.1255 -0.2795
 1979W        W18827  16.877   0.931  12.088  0.1002  0.4153  0.0547
 1980W        W18828   0.251  11.948  13.031 -0.2234  0.1720 -0.2648
 1981W        W18829   8.620   4.622  12.252 -0.2917  0.0565 -0.1367
 1982W        W18830  15.203   6.665   3.520 -0.0623 -0.0035  0.1445
 1983W        W18831   2.621  17.967   0.083  0.1625  0.2262  0.0783
 1984W        W18832  11.643   8.193   0.617  0.0020  0.0437 -0.2797
 1985W        W18833  15.914   0.134   0.595 -0.0004 -0.1987 -0.1226
 1986W        W18834  13.243   1.530  13.761 -0.1287  0.1935  0.0781
 1987W        W18835  13.681  17.503   2.515 -0.2225 -0.1200 -0.2680
 1988W        W18836   2.761   0.875   2.577 -0.0363 -0.2390 -0.0955
 1989W        W18837   4.557   9.917   2.820 -0.0254  0.1641  0.2018
 1990W        W18838   4.670  13.517   1.815 -0.3059 -0.0855 -0.2369
 1991W        W18839   9.016  15.483   4.665  0.3836 -0.4377  0.1242
 1992W        W18840  16.867   3.260  15.752  0.0212  0.0147  0.1377
 1993W        W18841  13.442  17.670  11.284  0.0165 -0.1251 -0.2491
 1994W        W18842   0.269   5.684  14.912  0.0936 -0.0274 -0.1112
 1995W        W18843   4.479   4.985  12.548 -0.1475  0.1708 -0.1868
 1996W        W18844   4.942  13.516  12.929  0.1140 -0.0974 -0.1640
 1997W        W18845   5.582  11.795  14.655  0.2092  0.0071  0.0655
 1998W        W18846  11.877   4.687  12.319 -0.0036  0.1531 -0.1708
 1999W        W18847   1.691   8.634   3.898 -0.0518  0.0094  0.0992
 2000W        W18848   8.833   3.323   4.211 -0.2245  0.0838  0.2686
 2001W        W18849  10.945   4.979   4.373 -0.1055 -0.2470  0.1569
 2002W        W18850  15.671   7.819   3.915 -0.0142 -0.0070 -0.0467
 2003W        W18851  18.063   5.388  11.534  0.0634 -0.0724  0.1991
 2004W        W18852   2.218   1.562  15.979  0.0115  0.0547 -0.1363
 2005W        W18853   6.818   9.020   1.067  0.0957 -0.3282 -0.1311
 2006W        W18854  12.227   9.974   2.637 -0.2662 -0.1055  0.2206
 2007W        W18855  15.390   6.382   1.264  0.1642  0.0749  0.3483
 2008W        W18856   6.333   1.951   2.783 -0.1112 -0.1910  0.2312
 2009W        W18857  15.961  16.439  13.078 -0.1302 -0.0906 -0.1851
 2010W        W18858  13.353  11.761   1.213  0.2484 -0.0707  0.2424
 2011W        W18859   5.028   2.588  11.694  0.0547  0.3531  0.1072
 2012W        W18860  14.291   2.891   2.976  0.0502 -0.1793  0.0298
 2013W        W18861   9.354   1.200   1.774 -0.0052  0.3403  0.3124
 2014W        W18862   2.827   4.017   1.199 -0.1613  0.0089  0.0147
 2015W        W18863  15.263  15.531  11.773  0.2825 -0.0666 -0.1588
 2016W        W18864   1.912   9.293  14.191 -0.2627  0.1853  0.0235
 2017W        W18865  10.959   2.740  15.761  0.4236  0.2251  0.0191
 2018W        W18866  17.517   5.724   0.746 -0.2866  0.0672 -0.0021
 2019W        W18867   4.104   5.627  15.270 -0.1389 -0.0894  0.1408
 2020W        W18868   8.927  13.860  11.077  0.2012 -0.0413  0.1809
 2021W        W18869  10.030   1.113   1.610 -0.0328  0.3508  0.0736
 2022W        W18870  10.396  12.320   2.615 -0.1844 -0.1001  0.2809
 2023W        W18871   2.305   5.459   1.818  0.0893  0.1075  0.0514
 2024W        W18872   0.309   6.052  10.241 -0.3129 -0.2659  0.0432
 2025W        W18873   0.306  13.632  15.391  0.0929  0.2296 -0.0527
 2026W        W18874  10.228  14.825   4.372  0.1128  0.0222 -0.0920
 2027W        W18875   2.382   2.595   4.276 -0.1754  0.0993 -0.1481
 2028W        W18876   3.464   4.119  13.571 -0.6320 -0.2093 -0.3512
 2029W        W18877   0.287  13.895   4.383  0.0249 -0.0588  0.2621
 2030W        W18878   3.410  15.742   2.999 -0.1447  0.1503  0.1452
 2031W        W18879  11.434  14.190  12.762 -0.1456 -0.0583 -0.3316
 2032W        W18880  10.094   3.929  14.633  0.1665 -0.1879 -0.2951
 2033W        W18881   6.880   1.522  12.035  0.2240  0.0849  0.1012
 2034W        W18882   8.554   7.512   4.083  0.1665  0.0766 -0.0687
 2035W        W18883   3.819  14.498   1.279 -0.0623  0.3264 -0.0444
 2036W        W18884   9.202  15.723  14.343 -0.1966  0.2683  0.3270
 2037W        W18885   9.637   6.548  13.021 -0.1761 -0.0609  0.0756
 2038W        W18886  13.463  14.743   1.422  0.0683 -0.2247 -0.0921
 2039W        W18887  17.668  16.911  15.272  0.1015  0.0077 -0.3397
 2040W        W18888   7.675   9.372  15.011 -0.1225  0.4555  0.0901
 2041W        W18889   6.972  14.383   0.224  0.2654 -0.0017  0.0079
 2042W        W18890   3.057  12.834   4.191  0.2539 -0.3352 -0.0454
 2043W        W18891  14.709  17.489   3.033 -0.0280  0.0040  0.0562
 2044W        W18892  11.153  15.015  12.094 -0.0127 -0.1926  0.2910
 2045W        W18893  12.659  17.318  15.191 -0.1491  0.2588 -0.2802
 2046W        W18894  10.214   2.254   3.843  0.2496 -0.1097  0.3893
 2047W        W18895   7.713   5.690   4.421  0.2054 -0.0010 -0.4016
 2048W        W18896   3.197   0.716   2.964  0.0792  0.2254 -0.3700
 2049W        W18897  11.342   2.001  11.459 -0.0693  0.1655 -0.0292
 2050W        W18898   9.687  12.953   5.619  0.0739 -0.3312 -0.2039
 2051W        W18899  13.114   2.396   2.654  0.2798  0.0046 -0.1330
 2052W        W18900  15.574   4.068  15.283 -0.2526 -0.0114 -0.1769
 2053W        W18901  16.316  16.903   3.186 -0.0798  0.1497  0.0687
 2054W        W18902   5.392   9.549  12.819 -0.0890 -0.1052  0.1918
 2055W        W18903  12.092   0.688  12.091  0.1887  0.2112  0.2785
 2056W        W18904   5.288   7.494  13.258  0.4583 -0.0890  0.0478
 2057W        W18905  17.329   9.336  12.588  0.1657 -0.1432  0.2095
 2058W        W18906   9.884   5.400   6.011  0.0806  0.3577 -0.1271
 2059W        W18907   0.188  11.192   1.459 -0.2028  0.0067 -0.1658
 2060W        W18908  11.059  15.196   5.084  0.0952  0.0072  0.3403
 2061W        W18909  17.778  15.263   3.986  0.1933 -0.2312 -0.4409
 2062W        W18910  15.724   1.675  12.876 -0.3675 -0.0566 -0.2111
 2063W        W18911   0.239  17.995  10.770  0.0324  0.0157 -0.1998
 2064W        W18912  12.715   5.309   3.262 -0.1685 -0.1078  0.2035
 2065W        W18913   0.603   6.332  15.718 -0.1033  0.0245 -0.0807
 2066W        W18914   2.613   8.697  14.108  0.2520 -0.1368  0.0235
 2067W        W18915  14.165  17.289   2.445  0.1295 -0.4104  0.1696
 2068W        W18916   2.412  13.482   2.773  0.1411  0.3024  0.1776
 2069W        W18917   7.473   5.627   5.116 -0.0165 -0.2073  0.1752
 2070W        W18918   1.234  13.558   4.565 -0.0176 -0.0694  0.2379
 2071W        W18919   8.133   8.422   0.188 -0.2863  0.0017  0.0042
 2072W        W18920  13.601  17.018  15.439  0.0454  0.0872  0.2496
 2073W        W18921   5.653   9.317   0.876 -0.2346 -0.1646 -0.0416
 2074W        W18922   2.727   2.576   5.042  0.3116 -0.0689 -0.3142
 2075W        W18923   2.305  13.831  11.334 -0.3860  0.0406  0.1088
 2076W        W18924  13.276  16.068   2.171  0.3021 -0.3534  0.0990
 2077W        W18925  16.665   8.676   1.395  0.2039 -0.3313 -0.2710
 2078W        W18926  13.525  10.310  14.583  0.0836 -0.0044  0.2870
 2079W        W18927   6.403   0.776  11.683 -0.2630  0.1015  0.4238
 2080W        W18928  17.205   8.183   0.659  0.0825 -0.1066 -0.2959
 2081W        W18929  10.992   1.211   0.708  0.3480  0.1034  0.0510
 2082W        W18930  14.357  15.674  14.090  0.2721 -0.3010  0.1933
 2083W        W18931  12.536  14.139   2.233  0.2171  0.1419 -0.0391
 2084W        W18932   2.878   1.348   1.670 -0.1390  0.3191 -0.1034
 2085W        W18933   1.061   4.358   1.238 -0.2146 -0.2341 -0.4241
 2086W        W18934  17.863   5.645  14.423 -0.0007 -0.0104 -0.0688
 2087W        W18935   6.963   0.796  12.474  0.3119  0.0108 -0.0443
 2088W        W18936   0.219   6.865  12.634  0.3480  0.3375  0.0275
 2089W        W18937  10.644   8.457  15.447  0.1802  0.0086  0.3302
 2090W        W18938  17.757   2.403  12.659 -0.0271 -0.2420 -0.1115
 2091W        W18939  15.788   1.385   3.638 -0.1472 -0.1420 -0.1537
 2092W        W18940   7.612   9.183   5.350 -0.3391  0.2081  0.2043
 2093W        W18941  11.352   1.422  13.474 -0.1188 -0.1510  0.0339
 2094W        W18942   8.665   3.948   0.919 -0.1511  0.0306 -0.0086
 2095W        W18943  16.138   6.518   1.938  0.1061  0.1855  0.4341
 2096W        W18944   4.626   4.230   4.288  0.1639  0.1172  0.2657
 2097W        W18945   1.798  17.179   1.802 -0.2763  0.2890 -0.0071
 2098W        W18946  17.736  15.886  14.542  0.0215 -0.0216  0.0148
 2099W        W18947   0.744  12.724   4.136  0.1160  0.0068 -0.0067
 2100W        W18948  16.559   8.164   4.886  0.3152  0.1191  0.0608
 2101W        W18949   5.556  13.754  15.490 -0.1553  0.0083  0.0674
 2102W        W18950  12.994  14.569  11.670  0.1637 -0.0657  0.1123
 2103W        W18951   5.156  10.592   3.048  0.0302  0.0772 -0.0427
 2104W        W18952   2.565  17.971   1.385 -0.0155  0.1051 -0.3153
 2105W        W18953   1.765   0.211  11.917  0.1725  0.0308  0.0267
 2106W        W18954  11.879  11.746  14.113  0.0775  0.2595  0.3196
 2107W        W18955  16.704  17.748   4.401 -0.0074  0.0091 -0.2937
 2108W        W18956  12.165  13.798  11.097  0.1563  0.1842  0.2344
 2109W        W18957  14.238  17.296   3.853 -0.3519  0.1408 -0.2859
 2110W        W18958  11.250   8.619   1.669  0.3840 -0.2798  0.1494
 2111W        W18959   4.010  13.912   1.261 -0.1745  0.1019  0.0040
 2112W        W18960  10.105   6.080   5.410  0.2489  0.0514  0.1019
 2113W        W18961  17.365   1.828  12.160  0.0421  0.0788 -0.2432
 2114W        W18962   3.960   1.721   2.346  0.0984 -0.2992 -0.0571
 2115W        W18963  11.057   8.713   5.484  0.1167  0.0823  0.0347
 2116W        W18964  12.466   4.948   3.657  0.1584  0.0660 -0.1331
 2117W        W18965   8.122   6.367   4.122  0.2208 -0.0400 -0.0999
 2118W        W18966  14.446   4.106   2.912 -0.0020  0.1025 -0.0555
 2119W        W18967  13.680   9.812  12.758 -0.0976  0.0465  0.1631
 2120W        W18968   8.428   7.659  16.099  0.0609 -0.2258  0.3077
 2121W        W18969   9.070  12.734   1.918  0.1064  0.2045 -0.1495
 2122W        W18970   8.124  13.210  13.215 -0.1656 -0.1092  0.2652
 2123W        W18971   8.510  14.084   4.740  0.0269 -0.1751  0.2214
 2124W        W18972   5.624   7.930  15.298 -0.2294 -0.2719  0.1618
 2125W        W18973  10.548   5.219   0.092  0.2408  0.0079  0.2197
 2126W        W18974   3.114   2.373  13.125 -0.1800  0.2588  0.1668
 2127W        W18975  14.517  15.095  12.110  0.0511 -0.3250 -0.1075
 2128W        W18976  11.285   6.467  12.630  0.1638 -0.0196 -0.1989
 2129W        W18977   4.382   3.719  12.098  0.0301  0.2676 -0.1330
 2130W        W18978   2.669   7.711  11.356  0.1059  0.1167  0.0863
 2131W        W18979  11.133   3.119   4.741 -0.0154  0.0828 -0.2246
 2132W        W18980  13.495   9.367   5.537  0.1166  0.5436  0.0811
 2133W        W18981   2.776  13.992   3.668 -0.0057 -0.0516 -0.0125
 2134W        W18982   5.232   0.452   0.438 -0.0057 -0.1733  0.0303
 2135W        W18983  10.811   1.909  14.291 -0.1030  0.0718 -0.0202
 2136W        W18984   3.953  10.025   3.430 -0.0053 -0.0639 -0.2835
 2137W        W18985  11.932   6.715   5.202 -0.0571  0.1948  0.1291
 2138W        W18986   0.823   4.689  12.054 -0.3632  0.1138 -0.0872
 2139W        W18987  12.368   8.298   0.038  0.0238  0.0781 -0.0456
 2140W        W18988  10.417  10.261  15.306 -0.2043  0.1882 -0.0287
 2141W        W18989   1.989   4.561   1.961  0.1867 -0.1513 -0.0798
 2142W        W18990  13.279  14.650   0.182  0.0594  0.0447  0.0044
 2143W        W18991  15.842  10.715  14.145 -0.0592  0.0729 -0.1260
 2144W        W18992  10.314  12.733  13.564  0.1063 -0.0100  0.1022
 2145W        W18993  12.601   3.951  14.163  0.1190 -0.2041  0.2421
 2146W        W18994  10.160   6.165  11.060 -0.1299 -0.0694  0.0819
 2147W        W18995   2.334  15.142   1.789  0.2782 -0.1943 -0.0441
 2148W        W18996   8.315   0.405   1.482 -0.0078  0.1408 -0.0453
 2149W        W18997  11.936   4.778   3.532 -0.0029 -0.1964  0.0151
 2150W        W18998   1.425  11.680  10.930 -0.1623  0.2027 -0.1200
 2151W        W18999   3.992   7.448  13.405 -0.1384  0.2678  0.1054
 2152W        W19000  12.094  10.228  15.116  0.2421 -0.0674  0.1691
 2153W        W19001   2.132   0.849  10.973 -0.3107 -0.1382 -0.1563
 2154W        W19002  15.140  10.133   5.249  0.0678  0.0609  0.0175
 2155W        W19003  14.167  17.737  15.672 -0.0169  0.0671  0.0559
 2156W        W19004   5.149   1.549   1.498 -0.0719 -0.2426 -0.2135
 2157W        W19005  12.435  15.421   4.627  0.1901 -0.1076  0.4172
 2158W        W19006   3.267  13.617   4.311  0.3022 -0.0192  0.1276
 2159W        W19007  10.199  11.662   3.429  0.0945  0.3411 -0.2616
 2160W        W19008  14.421   7.634  14.268  0.2941  0.2536  0.0547
 2161W        W19009  18.034   2.865  15.573  0.0806 -0.1169  0.2953
 2162W        W19010  16.482  16.355   0.430 -0.1139 -0.3100  0.0282
 2163W        W19011   2.723   5.066   1.803  0.2122  0.0243  0.4546
 2164W        W19012  12.326  11.807   0.286  0.0213 -0.0985 -0.3116
 2165W        W19013  13.315  18.064   0.216  0.1052 -0.0146 -0.0681
 2166W        W19014  17.729   3.077  12.870  0.0383  0.0026 -0.1484
 2167W        W19015   8.024  13.422   4.585 -0.0883 -0.0759  0.2263
 2168W        W19016   4.821   9.864  13.249 -0.0171  0.1003 -0.0563
 2169W        W19017  11.019  11.466  13.886  0.4745 -0.0316 -0.1565
 2170W        W19018   7.943   8.326  11.448 -0.1358  0.2943  0.2268
 2171W        W19019   5.495   9.888  11.891  0.1481 -0.0877 -0.0356
 2172W        W19020   7.884   7.126  15.820 -0.3243  0.0232 -0.0951
 2173W        W19021  13.613   3.496   3.464 -0.1380  0.0805 -0.2404
 2174W        W19022  11.757  14.173  13.990  0.1415  0.3561  0.2623
 2175W        W19023  18.084  13.217   2.673  0.0088 -0.1339  0.0654
 2176W        W19024   1.422  11.151   0.756  0.0188  0.0856  0.0455
 2177W        W19025  11.720   6.007   4.030 -0.0119  0.2595 -0.1842
 2178W        W19026  16.652  11.074  10.164  0.2823  0.0713 -0.0754
 2179W        W19027  11.384   4.921   4.837  0.5035 -0.0614  0.1858
 2180W        W19028   0.822   3.886  13.520 -0.0284 -0.0708  0.1543
 2181W        W19029  15.348  15.647   2.207 -0.1260 -0.0751  0.5336
 2182W        W19030  14.598  12.949  12.667 -0.2780  0.1493 -0.0143
 2183W        W19031   1.867  13.830   1.238 -0.0841 -0.0949 -0.0556
 2184W        W19032  13.429   3.188   3.938 -0.2439 -0.2339 -0.0808
 2185W        W19033   7.404   0.010   1.934 -0.1223 -0.0678 -0.1271
 2186W        W19034  10.623   3.658  15.737 -0.0081 -0.1205  0.1010
 2187W        W19035  11.028   8.863  14.358  0.1507 -0.2402  0.1521
 2188W        W19036  17.735  11.897  13.652 -0.3087 -0.1348 -0.1311
 2189W        W19037  11.796  17.923   2.179  0.1467 -0.0676 -0.2569
 2190W        W19038  12.496  16.358  10.792 -0.1859 -0.2449 -0.4334
 2191W        W19039  12.585   2.627   0.547  0.0607 -0.1966  0.1778
 2192W        W19040  15.842  10.356   0.864  0.0295  0.0545 -0.1683
 2193W        W19041   7.274   4.692  16.076 -0.0392  0.0098 -0.0799
 2194W        W19042  12.109   5.552  12.512 -0.6370  0.2704  0.1956
 2195W        W19043   7.565  11.313  12.295 -0.0825  0.0636 -0.1320
 2196W        W19044   5.308   4.306  13.069  0.0833  0.1415 -0.4730
 2197W        W19045   8.487   6.181  12.089  0.2559 -0.0733 -0.1435
 2198W        W19046  12.725  16.767  12.075  0.0229  0.1448  0.3161
 2199W        W19047  16.865  15.363   2.109 -0.1583 -0.0268 -0.0993
 2200W        W19048  13.127   5.427   3.812  0.0014 -0.0042 -0.0277
 2201W        W19049  15.570  16.337  11.453 -0.2443  0.0103  0.0267
 2202W        W19050  10.152  13.328  15.439  0.1838 -0.1693  0.3346
 2203W        W19051  10.678   4.725  12.283 -0.4068 -0.0167  0.3523
 2204W        W19052  15.596  16.306   0.625 -0.2671 -0.1401  0.0652
 2205W        W19053   5.823  13.511  14.120 -0.2009  0.1767  0.3507
 2206W        W19054  13.979   3.186  13.222  0.0738  0.1279  0.3040
 2207W        W19055  17.287  16.180  14.611  0.1104  0.2208 -0.0566
 2208W        W19056  13.659  12.954  12.605  0.1314 -0.1021  0.3428
 2209W        W19057  12.143   2.377   0.586  0.1238 -0.0698 -0.3108
 2210W        W19058  14.050   6.416  13.715 -0.0543 -0.1498 -0.0990
 2211W        W19059  10.778  12.547  12.694 -0.0119  0.5263 -0.2119
 2212W        W19060  17.595   7.493   3.196 -0.2261 -0.0037 -0.0093
 2213W        W19061  16.855  18.054  11.394  0.3161 -0.0931 -0.3869
 2214W        W19062  17.845   9.465   5.418 -0.0219  0.4597  0.1669
 2215W        W19063   2.770   7.886   1.831 -0.1236 -0.1302  0.0651
 2216W        W19064  15.985   7.019   1.907  0.0242  0.2905 -0.2246
 2217W        W19065   2.571  17.788   2.031  0.1575  0.0286 -0.0795
 2218W        W19066   4.769   5.740   2.379  0.0623  0.2192  0.2391
 2219W        W19067   1.114  16.255  11.603 -0.4340  0.2109  0.4241
 2220W        W19068   0.249   1.176  15.652  0.0343  0.0133  0.1418
 2221W        W19069   6.965   5.050  11.803 -0.1408  0.0869  0.4244
 2222W        W19070  12.669   9.605   4.149 -0.1686 -0.3066  0.2847
 2223W        W19071   4.186   6.664   2.499 -0.1081 -0.2362  0.1047
 2224W        W19072  16.831   3.958   1.485  0.0269 -0.2959 -0.1234
 2225W        W19073  11.271   5.041   3.208 -0.2251 -0.0991  0.3240
 2226W        W19074   8.827   8.971  15.424  0.0034  0.2439 -0.1343
 2227W        W19075   7.843  13.658  12.008  0.3807 -0.0809 -0.1250
 2228W        W19076  18.091  11.560  13.804  0.6105  0.3969 -0.1813
 2229W        W19077  10.656   7.790   0.422  0.2558 -0.0771  0.3335
 2230W        W19078  11.621  12.758   1.666 -0.0870  0.0849 -0.0368
 2231W        W19079   7.142  13.403  11.560 -0.1933 -0.0171  0.0267
 2232W        W19080  15.802   0.022  13.512  0.1194 -0.1483  0.1533
 2233W        W19081  17.637   4.895   0.983  0.0647  0.1133 -0.0131
 2234W        W19082   7.929   7.589   2.438  0.1117 -0.2088 -0.1253
 2235W        W19083   2.811   4.571   2.235 -0.0521  0.2019 -0.1210
 2236W        W19084   6.421   0.422  11.306 -0.0270 -0.0463 -0.0058
 2237W        W19085   9.134   3.412  10.367 -0.3233  0.0374 -0.1341
 2238W        W19086   8.671  17.401   6.000  0.0656 -0.1187 -0.0507
 2239W        W19087  17.938   4.902  10.234 -0.2698  0.0617 -0.3706
 2240W        W19088   3.389   9.474   5.008 -0.0110 -0.0611  0.1658
 2241W        W19089  12.806   9.141   4.048  0.1344  0.1211 -0.2516
 2242W        W19090   7.566   4.317   5.434 -0.3897 -0.1101 -0.2116
 2243W        W19091  13.659   8.146  12.763  0.0526  0.0596 -0.0896
 2244W        W19092  10.676  13.668  11.885  0.3388  0.4087  0.0900
 2245W        W19093  17.757   3.990  11.415 -0.0089 -0.1670 -0.1324
 2246W        W19094   0.694   3.797  11.135 -0.0742  0.1485 -0.2497
 2247W        W19095  18.035  10.613   0.160 -0.2747  0.0871  0.2182
 2248W        W19096   7.560  10.881   6.135 -0.0976  0.3534 -0.0576
 2249W        W19097  16.650   3.442   0.013 -0.2306 -0.1486  0.1514
 2250W        W19098   0.093  14.926   0.522  0.0722  0.1739  0.1097
 2251W        W19099   1.177   4.577  12.941  0.0202 -0.1677  0.0070
 2252W        W19100  13.254  17.350   2.218  0.2449 -0.0608  0.2379
 2253W        W19101  11.997  11.549   4.382 -0.1063 -0.1406  0.0962
 2254W        W19102   2.980  13.653  13.216  0.3653  0.2138  0.2011
 2255W        W19103   4.857   9.059  11.599 -0.1001 -0.2763  0.1047
 2256W        W19104  13.204  16.543   4.174 -0.1779 -0.0698 -0.1493
 2257W        W19105   2.946  13.982   4.115 -0.1610 -0.0508  0.0285
 2258W        W19106   7.288  10.722   0.559  0.1561  0.1595  0.0948
 2259W        W19107  16.622  12.020  15.186 -0.2613  0.2526 -0.3296
 2260W        W19108   3.078   2.677  12.574  0.1135 -0.1972  0.0773
 2261W        W19109  15.109  13.763  11.373 -0.3861 -0.0035  0.0738
 2262W        W19110  15.860   0.561  13.608 -0.0401 -0.0965 -0.1951
 2263W        W19111   1.964  16.528  14.574  0.2617  0.3726 -0.1087
 2264W        W19112  16.077   3.801  10.428  0.1663 -0.1992  0.0961
 2265W        W19113   4.924   9.306   1.360  0.0043  0.2398 -0.1350
 2266W        W19114  15.058  12.227   3.977 -0.2119 -0.2056  0.2252
 2267W        W19115  13.759   3.002  14.653 -0.0984 -0.0836 -0.5030
 2268W        W19116  17.336  17.272  12.099  0.2202 -0.2506  0.1577
 2269W        W19117  15.256   1.833   1.081 -0.0654  0.0818 -0.0730
 2270W        W19118   7.483   6.782   3.642 -0.0833 -0.0317 -0.4094
 2271W        W19119   6.517  16.219   0.216  0.3087 -0.1519 -0.0114
 2272W        W19120   3.404  13.898   1.836 -0.1210  0.2209  0.1264
 2273W        W19121  17.396  15.945   2.987 -0.2170  0.1184 -0.1574
 2274W        W19122  14.757  12.179   3.582 -0.0146  0.0966 -0.0503
 2275W        W19123   0.191   6.491  15.955  0.2079 -0.3157  0.1470
 2276W        W19124   9.906   1.320  13.653  0.2416 -0.2332  0.1698
 2277W        W19125  16.778   5.591   0.186 -0.1139 -0.0677 -0.0046
 2278W        W19126   9.166  15.718  15.022  0.1985  0.0396 -0.0044
 2279W        W19127  14.197  11.733  13.998 -0.0453  0.1715 -0.2942
 2280W        W19128   0.178   7.294  14.542  0.0033  0.1322  0.2696
 2281W        W19129   9.912   3.555  11.696  0.1336 -0.1421  0.2053
 2282W        W19130  17.962  12.673  14.177  0.1830 -0.5536 -0.0224
 2283W        W19131   3.449   1.945  10.786 -0.0102 -0.4008  0.0035
 2284W        W19132  16.877  14.315  13.168  0.3139  0.3748  0.0624
 2285W        W19133  10.832   5.775   1.402  0.0161 -0.0680 -0.2274
 2286W        W19134  16.877   3.711  12.387 -0.1860  0.1500 -0.1086
 2287W        W19135   2.375   3.793  14.348 -0.0195  0.0547 -0.0368
 2288W        W19136  15.799  12.533   0.883  0.1186 -0.3921 -0.1791
 2289W        W19137   7.898  10.063   5.238  0.1026  0.3394  0.0181
 2290W        W19138   2.542   9.423   0.660 -0.1284 -0.2454 -0.0819
 2291W        W19139  12.748  12.641  10.504 -0.1595 -0.0051  0.3202
 2292W        W19140   4.216   9.850   2.403 -0.0227  0.1048  0.2046
 2293W        W19141   8.446  12.793   5.263  0.0409 -0.0119 -0.3337
 2294W        W19142   6.582   8.290  12.184 -0.4163  0.0529 -0.0943
 2295W        W19143   1.417   2.969  14.606 -0.1977  0.1711  0.2968
 2296W        W19144   1.224   6.415   2.673 -0.0582 -0.3853  0.5701
 2297W        W19145  11.331  10.704  11.608 -0.0400  0.0583 -0.0275
 2298W        W19146   7.335  14.474   3.041  0.0488  0.1333 -0.2339
 2299W        W19147   7.242  17.906   1.129 -0.1527 -0.1705  0.0122
 2300W        W19148   8.844   8.689   4.639  0.2290 -0.1293 -0.1386
 2301W        W19149   8.024   2.139  12.044  0.1601  0.1872  0.4064
 2302W        W19150  14.998   4.076  15.759  0.1404  0.0453  0.0980
 2303W        W19151  11.610  17.285  15.765  0.0573  0.0924  0.1267
 2304W        W19152  12.052  13.365  12.404 -0.0168  0.0502  0.3787
 2305W        W19153   0.837  16.029  11.254  0.0205 -0.0669  0.0803
 2306W        W19154   0.928  14.135   5.633 -0.1787 -0.3805  0.0698
 2307W        W19155   0.173   0.300  12.654  0.2579  0.2480  0.0350
 2308W        W19156   8.393   5.655   5.659  0.0142  0.0673  0.0673
 2309W        W19157   9.835   0.808   0.208  0.2117  0.0952 -0.0038
 2310W        W19158  13.591   1.752   1.259 -0.2026  0.0228  0.1749
 2311W        W19159   0.824   4.242   1.624 -0.0886  0.2457  0.1503
 2312W        W19160   4.647   0.307  14.390 -0.2445 -0.2827  0.0216
 2313W        W19161   4.190   4.699   1.686 -0.1040 -0.0882  0.0368
 2314W        W19162   3.486  16.938   2.190  0.0793 -0.0825  0.0942
 2315W        W19163   0.578   4.858   0.256 -0.1682  0.1251  0.0757
 2316W        W19164  15.025   4.179   0.110 -0.0700  0.1657  0.0330
 2317W        W19165   8.685  17.563   4.648 -0.2453  0.3905  0.1589
 2318W        W19166   0.313   1.434   3.736  0.2373  0.0232  0.0935
 2319W        W19167  11.223   0.399  12.540  0.1000  0.2521  0.0836
 2320W        W19168  10.772  11.512   4.786 -0.0610 -0.0033  0.2321
 2321W        W19169  17.197  12.334   4.161  0.1404 -0.2110  0.1175
 2322W        W19170   1.921   2.316   4.478 -0.3772 -0.0466 -0.3084
 2323W        W19171  15.942   2.981  15.895  0.1001 -0.5935  0.1764
 2324W        W19172   6.796   0.248   1.892 -0.3708 -0.1182 -0.1922
 2325W        W19173  11.658   1.540  11.630 -0.3090  0.1405  0.0990
 2326W        W19174   7.280  11.735  11.539  0.2010  0.0670  0.0172
 2327W        W19175  16.876  15.345  12.940 -0.1820 -0.0318  0.1562
 2328W        W19176   2.252  12.714  12.984  0.0157  0.1453 -0.0177
 2329W        W19177  12.200   3.713   6.006 -0.0669 -0.1508  0.0210
 2330W        W19178  15.512   8.338   0.111  0.2204 -0.0615  0.1452
 2331W        W19179   9.478   9.268  14.236  0.0751  0.1321 -0.1015
 2332W        W19180  12.708   3.138  11.805  0.0866  0.3581 -0.2403
 2333W        W19181  16.301  12.887   4.757 -0.0515 -0.1326  0.0898
 2334W        W19182  16.351  16.620   1.086  0.3794  0.3585  0.1466
 2335W        W19183  11.238  11.310   0.322 -0.1091  0.2384 -0.2287
 2336W        W19184  16.717  16.810  13.136 -0.0999 -0.2029 -0.1085
 2337W        W19185   6.542  13.482   3.565  0.0409 -0.2020  0.2326
 2338W        W19186   6.541   7.497  11.741  0.0629 -0.0358  0.1571
 2339W        W19187   9.125  17.895  14.038  0.1692 -0.1221 -0.1257
 2340W        W19188   9.928  14.689   0.720  0.1070 -0.0000  0.2403
 2341W        W19189  10.450   0.141  12.233  0.1194  0.0179  0.1485
 2342W        W19190   3.736   4.890  15.463 -0.0435 -0.1628 -0.0522
 2343W        W19191  11.368   1.936   3.692  0.1532  0.0448  0.0746
 2344W        W19192   5.290   6.959   0.185  0.0625 -0.1145 -0.0319
 2345W        W19193  14.907   0.403  10.183 -0.0372  0.2109 -0.0283
 2346W        W19194  16.903  13.434  11.742 -0.2626 -0.4400 -0.1072
 2347W        W19195   1.719  14.121  15.433  0.3446 -0.1011  0.0290
 2348W        W19196  12.622  17.363  12.263 -0.1884 -0.2790  0.1683
 2349W        W19197  10.720   5.208   2.352  0.2866 -0.1907 -0.1517
 2350W        W19198   2.177   8.389   4.067  0.0746  0.4338  0.1652
 2351W        W19199  15.937  16.491  11.060  0.0204 -0.2532  0.0536
 2352W        W19200  14.209  10.037   4.554  0.2809 -0.0702 -0.0196
 2353W        W19201  15.394   6.383  15.512 -0.1871 -0.2080 -0.0043
 2354W        W19202  10.513  14.563  12.644 -0.2723 -0.1591 -0.0041
 2355W        W19203  12.796   5.150  12.574  0.0567 -0.2475 -0.0419
 2356W        W19204  11.992   4.102   4.742 -0.0080  0.1931  0.0700
 2357W        W19205  10.916   2.927  13.236  0.1012  0.2516  0.0711
 2358W        W19206  13.106   7.703   0.451 -0.1151  0.1920 -0.0496
 2359W        W19207   5.982   3.338  13.239  0.1507 -0.0318  0.1552
 2360W        W19208   3.050  16.270   3.759  0.0154  0.1195  0.0179
 2361W        W19209  15.832   5.505  14.263 -0.1167 -0.0356  0.0111
 2362W        W19210  13.544   1.879  13.144 -0.1597  0.1169  0.1020
 2363W        W19211   6.694   6.061   2.284  0.3172  0.3909 -0.1002
 2364W        W19212   2.792  17.285  15.423 -0.0154 -0.0006 -0.1348
 2365W        W19213  11.729   9.263   4.276 -0.2341 -0.1787 -0.1145
 2366W        W19214   2.307  15.200  14.071 -0.2357  0.0231 -0.1142
 2367W        W19215  13.725  18.105  11.638  0.1238  0.0486  0.3246
 2368W        W19216  12.400   9.388   0.370  0.2912  0.1528  0.0094
 2369W        W19217   7.506  17.097  10.653  0.1969 -0.0167  0.3790
 2370W        W19218   9.230  15.577  11.617  0.3056 -0.2106 -0.0088
 2371W        W19219   8.970  14.690   0.963 -0.0723 -0.0179  0.3548
 2372W        W19220   5.954   9.737  12.135  0.0747 -0.4272 -0.4342
 2373W        W19221  16.188   7.935  14.769  0.1519  0.2566  0.2047
 2374W        W19222   5.376   9.217   4.108 -0.4313  0.1823 -0.1796
 2375W        W19223  15.754  14.701   1.883 -0.5081 -0.1022 -0.0304
 2376W        W19224  15.660   0.272   1.101  0.1845 -0.2886 -0.0372
 2377W        W19225  16.351  13.835   4.203  0.0089  0.1657 -0.2248
 2378W        W19226  13.759   9.536   3.236  0.1786  0.0503  0.3089
 2379W        W19227  16.425  12.049  15.933  0.0215  0.1819 -0.1350
 2380W        W19228   3.369   4.468   3.841  0.1632  0.0425  0.1792
 2381W        W19229  15.383   3.772  14.290  0.2091 -0.0245  0.2350
 2382W        W19230   5.114   9.212  14.354 -0.0788 -0.0740 -0.0863
 2383W        W19231   0.313   3.055   3.403  0.0225  0.2118 -0.3454
 2384W        W19232   1.649   5.679   3.624  0.2518 -0.4079  0.1778
 2385W        W19233   6.556   9.706   4.472  0.2165  0.0591  0.2008
 2386W        W19234  16.722  14.249   0.573  0.0722 -0.0954  0.0066
 2387W        W19235  12.169   5.652  14.511 -0.1371 -0.0320 -0.1407
 2388W        W19236   0.202   1.543   1.988 -0.0816 -0.1047  0.3032
 2389W        W19237   4.759   4.826   3.213  0.2761 -0.1120 -0.0491
 2390W        W19238  13.114   2.325   0.422  0.0296  0.0463 -0.3659
 2391W        W19239   7.026  18.141   1.570 -0.0785 -0.0747 -0.0622
 2392W        W19240  12.015  17.949  13.498 -0.0003 -0.1244  0.2685
 2393W        W19241  17.148   3.815  15.057 -0.0111  0.1442  0.1415
 2394W        W19242  15.525  10.127   3.086  0.1110  0.2135 -0.1535
 2395W        W19243  15.743   8.301  12.822  0.0050 -0.0609 -0.1199
 2396W        W19244  12.789  15.793  12.300  0.0513 -0.0482 -0.4111
 2397W        W19245   7.862   6.949  12.837 -0.0746 -0.1319 -0.1895
 2398W        W19246  14.522   2.158  12.133  0.0814 -0.1495  0.2402
 2399W        W19247  11.535  12.170  14.396  0.1353 -0.0182  0.0415
 2400W        W19248  15.333   0.074  15.330  0.1429 -0.3759  0.1870
 2401W        W19249  14.719   5.063   5.384  0.2133 -0.3742  0.1246
 2402W        W19250   9.985  17.356  13.565  0.2361 -0.3033 -0.2033
 2403W        W19251  10.277  10.420   3.345 -0.2539 -0.1388  0.0714
 2404W        W19252  13.660  11.990  12.617  0.2030 -0.3263  0.1657
 2405W        W19253  13.420   7.017   4.899  0.0931 -0.1012 -0.2399
 2406W        W19254   0.749  14.891  11.828 -0.0311  0.0793 -0.2047
 2407W        W19255   3.180  14.851   4.037 -0.3762  0.2417 -0.1294
 2408W        W19256  12.814   7.128  15.060  0.2715  0.0029 -0.1254
 2409W        W19257  17.001  12.139  14.807 -0.0371  0.1910  0.0326
 2410W        W19258   6.804  17.413   5.307 -0.0136 -0.3035  0.3361
 2411W        W19259  17.526   1.455   5.429  0.1758 -0.0824  0.1825
 2412W        W19260   0.912   1.510   4.834  0.0850 -0.2185 -0.0593
 2413W        W19261   6.461   4.097   4.028  0.1603  0.0272  0.0426
 2414W        W19262   1.053   7.516  12.099 -0.1420  0.0876 -0.1496
 2415W        W19263   9.580  15.885  12.676  0.3045  0.3095  0.2146
 2416W        W19264  11.769   8.653  15.299 -0.0020 -0.0620  0.2478
 2417W        W19265   8.858   7.152   3.846  0.1541 -0.1513  0.0320
 2418W        W19266  14.748  16.114  13.329 -0.2575  0.1016  0.2424
 2419W        W19267  11.325   9.432   2.517  0.0237  0.1361 -0.3713
 2420W        W19268   1.359  15.844   1.206 -0.2965  0.1158 -0.0400
 2421W        W19269   6.824  16.493   0.605  0.2789 -0.2495  0.0191
 2422W        W19270  15.044   9.232  13.121 -0.0808  0.0174  0.1448
 2423W        W19271   4.245  15.183  12.166  0.0732  0.3345  0.0911
 2424W        W19272  12.420  13.854  13.010 -0.2050 -0.1711  0.0479
 2425W        W19273  11.907  15.863  16.059 -0.0560  0.0007 -0.4387
 2426W        W19274   4.228  15.292  13.647 -0.2534  0.1273 -0.0696
 2427W        W19275  17.316  17.806  11.576 -0.2004 -0.0878  0.1572
 2428W        W19276  12.536  11.703   4.488 -0.2755 -0.0194  0.1856
 2429W        W19277   3.973   9.798  14.805  0.1414  0.1336 -0.2643
 2430W        W19278  15.574  16.444  13.892  0.2187  0.0786  0.0470
 2431W        W19279  10.009   7.435   5.425 -0.0950 -0.1611  0.3145
 2432W        W19280  17.551   4.125  13.700 -0.2222 -0.0474  0.2346
 2433W        W19281   7.515   1.315   4.487 -0.1637  0.1542 -0.0311
 2434W        W19282   0.742  17.416   4.854 -0.1643 -0.0304  0.3971
 2435W        W19283   8.408   9.744  11.817 -0.2411 -0.3368 -0.1393
 2436W        W19284  11.549  10.625  13.428  0.3033 -0.2503  0.2269
 2437W        W19285  13.081   9.061   4.885 -0.2175  0.2577 -0.0299
 2438W        W19286   9.436  13.162   2.427  0.1696  0.0123  0.0695
 2439W        W19287   3.398   1.201   4.904 -0.2036 -0.0888  0.0675
 2440W        W19288   9.638  12.785   0.256  0.0628  0.1027  0.1258
 2441W        W19289   2.823   2.102   4.545 -0.3254  0.2023  0.0887
 2442W        W19290   3.020  10.034  16.073 -0.0220 -0.3172 -0.1674
 2443W        W19291   2.213   2.668   3.363 -0.0344 -0.1318 -0.0063
 2444W        W19292  16.139  15.059   0.834  0.0994  0.0483  0.4296
 2445W        W19293   7.485   2.853  11.986  0.0037  0.0061  0.2662
 2446W        W19294   4.591  14.749   2.835  0.0390  0.1257 -0.3053
 2447W        W19295   2.827  13.129   0.739 -0.3900 -0.2331  0.1000
 2448W        W19296   5.918   7.683   3.980  0.2409 -0.0510  0.0125
 2449W        W19297  11.921  17.924  11.860 -0.0119  0.0659  0.3518
 2450W        W19298   2.597  14.618  11.001  0.1063 -0.0363  0.1871
 2451W        W19299  15.710  13.181   4.188  0.0283 -0.1877  0.5365
 2452W        W19300   3.964  16.162  15.281  0.2903 -0.1577 -0.1077
 2453W        W19301   6.754   3.386   3.627 -0.2239 -0.1472 -0.2198
 2454W        W19302   7.707   3.265  13.627  0.2278 -0.0556 -0.1005
 2455W        W19303   5.436  17.024   9.816  0.2409  0.1871 -0.4989
 2456W        W19304   9.348  16.377   4.594 -0.0921  0.2494  0.0471
 2457W        W19305   2.075   1.812   5.623  0.0201 -0.0925 -0.3206
 2458W        W19306  10.541  15.338   0.356  0.3180 -0.2244  0.1182
 2459W        W19307  12.317   3.775  12.341 -0.1045 -0.1141  0.1926
 2460W        W19308  13.075  15.396  15.935 -0.1914 -0.2604  0.2474
 2461W        W19309  11.477   4.997   1.616  0.0343 -0.0765 -0.0969
 2462W        W19310   3.166  17.773   2.131 -0.1379  0.0828 -0.2448
 2463W        W19311  16.207  17.308   2.906  0.0919 -0.1933 -0.2642
 2464W        W19312  10.770  13.681   0.458 -0.0859 -0.1005 -0.0915
 2465W        W19313   8.582  16.676   2.700 -0.1967 -0.0696 -0.0169
 2466W        W19314   6.128   9.094   6.052 -0.4181 -0.1342  0.2427
 2467W        W19315   7.555  15.245  12.918  0.0646  0.0193 -0.0932
 2468W        W19316   9.297   1.893   4.722  0.0333  0.2511 -0.1391
 2469W        W19317  15.989   6.119   3.115 -0.0913  0.0680  0.0075
 2470W        W19318   1.019  15.376  15.893  0.1079  0.1151 -0.0814
 2471W        W19319   7.196   2.018   1.994 -0.1893  0.0014 -0.1092
 2472W        W19320  15.813  15.995   5.114 -0.0473 -0.1545 -0.1844
 2473W        W19321  12.666   5.203   0.657 -0.0942  0.0876 -0.4381
 2474W        W19322   5.259  12.239   3.141  0.1710 -0.1175  0.1064
 2475W        W19323   7.728  16.803  14.772  0.2454 -0.0886 -0.1026
 2476W        W19324  10.861  12.490  12.155 -0.3656  0.0433  0.1984
 2477W        W19325  17.743   0.860   4.500 -0.1715 -0.2108 -0.2864
 2478W        W19326  17.816   1.761  12.810 -0.0562  0.0215 -0.0358
 2479W        W19327   2.054   9.827   2.023  0.2598 -0.0023 -0.0335
 2480W        W19328  10.441   0.522  11.924  0.1837  0.3799  0.0812
 2481W        W19329  11.828   5.671   0.192 -0.2996 -0.2799 -0.2691
 2482W        W19330  14.833   0.439  14.357  0.0351  0.0008 -0.1709
 2483W        W19331   6.527   8.585  15.588 -0.1913 -0.0023 -0.2030
 2484W        W19332   9.428  12.609  10.797  0.1251 -0.0250 -0.0724
 2485W        W19333  15.354  17.817  14.466  0.0181  0.2844  0.0924
 2486W        W19334  15.073  11.167   0.295  0.0792 -0.4537 -0.4159
 2487W        W19335   7.359   1.475   0.700  0.0782  0.2233  0.0156
 2488W        W19336  16.204   0.776   2.349  0.1051 -0.3750  0.1686
 2489W        W19337   4.277   2.975  13.000  0.5323  0.2436 -0.4304
 2490W        W19338  16.851   4.998  15.088 -0.3490 -0.2540 -0.2230
 2491W        W19339  13.604   1.373  11.946 -0.1464 -0.1658 -0.0767
 2492W        W19340   7.302   9.533   0.375 -0.0042 -0.2144  0.0460
 2493W        W19341   2.933  10.502  13.541  0.1918 -0.2621 -0.0239
 2494W        W19342   6.723   2.087   1.590  0.3799 -0.2390  0.0531
 2495W        W19343  11.827  14.566  12.722 -0.0916  0.1302  0.2990
 2496W        W19344  14.545   4.410   0.433  0.1452  0.1532 -0.2197
 2497W        W19345  11.944   6.478   2.331 -0.1492 -0.0262 -0.0881
 2498W        W19346   6.926   1.614   4.331  0.2586 -0.0678  0.0065
 2499W        W19347   5.857   2.896  13.309  0.1718  0.0709  0.0677
 2500W        W19348  14.878   6.064   4.700 -0.1430 -0.0154 -0.1502
 2501W        W19349   2.307  16.422  12.204 -0.0629  0.2713 -0.1397
 2502W        W19350   9.619   8.514  13.011  0.0763  0.0696 -0.1316
 2503W        W19351   2.804  16.765   3.879  0.1040 -0.0350  0.0098
 2504W        W19352   7.278   5.045   1.478 -0.0032  0.0897 -0.1857
 2505W        W19353  11.017   5.949  11.110 -0.0283 -0.3149 -0.0289
 2506W        W19354   3.701  15.506  11.515  0.0687  0.2188 -0.1917
 2507W        W19355  15.956  17.620  14.329  0.0912  0.1757 -0.2398
 2508W        W19356   3.684  15.881  12.045 -0.2852  0.1407  0.0793
 2509W        W19357  18.162  15.848  12.518  0.1112 -0.0630  0.1176
 2510W        W19358  11.401   3.563   4.470 -0.0946  0.0327  0.0709
 2511W        W19359   8.831   8.398  15.946 -0.1031 -0.0288 -0.0165
 2512W        W19360   5.262   7.250  11.237  0.2026 -0.2775  0.0247
 2513W        W19361   4.334   0.609   5.203  0.2624 -0.0322  0.1998
 2514W        W19362  10.848  12.034  11.183 -0.1640  0.1469 -0.1046
 2515W        W19363  16.422   9.293   4.065 -0.0758 -0.0923 -0.0069
 2516W        W19364  17.543   0.827  15.436 -0.1130 -0.0265  0.2865
 2517W        W19365   9.587   3.838   3.563  0.0485  0.2940  0.1114
 2518W        W19366   0.220   8.958   3.005 -0.1075  0.1253  0.0668
 2519W        W19367   2.907   3.701  11.913 -0.2004 -0.0875  0.0662
 2520W        W19368  14.698  12.387  11.414 -0.1346 -0.0242 -0.0923
 2521W        W19369   0.955   5.236   5.136 -0.3679  0.3422  0.0455
 2522W        W19370   7.973   5.548  11.821 -0.0426 -0.0124 -0.0427
 2523W        W19371   9.178  16.426   3.677 -0.1238 -0.2818  0.0634
 2524W        W19372  17.417   4.808  13.120  0.0461  0.0359  0.2954
 2525W        W19373   4.261   6.821   3.643  0.1729 -0.1892  0.0588
 2526W        W19374   5.886   3.138   0.011  0.1822  0.2127  0.0190
 2527W        W19375   9.294   2.890  10.434  0.0303  0.0323  0.1855
 2528W        W19376   2.648  13.634   4.684  0.2205 -0.4916 -0.4639
 2529W        W19377  11.608   9.161   0.241 -0.0651  0.0869 -0.0301
 2530W        W19378   6.740   2.854   0.350 -0.1944  0.1247 -0.1598
 2531W        W19379   9.148   5.995  15.166 -0.0083 -0.0238 -0.0991
 2532W        W19380  12.664   0.746   3.522 -0.0558 -0.0184 -0.0998
 2533W        W19381   2.457   1.291   3.302 -0.1026  0.0030  0.0379
 2534W        W19382   0.221   5.617  15.853 -0.2343 -0.0095 -0.1398
 2535W        W19383  13.802  12.995   2.321 -0.0835  0.0439  0.0044
 2536W        W19384   6.894  17.709   4.147  0.0343  0.1722  0.0686
 2537W        W19385   8.836  13.005  12.307  0.2318  0.0510 -0.2470
 2538W        W19386  17.768   8.461  14.671 -0.1428 -0.2618  0.0456
 2539W        W19387  15.507   3.864   2.986  0.0415 -0.0831 -0.1340
 2540W        W19388   6.509   8.846   4.026  0.2267 -0.2113  0.0934
 2541W        W19389  12.808  11.093  16.018 -0.1998  0.1825  0.1850
 2542W        W19390   3.872  15.667  13.679  0.1098 -0.3404  0.1241
 2543W        W19391  11.460   2.015   1.681  0.1935 -0.2612  0.1338
 2544W        W19392   5.515  16.440  10.800 -0.0155 -0.0072 -0.3307
 2545W        W19393  11.474  13.202  13.272 -0.2493  0.1456 -0.1492
 2546W        W19394  14.524  16.593   0.801 -0.0855 -0.1294  0.0271
 2547W        W19395  15.882  13.845   3.989 -0.1575  0.0197  0.3755
 2548W        W19396  16.152  16.311   3.955 -0.2298 -0.0763 -0.0268
 2549W        W19397  14.147   7.289  11.870  0.1589 -0.0564  0.3439
 2550W        W19398   4.018  12.494  11.377  0.0823 -0.2100  0.2468
 2551W        W19399   4.788  15.914   0.413  0.5722  0.0743 -0.0476
 2552W        W19400   3.658   6.894   1.812 -0.0132  0.3014 -0.1468
 2553W        W19401  11.266  15.579   1.715  0.1905  0.1610 -0.2268
 2554W        W19402  18.021   8.118   2.128 -0.1835  0.2926  0.0383
 2555W        W19403  15.600   2.081  10.968 -0.0843 -0.1749 -0.1986
 2556W        W19404   4.345   2.912  15.710  0.2698 -0.1343  0.0154
 2557W        W19405   5.059  17.913   2.383  0.1063 -0.0074  0.0440
 2558W        W19406   6.271   1.348  11.620 -0.1259 -0.3592  0.0523
 2559W        W19407   4.439  15.718   2.161  0.0770  0.0985  0.0161
 2560W        W19408   0.754  11.024  11.012  0.1504  0.0184  0.0828
 2561W        W19409   3.784   0.677   0.973 -0.0651  0.2146  0.1151
 2562W        W19410   7.320  14.764   0.195  0.1875  0.0868  0.0094
 2563W        W19411   1.603   0.455  10.465  0.0331  0.1031  0.0477
 2564W        W19412   9.601  16.073   1.963 -0.3968  0.1841 -0.1982
 2565W        W19413  16.584   4.125   0.619 -0.0944  0.2337  0.0162
 2566W        W19414   7.160   8.384   5.276  0.1198  0.4170  0.0888
 2567W        W19415  17.479   7.887   4.412 -0.0998 -0.1473 -0.2428
 2568W        W19416  16.072   4.457  11.763 -0.2124 -0.2883 -0.0396
 2569W        W19417   8.726  14.442  12.099 -0.1086 -0.1273 -0.2054
 2570W        W19418   8.657   8.836  12.179 -0.0860 -0.0400 -0.0296
 2571W        W19419   9.808   1.290   0.014 -0.0964 -0.3342 -0.1817
 2572W        W19420  16.363   7.165  11.982  0.1175 -0.1278  0.1291
 2573W        W19421   4.406   7.313   1.501  0.1638  0.5304  0.2063
 2574W        W19422   9.431  13.724   0.651  0.0182  0.0299 -0.0421
 2575W        W19423  11.921   9.663   4.525  0.0831  0.1392  0.0222
 2576W        W19424  16.041   2.286  13.468 -0.0702 -0.1278  0.3796
 2577W        W19425   2.282  14.109  12.803 -0.1075 -0.0729  0.1338
 2578W        W19426   5.456  12.603  11.759 -0.2531 -0.3088  0.0537
 2579W        W19427   3.612  13.126  11.860 -0.1839  0.2023 -0.1053
 2580W        W19428  11.725   8.767   0.713 -0.2139  0.0632 -0.0693
 2581W        W19429  16.887   5.261   2.001  0.0465 -0.0141  0.0370
 2582W        W19430   0.482  16.969   0.102  0.0375  0.3124 -0.1905
 2583W        W19431  10.456   8.780   3.334 -0.0228  0.1555  0.0403
 2584W        W19432   3.374   7.489  10.823 -0.2048  0.0687  0.0457
 2585W        W19433   7.337   3.960   2.498  0.3763  0.2792  0.1304
 2586W        W19434   4.751   8.182  12.705  0.1504  0.3555 -0.0210
 2587W        W19435  12.511  13.379  15.977 -0.1556  0.1316 -0.0214
 2588W        W19436  15.217   3.024  11.777  0.2035 -0.0012 -0.1993
 2589W        W19437  13.165   4.250   2.879  0.0634  0.2723 -0.0909
 2590W        W19438  12.206   4.355   2.350 -0.2243 -0.2832 -0.4156
 2591W        W19439   0.780  14.943   3.427  0.0067  0.0853  0.4169
 2592W        W19440  16.878   5.095   0.277 -0.2024  0.0359 -0.0249
 2593W        W19441   7.443  10.890   3.518 -0.2704 -0.1629  0.2175
 2594W        W19442   8.713  12.573  15.567 -0.1618 -0.0299 -0.1400
 2595W        W19443  17.101   8.994   1.307  0.1893  0.0841  0.0466
 2596W        W19444   0.129  11.714   2.834  0.2206  0.1449 -0.1830
 2597W        W19445  12.623   9.480   2.618  0.1290 -0.0359 -0.0072
 2598W        W19446   3.279   8.598   5.040  0.1069  0.4000  0.0700
 2599W        W19447   4.632  15.719   4.446 -0.0869  0.2905  0.1887
 2600W        W19448   6.986   7.250   2.467  0.1035  0.0119 -0.0689
 2601W        W19449   4.995   0.389  14.749 -0.0203 -0.0318  0.1232
 2602W        W19450   1.671   9.526  13.789  0.2563 -0.0656  0.1047
 2603W        W19451  11.334  11.921   5.258  0.1162 -0.1869 -0.0379
 2604W        W19452   5.061  10.495   2.480 -0.1602 -0.0465 -0.1042
 2605W        W19453   6.040   4.327   3.251 -0.2459  0.0451 -0.0179
 2606W        W19454  14.110  16.010  14.495  0.2856  0.2837  0.1849
 2607W        W19455  10.616  13.737   5.103  0.0048  0.4097 -0.2667
 2608W        W19456   8.834  13.847  11.711 -0.3224 -0.0034 -0.2109
 2609W        W19457   5.734   5.185   3.085  0.0408 -0.1017 -0.2251
 2610W        W19458   6.679  15.190  13.101  0.1421  0.2474  0.2290
 2611W        W19459  12.273   3.747   4.471 -0.0755  0.1551  0.2317
 2612W        W19460   8.406   5.717  14.284 -0.1004  0.1233  0.0212
 2613W        W19461  15.758   7.914   5.054 -0.0040 -0.0335 -0.0902
 2614W        W19462  15.872   5.907  11.731  0.0722  0.1940 -0.2805
 2615W        W19463   0.995   7.021   0.556  0.3143  0.0785 -0.2408
 2616W        W19464   8.835   3.297   2.914  0.2227 -0.1711  0.2424
 2617W        W19465  15.710   0.018  11.929  0.1678  0.1316 -0.1142
 2618W        W19466   6.881  15.675   1.937 -0.1575  0.1804  0.2458
 2619W        W19467   5.255  10.740   2.011  0.0615  0.3883 -0.1814
 2620W        W19468   4.558  17.778   2.328  0.0874  0.0828  0.0777
 2621W        W19469   7.384   8.712  14.973 -0.0552  0.0727 -0.0844
 2622W        W19470   5.054  16.912   1.252 -0.3099  0.0332  0.2420
 2623W        W19471  16.774   0.526  15.637 -0.0156 -0.2095 -0.0170
 2624W        W19472   6.097   5.209  15.850  0.2505 -0.2568 -0.2989
 2625W        W19473   1.001   1.778   4.399  0.0875  0.1280 -0.1196
 2626W        W19474   4.227   1.466  13.214 -0.1595  0.2014 -0.0134
 2627W        W19475   3.003   2.235  11.823 -0.1012 -0.1398  0.0622
 2628W        W19476  15.466   0.066  12.987  0.0362 -0.0296 -0.2578
 2629W        W19477   4.771  12.492   0.270 -0.1337  0.4208 -0.1261
 2630W        W19478   0.445   2.208  13.972  0.2229 -0.0570  0.0237
 2631W        W19479   0.074  12.073   3.229  0.3821  0.2605 -0.2685
 2632W        W19480  13.262   5.669  15.996  0.2256  0.0130  0.3020
 2633W        W19481   8.628  15.811   2.627  0.0233 -0.0213 -0.0488
 2634W        W19482  10.979   4.621  12.896 -0.2621  0.0475 -0.0228
 2635W        W19483  16.391  15.915  12.673 -0.1850  0.1203 -0.0625
 2636W        W19484  13.878  17.187   0.261 -0.2915 -0.1701 -0.2076
 2637W        W19485  16.704   9.925   4.680 -0.1764  0.3298  0.1625
 2638W        W19486   5.248   3.584   2.656 -0.2342 -0.2310 -0.3080
 2639W        W19487  17.588   0.244   1.934 -0.1380  0.0958  0.0829
 2640W        W19488   8.431  17.363   1.923  0.1727 -0.1302  0.2029
 2641W        W19489  11.111  11.025   2.027  0.1894 -0.4069 -0.2220
 2642W        W19490  12.239  16.800  15.602  0.0308  0.0323 -0.0364
 2643W        W19491   4.351  15.408  14.933 -0.0374  0.1828  0.1264
 2644W        W19492   6.453  11.199  12.893  0.0684  0.2070  0.0789
 2645W        W19493   4.117  15.235   2.265 -0.0148  0.0157 -0.5874
 2646W        W19494   0.990   7.061  13.945 -0.1439  0.1620 -0.2439
 2647W        W19495   3.891   8.626   3.930  0.1814 -0.0322 -0.0951
 2648W        W19496   6.677   8.005  14.010  0.0359  0.2344  0.0432
 2649W        W19497  13.980   8.955  13.125 -0.0315 -0.0241 -0.0261
 2650W        W19498  15.323  14.978   3.102  0.1472 -0.0281 -0.1060
 2651W        W19499   5.658   3.199  12.830 -0.3261 -0.0108 -0.1309
 2652W        W19500  16.449   3.399  11.036 -0.0862 -0.0237  0.0849
 2653W        W19501  10.409   4.791  10.368 -0.0940 -0.1472 -0.2309
 2654W        W19502  14.547  18.156   0.734  0.0838 -0.0171  0.1146
 2655W        W19503  11.493   7.834  14.540  0.0948  0.0590  0.1880
 2656W        W19504  17.076  14.777  15.718  0.1550 -0.0691  0.3781
 2657W        W19505   2.570  16.412  13.811 -0.2264  0.2692  0.0572
 2658W        W19506   9.800  13.391  14.387 -0.1675 -0.0844  0.3435
 2659W        W19507   8.298   2.272   1.275 -0.0574 -0.1419 -0.0772
 2660W        W19508   7.946  12.484  12.558  0.2019 -0.0128 -0.2490
 2661W        W19509   3.220  13.096   4.915  0.1235  0.1610  0.0859
 2662W        W19510  11.722   3.653   4.874  0.0991 -0.0592  0.1316
 2663W        W19511   3.016   8.097   4.783 -0.0596  0.1810 -0.2428
 2664W        W19512  12.593   0.870  14.187 -0.1813 -0.1668 -0.0148
 2665W        W19513   3.343   8.085  13.756  0.1290 -0.2872 -0.3660
 2666W        W19514   2.038   7.228   0.345  0.1598 -0.3142  0.0098
 2667W        W19515   4.482  12.402  11.590  0.2113  0.0494 -0.1620
 2668W        W19516  12.492   1.843  10.843  0.2507  0.0208 -0.2586
 2669W        W19517   8.348   8.678   3.270 -0.0982 -0.2249  0.0555
 2670W        W19518  16.467  17.067   1.073  0.0453  0.1310 -0.0241
 2671W        W19519   3.531  15.360  12.792  0.0152 -0.0793  0.0198
 2672W        W19520  13.912   3.038  10.307  0.0824  0.0200  0.1579
 2673W        W19521   5.098   3.933   2.981  0.1887  0.0641 -0.0183
 2674W        W19522  10.211   2.162  15.474 -0.5952 -0.0898  0.1915
 2675W        W19523  12.490   1.152  12.887  0.3010 -0.0182  0.0302
 2676W        W19524   9.504  11.651   4.789  0.2361  0.0351  0.0893
 2677W        W19525   1.487   0.530   3.527  0.0920  0.2836  0.2013
 2678W        W19526   4.204  15.275   0.302  0.3939 -0.0473  0.1142
 2679W        W19527   4.445   4.353   0.707 -0.0137 -0.2770 -0.2333
 2680W        W19528   4.436   6.081  15.928  0.0213  0.1996 -0.0227
 2681W        W19529   9.081  17.639   0.143 -0.1340 -0.1037 -0.1619
 2682W        W19530   6.901   4.694   1.205 -0.2396 -0.0964 -0.1451
 2683W        W19531   1.728   1.991   0.896  0.1312  0.0310 -0.1441
 2684W        W19532   8.913  11.944   4.896  0.0476 -0.1695  0.1208
 2685W        W19533   4.848   3.139   1.455 -0.0789  0.0067 -0.2304
 2686W        W19534  14.408  10.419  14.217 -0.1908 -0.0387  0.4264
 2687W        W19535   7.530   8.673   4.020  0.0896  0.3088 -0.0571
 2688W        W19536   7.471   7.434  15.631 -0.0278 -0.1781  0.0983
 2689W        W19537  10.661  17.661  15.499 -0.0646  0.0984  0.2512
 2690W        W19538  10.292   4.896  13.806  0.0096  0.3027  0.2638
 2691W        W19539   9.876   1.233   3.463  0.2596 -0.3193  0.1317
 2692W        W19540   9.586   3.730  11.296 -0.0977  0.1272 -0.0574
 2693W        W19541   4.173   2.808   3.276 -0.0026  0.3142 -0.0442
 2694W        W19542  17.093  16.935  13.460 -0.2269 -0.0746 -0.3045
 2695W        W19543  11.368   3.488  14.989 -0.3317 -0.2299  0.1553
 2696W        W19544  13.855   5.570  11.509  0.1197  0.2079  0.0227
 2697W        W19545  16.558  14.064  13.506  0.3104  0.0697  0.0047
 2698W        W19546  17.238  12.935   1.143  0.1389  0.1236 -0.0369
 2699W        W19547   3.746   9.118   3.902  0.1107 -0.3024  0.2780
 2700W        W19548   8.973   8.423  10.890 -0.2760 -0.2492  0.0305
 2701W        W19549  14.362   0.126   1.599  0.1981  0.0434  0.1133
 2702W        W19550   6.675   3.662  13.815  0.1269  0.0666 -0.3645
 2703W        W19551   6.669  14.171   2.400  0.3705 -0.0810  0.3398
 2704W        W19552  15.359   8.476   1.165 -0.0962  0.3310 -0.4568
 2705W        W19553   2.702   0.403   0.936 -0.0987 -0.2448 -0.0727
 2706W        W19554  17.340  10.692   3.252 -0.0652 -0.2455  0.4732
 2707W        W19555  10.474   9.399   3.137  0.2061 -0.1773 -0.0257
 2708W        W19556  10.231   9.035  10.586  0.0088  0.0437  0.3436
 2709W        W19557  10.367   2.490   2.896  0.2399  0.0911 -0.1255
 2710W        W19558  18.013   5.091   4.686 -0.3087 -0.0988  0.0676
 2711W        W19559   5.905  10.523   0.449  0.1770  0.0946  0.1256
 2712W        W19560   1.350   5.491   5.112 -0.1251 -0.0537 -0.2563
 2713W        W19561  16.571   9.469   2.828  0.0731  0.1341 -0.1671
 2714W        W19562  10.249  16.186   1.316 -0.4340  0.1023  0.1830
 2715W        W19563  17.157   8.664   0.595 -0.1634 -0.0419 -0.1389
 2716W        W19564  10.003   2.856   1.627 -0.3208 -0.0942  0.2937
 2717W        W19565   7.583  15.780   1.586  0.1331  0.1685 -0.1098
 2718W        W19566   0.220   1.661  12.299  0.2022  0.0542  0.2065
 2719W        W19567   8.662   7.171   1.377  0.2240 -0.0482 -0.1743
 2720W        W19568   9.606   4.114  11.738  0.0326 -0.1401 -0.1141
 2721W        W19569   8.102  13.566  15.148 -0.1395  0.0374  0.0465
 2722W        W19570  12.600   9.054  13.347  0.0965 -0.0888  0.1261
 2723W        W19571  16.222   9.829  15.713 -0.2982 -0.0008 -0.0643
 2724W        W19572  15.028   5.773   5.076 -0.0382  0.0366 -0.1778
 2725W        W19573  18.039  11.348   1.192  0.0821  0.1082  0.1337
 2726W        W19574  12.419   7.268   4.698  0.1170 -0.0360 -0.0905
 2727W        W19575   2.089  14.891  11.430  0.1063  0.2473 -0.2726
 2728W        W19576  17.249   3.877   5.339  0.1207 -0.2166 -0.1598
 2729W        W19577   4.610   9.368   2.684 -0.3762  0.0820 -0.0701
 2730W        W19578  10.910   7.437  15.339 -0.0551 -0.2896 -0.0491
 2731W        W19579   7.076   9.810   4.154  0.2358  0.1200 -0.0279
 2732W        W19580   6.167   6.512   2.337  0.1534  0.1763  0.0213
 2733W        W19581  17.925  15.651  10.205 -0.3770 -0.0693 -0.2904
 2734W        W19582   1.103   3.578   0.166  0.0187 -0.0691  0.0057
 2735W        W19583  11.892   8.102   0.024 -0.2647 -0.2106  0.0612
 2736W        W19584   1.892  11.946  13.443 -0.1272 -0.0755 -0.0927
 2737W        W19585   3.954   1.223   0.163 -0.2071  0.0765 -0.1077
 2738W        W19586   3.903  14.084  11.743 -0.2629  0.0053  0.0574
 2739W        W19587  16.730   4.579   4.536  0.2056  0.1643 -0.2975
 2740W        W19588   5.929  10.033  14.354 -0.1772 -0.0272  0.1972
 2741W        W19589   0.485   2.226   4.506  0.1131 -0.1693  0.0258
 2742W        W19590   5.591  10.319   0.044  0.0546 -0.1007  0.0599
 2743W        W19591  14.957   7.466  11.499  0.0006  0.1921  0.1380
 2744W        W19592   4.035  16.937  15.157 -0.0714 -0.5244  0.0503
 2745W        W19593   8.921   5.409  12.087  0.0560  0.2860 -0.2505
 2746W        W19594   6.667  11.665   2.181 -0.1886  0.1705 -0.0730
 2747W        W19595  17.327   0.853   3.994  0.1896 -0.1623  0.1150
 2748W        W19596   4.479   7.539   1.988 -0.0125 -0.0797  0.0138
 2749W        W19597   1.534  16.578   4.997  0.0842 -0.0782  0.1282
 2750W        W19598   1.397   9.662  13.337  0.4558 -0.1288  0.1042
 2751W        W19599   5.945   7.906   0.755 -0.0344  0.0716 -0.1858
 2752W        W19600  12.071   7.612   5.498  0.0096 -0.1392  0.1210
 2753W        W19601   7.803   4.019   4.702  0.1001  0.0938  0.0802
 2754W        W19602   4.332  11.014   4.075 -0.0263  0.2404  0.2897
 2755W        W19603   1.941  13.071   4.669  0.0420 -0.2446 -0.1139
 2756W        W19604   5.844   1.534   2.544  0.0883 -0.2959 -0.0148
 2757W        W19605  17.722  11.236  12.922  0.0653 -0.1581 -0.0683
 2758W        W19606  12.110   7.317   0.845 -0.1175  0.0859 -0.0452
 2759W        W19607  15.031   0.478  12.268 -0.1554 -0.1637  0.0391
 2760W        W19608  17.107   6.294   1.656  0.0034 -0.0788 -0.3396
 2761W        W19609  12.217   4.334  14.156  0.1680  0.1558 -0.1243
 2762W        W19610   5.451  16.264   1.927  0.1413 -0.2073 -0.0865
 2763W        W19611   5.889  13.452   1.023 -0.0507  0.2166  0.2392
 2764W        W19612  10.058   3.065  15.442 -0.4836  0.1174 -0.1979
 2765W        W19613   9.209   3.624  13.539 -0.1859  0.0381  0.0013
 2766W        W19614  11.976   6.975  11.456 -0.2092  0.2313 -0.3503
 2767W        W19615   3.069   3.825  14.550  0.2814 -0.1175 -0.2899
 2768W        W19616   5.742   4.173  13.484 -0.2504  0.3014  0.0460
 2769W        W19617   7.466   5.059  14.214 -0.0472  0.2737 -0.1099
 2770W        W19618   7.450  12.672   3.975  0.2879  0.4827 -0.0090
 2771W        W19619   3.409  12.641   3.879  0.1868 -0.2218  0.2572
 2772W        W19620   0.147  13.232   3.122 -0.0053 -0.1770 -0.0304
 2773W        W19621   9.949   9.659   0.436 -0.0172  0.1292  0.1755
 2774W        W19622   9.586   7.159   4.673 -0.3301 -0.3047 -0.6052
 2775W        W19623   5.276  15.070   1.356  0.1235  0.0930 -0.0125
 2776W        W19624  15.997  11.414  13.690 -0.2735  0.0978 -0.1560
 2777W        W19625   9.225   7.995   2.464  0.0913 -0.1608  0.0575
 2778W        W19626   6.104  17.497   3.012  0.3436 -0.1136  0.2206
 2779W        W19627  18.136   8.948   0.120  0.1596 -0.0010 -0.0186
 2780W        W19628  16.710   5.144   1.193 -0.3083  0.0396  0.2755
 2781W        W19629   3.789   2.687   0.643 -0.1064 -0.0993  0.0981
 2782W        W19630  15.050  14.501  12.402 -0.1021 -0.0618 -0.1824
 2783W        W19631  17.643   2.478   2.033  0.0884 -0.0558  0.0648
 2784W        W19632   6.159   8.087  12.457 -0.2127 -0.4209  0.0019
 2785W        W19633  11.566  11.641   2.895 -0.0728 -0.3705 -0.0246
 2786W        W19634  15.065   9.840   0.336 -0.1673 -0.1509 -0.0518
 2787W        W19635   5.472  14.326  10.856 -0.2731 -0.0571  0.1291
 2788W        W19636   2.414  12.709  14.791  0.0901  0.0052  0.1337
 2789W        W19637  12.691   5.485   1.096 -0.2017  0.2019  0.0303
 2790W        W19638   9.939   4.869  12.580  0.1653  0.0284 -0.1174
 2791W        W19639  15.919   7.882   5.537 -0.0307 -0.1453  0.1419
 2792W        W19640   3.211   7.019   2.898  0.1162  0.1350 -0.0056
 2793W        W19641   6.089  17.658  13.660 -0.0495  0.1183 -0.0818
 2794W        W19642   4.532   8.186  12.122 -0.2135 -0.5679  0.1946
 2795W        W19643   0.905   3.480  12.999 -0.0581  0.1449 -0.1795
 2796W        W19644   5.962   9.712  16.019  0.2200 -0.2696  0.0817
 2797W        W19645  16.755   9.719  11.201 -0.2083  0.0961 -0.0626
 2798W        W19646  14.497   2.199  13.909  0.1024  0.1196 -0.0987
 2799W        W19647   9.170   0.272   0.397 -0.2537  0.2761 -0.1279
 2800W        W19648  14.149  16.539  11.911 -0.2218 -0.1127 -0.0423
 2801W        W19649   5.080   7.028   2.851  0.0951 -0.0758  0.0972
 2802W        W19650   0.735   9.570   2.056 -0.2295 -0.0351  0.1077
 2803W        W19651  12.988  15.248  15.234 -0.0819 -0.0153 -0.0709
 2804W        W19652  16.392  10.934   3.381  0.1496  0.1112  0.2674
 2805W        W19653  18.066  17.732  10.923 -0.1383  0.4540 -0.1936
 2806W        W19654  16.281  10.492   3.625 -0.0996  0.1038 -0.1528
 2807W        W19655   8.670  16.935   4.021 -0.0025 -0.3966  0.0928
 2808W        W19656   0.717   5.888   0.388 -0.1084 -0.0720 -0.1417
 2809W        W19657  16.880  17.863  15.916  0.2269 -0.0122 -0.0590
 2810W        W19658  10.596  17.917  12.563  0.1475  0.2691 -0.0894
 2811W        W19659  11.935   8.131  11.982  0.0586  0.0422 -0.0769
 2812W        W19660  10.188  11.207   3.707 -0.0415 -0.1568 -0.0665
 2813W        W19661   1.383   8.480  15.355  0.0831  0.1559 -0.2582
 2814W        W19662   3.433  13.024   1.699  0.2297  0.0039  0.2146
 2815W        W19663  15.486   9.255   4.921  0.1888  0.0405 -0.0917
 2816W        W19664   6.714   8.148  13.398 -0.5121  0.1872  0.0895
 2817W        W19665  13.873   5.066   4.180 -0.3475  0.1171  0.0651
 2818W        W19666   9.175   3.242   4.610  0.0116  0.1252 -0.0791
 2819W        W19667  11.857   8.728   4.140  0.2248  0.0997 -0.1219
 2820W        W19668   4.750   9.689  14.316 -0.0195 -0.0205  0.1796
 2821W        W19669  13.063  16.239   3.749  0.1083  0.0736  0.1343
 2822W        W19670   7.224  16.874  11.616 -0.0399  0.1044  0.1009
 2823W        W19671   7.215  15.509   0.202 -0.1604  0.1288  0.1232
 2824W        W19672   1.753  15.819  12.445 -0.0383  0.2299  0.0611
 2825W        W19673  14.392   6.280  13.402 -0.0259  0.1695 -0.1509
 2826W        W19674   1.548  15.442  12.197 -0.4536 -0.1989 -0.2686
 2827W        W19675  11.487   3.404   0.692 -0.2441 -0.1367  0.0704
 2828W        W19676  14.896   2.712   1.160 -0.0720 -0.1529  0.0740
 2829W        W19677  14.043   9.778   1.193  0.2983 -0.0087 -0.2891
 2830W        W19678   8.850   0.053  12.805 -0.1307 -0.1592  0.2049
 2831W        W19679  17.456   3.814   5.907  0.0226  0.3288  0.0282
 2832W        W19680   5.796   6.670  10.461 -0.1018  0.0308  0.0183
 2833W        W19681  10.738  18.196   1.317  0.0606  0.0418 -0.0185
 2834W        W19682   8.308  17.837   2.055 -0.2322 -0.2402 -0.6181
 2835W        W19683   5.221   3.214   0.085 -0.0578  0.1285 -0.0035
 2836W        W19684   5.494  11.093   1.780  0.0255  0.4146  0.1590
 2837W        W19685  13.153  16.774   2.502 -0.3508  0.1592 -0.1603
 2838W        W19686  15.458  11.145   1.122 -0.2405 -0.0858 -0.0920
 2839W        W19687  18.084   3.212  11.015  0.0921  0.2285 -0.3431
 2840W        W19688  15.098  11.294   1.376  0.1459 -0.2028  0.1047
 2841W        W19689   7.994   0.605   3.679 -0.1748 -0.2005  0.3134
 2842W        W19690   2.581   6.337  15.584 -0.1539 -0.1497  0.0071
 2843W        W19691   4.157  13.541   0.990 -0.0851  0.3007  0.1357
 2844W        W19692   1.294   8.749   3.429  0.2834 -0.3051  0.2481
 2845W        W19693   0.202   3.548   1.226  0.1213  0.2100  0.0464
 2846W        W19694   0.132  16.647   3.275 -0.0825  0.1852  0.1190
 2847W        W19695  10.862  12.468   3.603 -0.0910  0.1238  0.1621
 2848W        W19696   3.665  11.059   3.992  0.1501  0.1427  0.1623
 2849W        W19697   4.343   0.130   0.199  0.2076 -0.3974  0.0882
 2850W        W19698  12.269   8.380   3.260 -0.1616  0.2333 -0.2811
 2851W        W19699   0.862   8.091   4.018  0.1357  0.1319  0.0525
 2852W        W19700   4.569  10.220  14.801 -0.1927 -0.0906  0.2296
 2853W        W19701   2.838   9.682  12.997 -0.3919  0.1264 -0.0131
 2854W        W19702   4.779  16.458   2.274 -0.2017 -0.1901 -0.0266
 2855W        W19703  15.838   6.201  10.816  0.2787 -0.3612  0.2405
 2856W        W19704   5.383  13.345  15.207  0.3575 -0.0837 -0.0433
 2857W        W19705   7.814   6.623   0.810  0.1794  0.2246 -0.0600
 2858W        W19706  11.441   3.607   3.931  0.1718 -0.1680  0.1042
 2859W        W19707  12.652   2.546   1.501  0.0297  0.1119 -0.3486
 2860W        W19708  17.476  13.841   3.091 -0.0758  0.2073 -0.1445
 2861W        W19709   6.551   1.920   3.725  0.1618 -0.0853  0.0666
 2862W        W19710   2.407   9.270  15.762  0.0562 -0.0207 -0.2372
 2863W        W19711   6.675   7.368  12.340 -0.0358  0.3436 -0.0435
 2864W        W19712   3.778  16.663   1.793  0.1432 -0.0643  0.0888
 2865W        W19713  15.481  13.042  15.877 -0.0624  0.1737  0.0578
 2866W        W19714   2.025  10.962  12.997 -0.1845  0.0675  0.0081
 2867W        W19715  18.108   3.435   3.227 -0.1043 -0.0109 -0.3489
 2868W        W19716  13.980   5.048   0.197 -0.1158  0.1055 -0.1109
 2869W        W19717   1.608   8.689  16.113 -0.1518  0.2061 -0.1146
 2870W        W19718   2.375  14.555  10.237  0.1013  0.2367  0.0822
 2871W        W19719  14.193   2.959  14.330 -0.0661 -0.0048 -0.1198
 2872W        W19720  12.579   0.392   1.288  0.3068 -0.2356  0.0314
 2873W        W19721  16.421   8.316  10.740 -0.2375  0.0805 -0.0632
 2874W        W19722   2.289  16.717   0.117 -0.3890 -0.0896 -0.1242
 2875W        W19723   3.631   4.160  10.667  0.2620 -0.0651 -0.0918
 2876W        W19724   1.820   9.261   2.071  0.0909  0.2794  0.1257
 2877W        W19725   7.780  14.619   5.684  0.2021  0.0068  0.0794
 2878W        W19726  17.952   7.256   3.671  0.0942  0.0889  0.1555
 2879W        W19727  10.182  14.626   2.149 -0.0466 -0.4167  0.4666
 2880W        W19728   1.481  16.783   3.609  0.0181 -0.1091 -0.0035
 2881W        W19729  13.594  14.586   2.291  0.4488  0.1932  0.3826
 2882W        W19730  11.198   7.763  10.375  0.3082  0.0610 -0.3668
 2883W        W19731  17.206  12.500  14.528  0.0775  0.0791 -0.1239
 2884W        W19732   6.767   7.256   4.196  0.1992  0.3051 -0.1462
 2885W        W19733   0.020   0.091   4.750  0.0325  0.1388 -0.2307
 2886W        W19734  12.491   1.571   0.372 -0.0060  0.3750 -0.0791
 2887W        W19735   7.978  12.136   1.200 -0.4089 -0.1606 -0.2515
 2888W        W19736  16.745  14.404  15.754  0.2650 -0.0863 -0.0478
 2889W        W19737   8.355  17.811  14.246  0.0054 -0.0109 -0.3473
 2890W        W19738   8.181  11.789   0.588  0.1499  0.0048 -0.0386
 2891W        W19739   2.248   0.772  15.013  0.1793 -0.2552 -0.6848
 2892W        W19740  11.726   9.402  10.629  0.2366 -0.0549  0.0741
 2893W        W19741  10.680   4.206   2.998  0.0057 -0.0695  0.1613
 2894W        W19742   1.357   4.796  14.553 -0.0776 -0.0823  0.1612
 2895W        W19743  14.664  12.670   1.963  0.0963  0.0036 -0.2318
 2896W        W19744   4.913   1.065   0.980  0.4157 -0.0904 -0.1646
 2897W        W19745   5.958  12.841   0.201 -0.0434 -0.1557 -0.3857
 2898W        W19746  11.498  15.272   1.433  0.0649  0.2990 -0.1914
 2899W        W19747   4.630   2.176  11.826  0.2524 -0.1010 -0.4553
 2900W        W19748  18.112  13.856   0.692 -0.1004 -0.0207  0.1533
 2901W        W19749   5.723  13.731   3.135 -0.2611  0.1521 -0.3292
 2902W        W19750   1.662   3.081   1.344  0.3492  0.0941  0.0490
 2903W        W19751   9.986   6.209   3.649 -0.3104 -0.2301 -0.0475
 2904W        W19752  14.189  10.368   2.825 -0.0567  0.0041  0.4281
 2905W        W19753   5.717   3.906   4.914 -0.0550 -0.1372  0.0757
 2906W        W19754  12.341   8.616  11.362  0.1272 -0.3045  0.1536
 2907W        W19755  17.979  17.207   0.850  0.0999 -0.0267  0.2937
 2908W        W19756   2.477   6.193   4.499  0.0451  0.1710  0.0321
 2909W        W19757  18.142   7.719  14.587  0.0045  0.1929 -0.1364
 2910W        W19758  11.382  12.201   0.245 -0.2028  0.1920  0.1724
 2911W        W19759   5.926   4.023   4.346 -0.1930 -0.1190 -0.0881
 2912W        W19760  14.743   5.855  13.493  0.0818 -0.1244 -0.0812
 2913W        W19761   0.483  16.411   4.479 -0.1281 -0.0693 -0.0114
 2914W        W19762   4.057  12.122  13.678  0.0953  0.0575  0.0706
 2915W        W19763  13.910   1.178   0.505  0.2008  0.0271  0.0926
 2916W        W19764  12.260  11.631   1.707 -0.0200  0.1567  0.1498
 2917W        W19765   4.613  11.703   3.743  0.1948  0.2750 -0.2293
 2918W        W19766  12.616   7.226   2.875 -0.0134  0.2249  0.1093
 2919W        W19767   6.556   1.059   3.359 -0.0307 -0.1692  0.0302
 2920W        W19768   6.151   0.562   1.216  0.0450 -0.4035 -0.3081
 2921W        W19769   5.296   7.978   2.042 -0.0107 -0.1479  0.3963
 2922W        W19770   1.064  11.282   1.580 -0.1045  0.0847 -0.0931
 2923W        W19771   6.229   5.575   1.501 -0.2350  0.1162 -0.1479
 2924W        W19772  15.819  15.121  14.427 -0.3732 -0.1706  0.0346
 2925W        W19773   7.617   7.237   4.882  0.2094  0.1907  0.0777
 2926W        W19774  17.873  11.972   5.184  0.1820 -0.1834  0.2093
 2927W        W19775   2.814   4.876   2.728  0.0918 -0.1799  0.0725
 2928W        W19776  16.039   7.289   3.578  0.2955 -0.3232 -0.0453
 2929W        W19777  14.470   2.642  14.809 -0.2348  0.0549 -0.0323
 2930W        W19778  13.514   7.674  12.806 -0.2411 -0.0867  0.0847
 2931W        W19779  11.774  10.477  15.995  0.4365 -0.1399  0.2346
 2932W        W19780  11.991  13.532   2.921 -0.0528  0.1427  0.0868
 2933W        W19781   5.615   0.541   1.948 -0.0488 -0.0626  0.0882
 2934W        W19782  15.903   9.911  12.706 -0.0669  0.1640  0.4432
 2935W        W19783   7.389   1.527  11.891 -0.0499  0.1608  0.1784
 2936W        W19784   9.441   4.030   2.798 -0.1632  0.2406  0.1827
 2937W        W19785  16.089   7.532   4.021  0.1648 -0.0634  0.0246
 2938W        W19786   5.660   9.658  14.221 -0.0170 -0.1232  0.1000
 2939W        W19787   4.646   7.324   0.335  0.0230 -0.1711  0.0229
 2940W        W19788   1.255   5.361  11.523 -0.0624  0.1859  0.0354
 2941W        W19789   5.449   7.463   3.935  0.0419  0.1916 -0.1525
 2942W        W19790   6.194  12.211  15.924 -0.2004  0.2681  0.1263
 2943W        W19791   6.575  10.379   2.342  0.2220  0.2866 -0.1931
 2944W        W19792   4.858  12.938   5.768  0.0892 -0.2298  0.1904
 2945W        W19793  11.029  14.469  15.333  0.1440 -0.2149 -0.2126
 2946W        W19794   2.524  15.129  12.682 -0.2418 -0.0178 -0.2244
 2947W        W19795   2.782   1.822   1.817  0.2129  0.1258  0.0142
 2948W        W19796   5.896  17.069  11.761 -0.0141 -0.1027  0.0163
 2949W        W19797  17.336  10.966   4.386 -0.1580 -0.0536 -0.2454
 2950W        W19798  14.083   3.867   2.635 -0.1060  0.2283  0.1849
 2951W        W19799   5.116   6.508   3.775 -0.0251 -0.0884  0.0025
 2952W        W19800   3.862  13.022   2.688 -0.0448  0.2715 -0.0948
 2953W        W19801  15.682   2.541  15.748  0.0120  0.1567  0.0569
 2954W        W19802   3.277  12.790  12.096  0.1838 -0.1934 -0.0884
 2955W        W19803   6.351   0.204  11.814 -0.0042  0.0224  0.1000
 2956W        W19804  13.785   0.085   3.593 -0.1284 -0.1793 -0.2265
 2957W        W19805   1.564   1.709  13.654 -0.0707 -0.4212 -0.0766
 2958W        W19806  12.635   6.761  13.359 -0.0570  0.2254  0.0502
 2959W        W19807  13.724   6.235  10.180 -0.1545 -0.1052 -0.0899
 2960W        W19808   4.251  15.172  13.115  0.0325 -0.0495 -0.2623
 2961W        W19809   9.336  12.642   4.316  0.2388 -0.1214  0.3355
 2962W        W19810   2.605   3.650   2.942  0.2707 -0.0652  0.4457
 2963W        W19811  12.201  11.077  12.835  0.0325  0.0967 -0.1577
 2964W        W19812  10.667  18.077   0.317  0.0020 -0.0092  0.0873
 2965W        W19813   0.516   9.175   2.310 -0.2289 -0.0006  0.0887
 2966W        W19814   4.667   4.534  12.589 -0.2618  0.1919  0.1096
 2967W        W19815   2.729   6.653   3.796 -0.1710 -0.0746 -0.4894
 2968W        W19816   9.177  15.067  13.834 -0.2274 -0.4479  0.2026
 2969W        W19817   6.488  17.897  13.070  0.1210 -0.2150  0.2003
 2970W        W19818   6.345   3.632   3.817  0.2985 -0.2617 -0.2175
 2971W        W19819   0.557   3.844   3.664  0.2490  0.0063  0.2496
 2972W        W19820  15.602   3.247   2.159  0.0015 -0.4240  0.1733
 2973W        W19821   7.808  15.876   3.573  0.0980 -0.0844 -0.1319
 2974W        W19822  15.628   8.890   4.116  0.0853  0.0187 -0.0749
 2975W        W19823   9.927   1.681  12.519  0.0453 -0.1862  0.4317
 2976W        W19824   5.073  12.283  12.894 -0.3107 -0.0150 -0.0715
 2977W        W19825   0.713   9.444  12.540 -0.2477 -0.2936 -0.0360
 2978W        W19826   3.274   6.146  15.303  0.0652 -0.0134 -0.2281
 2979W        W19827   4.354  11.562   2.209  0.4592 -0.0812  0.1763
 2980W        W19828  10.691   2.964   4.952 -0.2809 -0.0458  0.0058
 2981W        W19829   3.350  18.220  11.343  0.1743 -0.0206 -0.2745
 2982W        W19830  17.625  13.348   4.442  0.0665  0.2436  0.2472
 2983W        W19831   9.153  10.296  15.600 -0.1561  0.4252 -0.2291
 2984W        W19832   5.015  13.508   3.816 -0.1597  0.0195 -0.1366
 2985W        W19833  16.728   9.930  13.378 -0.0094  0.3515  0.1547
 2986W        W19834  15.868  16.175   1.684 -0.3177 -0.2864  0.0436
 2987W        W19835  13.612   7.944   4.345  0.1099  0.3014 -0.0698
 2988W        W19836   4.941  16.392   0.450 -0.1743  0.0355  0.2328
 2989W        W19837   1.015   8.304  13.684  0.1889 -0.1090  0.0251
 2990W        W19838  17.636   2.159   1.229  0.1829  0.0756  0.2390
 2991W        W19839  17.512   2.928   0.571  0.1012 -0.0366  0.0413
 2992W        W19840   3.743  15.400  12.327  0.1421  0.4029 -0.4159
 2993W        W19841   4.351  13.000  15.193  0.0553 -0.2244  0.1451
 2994W        W19842   4.975  16.914   0.772  0.1852 -0.3676 -0.0789
 2995W        W19843  17.822  15.067   2.650 -0.0134  0.3411 -0.2647
 2996W        W19844   6.006   8.583   4.769 -0.0269 -0.2020 -0.4331
 2997W        W19845  13.838  16.741  12.403 -0.2570 -0.0841  0.2494
 2998W        W19846   5.094   1.229  14.512  0.2491  0.0134 -0.0223
 2999W        W19847  10.812   4.434  13.626  0.0345  0.2805 -0.2097
 3000W        W19848  13.900   4.381  11.623 -0.0641  0.0149  0.1000
 3001W        W19849  16.529   6.419   0.360  0.0540 -0.0497 -0.2633
 3002W        W19850   5.409   6.386  14.422  0.3061 -0.1072 -0.0500
 3003W        W19851  13.531   6.066  15.446 -0.2305  0.3199  0.2594
 3004W        W19852   0.416   8.684  13.148  0.1936  0.2432 -0.0236
 3005W        W19853   4.619   2.751  14.898 -0.2108  0.0050  0.3174
 3006W        W19854   4.417   7.369   3.640  0.2329  0.1047 -0.0744
 3007W        W19855   8.300   6.395  15.552  0.0757  0.0401 -0.0619
 3008W        W19856  17.046   5.301   3.363 -0.0626  0.2435  0.2568
 3009W        W19857  17.883   4.360   0.789  0.1146  0.1161 -0.1313
 3010W        W19858  11.009   6.564  14.391  0.2822  0.0613 -0.2959
 3011W        W19859   4.810   3.460  15.934 -0.2235  0.0154 -0.2480
 3012W        W19860   1.171   1.971  14.592 -0.2492  0.0968 -0.1345
 3013W        W19861   0.150   9.260   1.400 -0.0406 -0.1101 -0.1453
 3014W        W19862  16.343   2.791  11.270 -0.1465 -0.2248  0.0133
 3015W        W19863   0.308   0.260   3.833 -0.2739  0.0912  0.0585
 3016W        W19864  15.540  18.141  11.446  0.0517 -0.2068  0.0777
 3017W        W19865  12.689   5.027  14.170  0.1325  0.0297  0.3499
 3018W        W19866  12.437   8.169  12.093 -0.0926 -0.1247  0.0553
 3019W        W19867   4.928   4.606  10.336  0.0806  0.0373  0.0092
 3020W        W19868   1.904  10.346   2.180  0.0105 -0.0219  0.0499
 3021W        W19869   9.086  16.247  12.004 -0.1220  0.3402  0.3075
 3022W        W19870   9.973  17.921   4.460  0.0933 -0.2541  0.0836
 3023W        W19871   0.228   4.025  13.722 -0.1383  0.3316  0.0020
 3024W        W19872   6.300   3.671   2.633  0.2067 -0.2464  0.1646
 3025W        W19873   4.228   0.916  12.410 -0.1646  0.1449  0.2214
 3026W        W19874  16.152   5.306   2.399  0.1358  0.3528 -0.3031
 3027W        W19875   2.963   1.998  13.530  0.0854  0.0528  0.0214
 3028W        W19876  15.209  17.161   0.561  0.1489  0.0930  0.1743
 3029W        W19877   3.653  12.387  14.792  0.0442 -0.0491 -0.2206
 3030W        W19878   4.186   5.153  15.392  0.0829 -0.0139 -0.0554
 3031W        W19879   1.728  15.733   5.381  0.0657 -0.0729  0.3943
 3032W        W19880   8.038  15.750   2.539  0.1468  0.0334 -0.1896
 3033W        W19881   3.258   2.221   3.714 -0.0553  0.0398  0.2721
 3034W        W19882   7.169  10.671   1.215  0.0277 -0.2286 -0.0974
 3035W        W19883  14.546   0.425  12.863 -0.3412 -0.0160  0.3345
 3036W        W19884  18.012  13.748  13.615 -0.0164  0.1409 -0.1834
 3037W        W19885   4.370   2.057   5.092  0.1649  0.0858 -0.1031
 3038W        W19886   8.120  10.055   0.366  0.3577  0.0203  0.2119
 3039W        W19887   2.575   5.474   3.654 -0.2585  0.0202  0.0177
 3040W        W19888  16.541   9.744  14.383 -0.0350 -0.1158 -0.2199
 3041W        W19889   0.587  12.702  12.688 -0.3025 -0.2726 -0.0456
 3042W        W19890  15.861  12.506   3.405 -0.0066  0.1284 -0.1257
 3043W        W19891  13.635  14.207  10.937  0.0399 -0.0395  0.0522
 3044W        W19892  16.586  15.266  11.765  0.3697  0.1354  0.1194
 3045W        W19893   9.756  15.468  15.543 -0.2461 -0.0029  0.0145
 3046W        W19894   1.035  18.221  11.350 -0.0989  0.0698 -0.1051
 3047W        W19895  11.772   9.752   2.649 -0.2279  0.1040  0.1870
 3048W        W19896   0.257   9.254   3.791 -0.0877  0.0671  0.1559
 3049W        W19897   1.699   2.593  12.026  0.1500  0.0089  0.0152
 3050W        W19898  14.140   3.282   4.195 -0.2443  0.0039  0.0817
 3051W        W19899  16.298  15.927   0.167  0.1145  0.5488 -0.0437
 3052W        W19900   5.919   8.625  11.712 -0.0988  0.1610 -0.2213
 3053W        W19901   0.266   7.929  16.007 -0.1186 -0.5048 -0.0161
 3054W        W19902  10.416   4.411  14.514 -0.2170  0.1084 -0.1007
 3055W        W19903   8.393  10.311  12.326  0.1932 -0.0565 -0.0117
 3056W        W19904   1.292   4.653  14.017 -0.2408 -0.1891  0.1193
 3057W        W19905   4.789   1.722  14.339 -0.0049  0.0973  0.1744
 3058W        W19906  11.736   9.955  11.792  0.0515  0.1694  0.1088
 3059W        W19907   1.693   0.204  15.710  0.0922 -0.0129 -0.1266
 3060W        W19908  12.998  14.017  11.688 -0.5741  0.0002  0.0389
 3061W        W19909   2.034  17.112  16.063 -0.1310 -0.0292  0.1507
 3062W        W19910  12.687  14.766  10.220 -0.1093  0.1917  0.0240
 3063W        W19911   7.899  13.359  12.777 -0.0920 -0.3365  0.4074
 3064W        W19912  13.027   0.466  11.815  0.1758  0.3004  0.2726
 3065W        W19913  14.130   5.703   2.365  0.1117 -0.3382  0.0918
 3066W        W19914  15.636   8.006  10.640  0.0606 -0.1101 -0.0119
 3067W        W19915   3.961  17.982   0.028 -0.0404 -0.0044  0.2390
 3068W        W19916   4.247  17.598   1.928 -0.1258  0.0852  0.1410
 3069W        W19917  14.563   9.303  14.851  0.0506 -0.0357 -0.1756
 3070W        W19918   2.453   7.463   0.317  0.0753  0.0026  0.1953
 3071W        W19919   6.577   1.489  14.970  0.3844  0.1276  0.0009
 3072W        W19920  11.935  17.663  15.492 -0.0591 -0.3272 -0.1272
 3073W        W19921  12.617  12.953   1.990 -0.2070  0.1917 -0.3226
 3074W        W19922   3.449   0.771  13.350  0.2442 -0.0486 -0.0423
 3075W        W19923   0.471  14.040   2.380  0.1761  0.2678 -0.1677
 3076W        W19924   6.456   2.789   3.559  0.2991  0.2799  0.4008
 3077W        W19925  13.739  10.412  11.769  0.1353  0.2027 -0.0265
 3078W        W19926  16.981  18.122  10.836 -0.4131  0.1326  0.2085
 3079W        W19927   2.740   3.197   2.901  0.3057 -0.1000 -0.1807
 3080W        W19928  16.248   5.318   1.039  0.1229  0.1636 -0.0238
 3081W        W19929  17.811  16.710   1.045  0.2539  0.0873  0.3635
 3082W        W19930   4.624  16.738  13.028  0.0466  0.1161 -0.0012
 3083W        W19931   2.439  12.413   1.896  0.1068  0.1837 -0.2531
 3084W        W19932  11.433   2.714  15.954  0.2970  0.0995 -0.3493
 3085W        W19933  11.386  11.050   5.425  0.1053 -0.1410  0.4605
 3086W        W19934  16.104   0.079   0.073  0.1220  0.0958  0.1899
 3087W        W19935   5.601   2.498   0.492  0.2683  0.4214 -0.1243
 3088W        W19936   3.772   3.107  13.223  0.0678  0.2080 -0.0347
 3089W        W19937  15.205  16.297  14.759 -0.2365 -0.1218  0.1734
 3090W        W19938   7.755   1.404   1.779 -0.0517 -0.1309 -0.2314
 3091W        W19939  16.759   0.123   1.621  0.1748  0.1049 -0.0319
 3092W        W19940   7.220   0.963   4.869  0.4849 -0.0174  0.0436
 3093W        W19941   7.842   2.578   5.055  0.1289 -0.2053 -0.2617
 3094W        W19942  14.954   0.247  13.159 -0.0182  0.0807 -0.1616
 3095W        W19943   6.076   1.682  11.311  0.0510 -0.0305 -0.3392
 3096W        W19944   1.925  10.062  14.611 -0.0056  0.1650 -0.0341
 3097W        W19945   6.013   1.109  14.045 -0.2561 -0.0328 -0.0538
 3098W        W19946  14.201   8.706   3.395  0.0806 -0.0770  0.0818
 3099W        W19947   8.477  11.528   4.947  0.0731  0.0743  0.2818
 3100W        W19948   8.375   4.392   2.691  0.1267  0.2443  0.1259
 3101W        W19949   7.708   0.521  12.011  0.2941  0.0800 -0.1051
 3102W        W19950   3.228  12.283   1.582 -0.1478  0.4428  0.0581
 3103W        W19951  12.318   9.509  13.462  0.1731  0.0496  0.1217
 3104W        W19952  13.013   6.658  11.069  0.1571  0.0987 -0.0730
 3105W        W19953  12.546  15.786   0.836 -0.0389  0.4140  0.3152
 3106W        W19954  12.607   0.177   2.690  0.1139  0.1100 -0.1371
 3107W        W19955  15.547  11.278  15.326  0.0870 -0.0758 -0.1853
 3108W        W19956   7.895  12.661   0.041 -0.1649  0.0347 -0.2927
 3109W        W19957   3.581  13.486  11.162  0.0635  0.0819 -0.0015
 3110W        W19958  17.294   8.419  11.708 -0.3001  0.2413 -0.2946
 3111W        W19959  17.660  17.714  15.801 -0.0099  0.1406  0.0390
 3112W        W19960  11.247   1.134  14.200 -0.0776 -0.0372 -0.0757
 3113W        W19961  10.640  11.866   2.451 -0.0698 -0.5301  0.1097
 3114W        W19962   1.267  13.995   4.119 -0.2781  0.1883 -0.1211
 3115W        W19963   4.198  15.885   2.641 -0.0690  0.1297  0.2017
 3116W        W19964   6.062  15.170  13.075 -0.0217 -0.1117 -0.1384
 3117W        W19965  15.317  16.710  11.267  0.1220  0.1771  0.2484
 3118W        W19966  16.403  13.406  15.530 -0.0103 -0.4385  0.1811
 3119W        W19967   3.579   9.730   3.252 -0.1812 -0.1854 -0.0113
 3120W        W19968   0.226   8.693   1.681  0.0258  0.0339  0.3298
 3121W        W19969  12.938   9.934   1.497 -0.0283  0.2961 -0.1091
 3122W        W19970  13.652   4.074  12.475 -0.2138 -0.1750  0.0440
 3123W        W19971  16.533   0.883   2.002 -0.2232  0.2549 -0.0081
 3124W        W19972  12.169  17.706  11.431 -0.0893 -0.2312  0.0772
 3125W        W19973   7.246   0.252   3.849 -0.0021  0.0369 -0.0484
 3126W        W19974  17.367   5.355   5.100  0.0468  0.2231  0.2791
 3127W        W19975   5.684  16.599  11.649  0.0940 -0.1345  0.1288
 3128W        W19976  11.314   4.020   4.159  0.1302 -0.3203  0.2296
 3129W        W19977   8.141   7.494   1.499 -0.1919 -0.2986 -0.0834
 3130W        W19978  13.394   3.839  13.147 -0.2621  0.0469 -0.1386
 3131W        W19979   4.997   0.767  14.254 -0.0254  0.0121 -0.0451
 3132W        W19980  16.194  13.970  15.873  0.2372 -0.2862 -0.0842
 3133W        W19981   9.925   3.929   1.058  0.1371 -0.2608 -0.2433
 3134W        W19982   5.036  12.831  13.840  0.0520 -0.1832  0.0372
 3135W        W19983   9.618  16.894  11.047  0.2161  0.1291 -0.0971
 3136W        W19984   2.888   0.928   1.961  0.0874 -0.1056  0.1343
 3137W        W19985  10.236   7.221  13.382 -0.0798  0.0152 -0.0788
 3138W        W19986   7.455  14.205  14.309  0.0330 -0.0252  0.1316
 3139W        W19987   9.289  13.610   0.197  0.2129  0.2695  0.3467
 3140W        W19988  12.004  12.972   5.801  0.1341  0.2050 -0.0475
 3141W        W19989   0.645   9.297  13.609  0.2045 -0.1793 -0.2026
 3142W        W19990  12.643   7.902   3.327 -0.2226 -0.1195 -0.0834
 3143W        W19991   3.633   1.951   2.753  0.0517  0.1064  0.3363
 3144W        W19992  17.795   9.874   2.927  0.0153  0.0267 -0.0480
 3145W        W19993   7.791   8.176  10.545  0.2688 -0.0411 -0.1917
 3146W        W19994   0.463   8.347  15.181  0.0948 -0.2110 -0.0309
 3147W        W19995   2.204  15.249  15.536  0.1692  0.0946  0.2060
 3148W        W19996   4.788   3.783  10.982 -0.0091 -0.2143 -0.0405
 3149W        W19997   6.218  11.054  14.445 -0.3312 -0.3086  0.0475
 3150W        W19998   3.757  17.662  10.885 -0.0103  0.2158 -0.2794
 3151W        W19999   2.608   1.750  14.467 -0.0721  0.0361  0.2938
 3152W        W20000  11.787  10.859  14.217  0.1484  0.0758 -0.0438
 3153W        W20001   0.566  16.788   1.085  0.2710  0.1667  0.2076
 3154W        W20002  10.596  14.751   1.305 -0.1640  0.1900 -0.0075
 3155W        W20003   9.655  10.895   3.833  0.1002  0.2493  0.3160
 3156W        W20004  14.649   6.499   4.710  0.2282  0.1861  0.1539
 3157W        W20005  15.935   0.034   3.643  0.0493  0.0573  0.1641
 3158W        W20006   8.475   0.733  14.581  0.0979  0.3872 -0.0890
 3159W        W20007  17.575   9.912  15.549  0.2354  0.0372  0.1476
 3160W        W20008  14.944  16.717  15.061 -0.0922 -0.4259  0.0146
 3161W        W20009   8.164  10.367  13.554  0.1399  0.1026  0.5798
 3162W        W20010   3.511   8.199   2.163 -0.2787  0.0522 -0.2258
 3163W        W20011   6.058  12.505  13.277 -0.1642  0.0254 -0.1613
 3164W        W20012   9.110  12.434  14.523 -0.0728 -0.0485 -0.1271
 3165W        W20013   6.157   1.246  14.588 -0.2469  0.1190 -0.1696
 3166W        W20014   3.989   6.494   2.045 -0.1741  0.0180  0.2831
 3167W        W20015   4.739  17.518  11.050  0.1802 -0.0094 -0.0468
 3168W        W20016   1.032  10.478  12.126  0.0560 -0.1609  0.1670
 3169W        W20017  17.007   0.263  14.794 -0.2360 -0.1308 -0.0492
 3170W        W20018   6.296  15.049   3.967 -0.0942  0.2545  0.0439
 3171W        W20019  16.895  18.053   1.247 -0.1100 -0.1358 -0.0287
 3172W        W20020   5.952   1.181   5.342  0.0770  0.1026 -0.0774
 3173W        W20021   1.330  10.912  13.008  0.2029  0.0944  0.0461
 3174W        W20022  15.419  11.024  13.009 -0.2153  0.1475 -0.0745
 3175W        W20023   9.157  13.306  15.633 -0.1471  0.2279 -0.1172
 3176W        W20024   4.835   5.357  15.378 -0.1041 -0.0534 -0.1748
 3177W        W20025  17.130   9.854   2.355  0.0885  0.1633 -0.0059
 3178W        W20026  15.942  15.558   0.499  0.0542 -0.0274  0.0083
 3179W        W20027  13.078  15.581  13.648 -0.1194 -0.0058  0.0529
 3180W        W20028  12.546   6.469  16.105 -0.3011 -0.3075  0.2188
 3181W        W20029   8.015   9.916  12.138  0.0913 -0.0665 -0.1700
 3182W        W20030  15.719  16.462  12.050 -0.0584 -0.0205  0.1083
 3183W        W20031  14.310   6.765  14.075 -0.0654 -0.0592 -0.0894
 3184W        W20032  11.639   9.539   1.116  0.0451 -0.2286 -0.0694
 3185W        W20033  17.098  14.102  13.571 -0.2293  0.2307 -0.1642
 3186W        W20034   6.777  13.678   0.841  0.2108 -0.1455 -0.3290
 3187W        W20035  17.223  10.408  15.362  0.0332  0.0155  0.0491
 3188W        W20036   3.820   7.914  13.048 -0.1456 -0.0100 -0.2264
 3189W        W20037  17.613  12.584   3.972 -0.2998 -0.0365 -0.2520
 3190W        W20038   2.529   3.113   3.385 -0.0646  0.0043  0.0212
 3191W        W20039   5.452   0.632  13.261  0.1254  0.1552 -0.1234
 3192W        W20040   1.092  16.887   1.000 -0.0453 -0.1861  0.0342
 3193W        W20041   8.321  13.460  15.611 -0.1606  0.0128 -0.4176
 3194W        W20042  16.922  13.079   3.414 -0.4017 -0.2043 -0.0024
 3195W        W20043   5.241   0.151   2.126  0.2571  0.0313 -0.0340
 3196W        W20044   9.530   0.879   2.573 -0.2438  0.0190 -0.1846
 3197W        W20045   2.935   8.811   5.995 -0.0587  0.1610  0.0065
 3198W        W20046  18.151   1.005  13.188 -0.0498  0.1697 -0.0905
 3199W        W20047   7.340  15.941   1.999  0.0472  0.1858 -0.0207
 3200W        W20048   4.792  10.754   3.984 -0.1407  0.1654  0.1946
 3201W        W20049  10.137   9.031   3.909  0.1705  0.1798  0.0228
 3202W        W20050   1.290   3.701   2.754 -0.2760 -0.0257 -0.0689
 3203W        W20051  13.246  11.042   2.610  0.3259  0.1656  0.1426
 3204W        W20052   5.890   6.768   1.451  0.0619 -0.3014  0.2364
 3205W        W20053   8.326  17.952  14.817  0.0644  0.1986 -0.2606
 3206W        W20054  11.250  14.013   1.265  0.2154  0.1675  0.0933
 3207W        W20055   3.676   2.362  15.065 -0.3226  0.0915  0.2036
 3208W        W20056   1.956  10.703  11.198 -0.0259 -0.4770  0.1844
 3209W        W20057   4.284   3.060  14.670  0.1878 -0.0344 -0.1716
 3210W        W20058  13.767  16.990  12.902  0.3898 -0.2458  0.2395
 3211W        W20059   3.635   4.662  13.646 -0.1758 -0.2911 -0.0742
 3212W        W20060   6.430   4.793  13.072  0.0381 -0.1867  0.0121
 3213W        W20061   3.336   9.803   0.821  0.2532  0.0191 -0.2621
 3214W        W20062  15.093  14.487   0.139  0.0052  0.3064  0.0719
 3215W        W20063  11.616   4.109  12.052  0.1133  0.1674  0.1289
 3216W        W20064  13.350   6.904  15.247  0.2637  0.1039 -0.1418
 3217W        W20065   0.562   0.485   2.989  0.0717 -0.2641  0.2250
 3218W        W20066  12.237  10.911  11.180 -0.3417 -0.0857  0.2710
 3219W        W20067  10.983  11.056  11.375 -0.2854  0.3066  0.2431
 3220W        W20068   5.596  11.361  13.587  0.1099  0.3458 -0.0358
 3221W        W20069   3.438   8.900  14.006 -0.2708 -0.1518 -0.1777
 3222W        W20070  16.930  14.816   0.537 -0.4586 -0.1172  0.3487
 3223W        W20071   4.991  17.072   4.944  0.0369 -0.1385 -0.1359
 3224W        W20072  11.389   6.289  11.614 -0.2543  0.0023  0.3039
 3225W        W20073   7.766   8.918   3.596 -0.1130  0.0200 -0.4180
 3226W        W20074  12.072  16.014   4.844  0.4452 -0.1749  0.3043
 3227W        W20075   5.999   4.958   4.132  0.1526 -0.0305  0.1250
 3228W        W20076  14.445   2.595  11.069 -0.0260 -0.0749  0.0017
 3229W        W20077   8.187   7.418   2.835 -0.0024 -0.1078 -0.0995
 3230W        W20078   8.477  15.674  15.297  0.0498 -0.2434 -0.1768
 3231W        W20079   2.565   6.657   5.228  0.0808 -0.1588 -0.0850
 3232W        W20080  10.070   7.838   0.454 -0.1694  0.0747  0.0210
 3233W        W20081   0.183  16.498  13.874  0.0205  0.0819 -0.1120
 3234W        W20082  14.439   4.013  13.047 -0.1024  0.0027 -0.2455
 3235W        W20083  15.836   8.297  13.843 -0.3560  0.3320  0.0684
 3236W        W20084   2.388   9.060   0.400  0.0484  0.1111 -0.4588
 3237W        W20085   9.925  14.349  13.499 -0.0887 -0.0838 -0.2205
 3238W        W20086   1.617   1.221  12.242  0.2412  0.0839  0.0616
 3239W        W20087   7.572  13.252   4.545  0.2048  0.1839  0.5731
 3240W        W20088   2.147  14.285   1.311  0.0570 -0.0490  0.2983
 3241W        W20089  11.539   5.879   5.277  0.0574 -0.1518  0.4581
 3242W        W20090  16.548  11.203   4.489  0.1165  0.2303 -0.0041
 3243W        W20091  15.772  11.037  14.505  0.1587 -0.0050 -0.2735
 3244W        W20092   3.007  16.760   1.185 -0.0206 -0.3209  0.4221
 3245W        W20093   0.240  15.895   2.927 -0.0462  0.1290  0.1254
 3246W        W20094   7.715   8.721   1.863 -0.0708  0.2127  0.0430
 3247W        W20095  16.451   6.911   1.981  0.2265 -0.1391 -0.1411
 3248W        W20096  14.219  11.086   2.063  0.1857  0.2740  0.1131
 3249W        W20097   3.844   2.272   1.832  0.2070  0.0277  0.0876
 3250W        W20098   9.335  12.429  11.699 -0.2215 -0.3171  0.0383
 3251W        W20099  13.398  15.846   0.546 -0.0065 -0.1629  0.0286
 3252W        W20100   9.638   7.560   3.189 -0.1021 -0.2270  0.0993
 3253W        W20101   1.378   3.728   1.905 -0.2363  0.0595 -0.2158
 3254W        W20102   2.491   5.317  13.164  0.0808 -0.1483 -0.3081
 3255W        W20103   4.572   6.392  13.742 -0.2073 -0.2459 -0.1354
 3256W        W20104  14.703  17.419  11.031  0.0086  0.4388  0.2716
 3257W        W20105   0.324   8.904   4.931 -0.0400 -0.0589  0.1385
 3258W        W20106   8.891   5.810  11.113 -0.0125  0.0794  0.2443
 3259W        W20107   3.334   1.058  11.046 -0.0575 -0.2266 -0.0037
 3260W        W20108   6.154  16.332  13.797 -0.2066 -0.2095 -0.0172
 3261W        W20109   2.181  14.352  14.374 -0.0609 -0.0214  0.0768
 3262W        W20110   1.175   2.043   0.007 -0.4359 -0.0910 -0.0113
 3263W        W20111  13.050   1.245   4.292  0.1438 -0.0608 -0.2062
 3264W        W20112  10.001   8.422   3.313  0.0044 -0.2041  0.0086
 3265W        W20113  12.749  12.740   0.411  0.2213  0.0388 -0.0905
 3266W        W20114   8.422   1.329  14.637 -0.1151  0.3655 -0.0491
 3267W        W20115  10.212  13.247  11.061  0.1780  0.0417 -0.0209
 3268W        W20116  15.175  17.956  12.610  0.0194  0.3939 -0.2400
 3269W        W20117   6.673  12.736  12.123  0.1412  0.1738 -0.0254
 3270W        W20118   2.804  15.847  11.414  0.0934 -0.2632  0.0123
 3271W        W20119   9.563   5.907  14.833 -0.0399  0.3218 -0.1674
 3272W        W20120  15.430  15.084  10.798 -0.1841  0.1206 -0.0906
 3273W        W20121  18.113   9.528   0.886 -0.0246 -0.1125 -0.1040
 3274W        W20122   2.620   8.659   2.991 -0.1058 -0.3911  0.1132
 3275W        W20123  17.519  16.161   1.223 -0.0333  0.4896 -0.1364
 3276W        W20124  13.074  12.026  14.853  0.2207  0.3454 -0.4245
 3277W        W20125   0.140  14.188   3.562  0.0505  0.3860  0.0847
 3278W        W20126  11.187  16.672   5.054  0.1610 -0.1824  0.2298
 3279W        W20127  13.899   9.063   1.406 -0.2608 -0.1007  0.0308
 3280W        W20128  10.224   6.150   4.611 -0.1180 -0.0662  0.1211
 3281W        W20129  14.574  17.789  15.220  0.0572 -0.1184 -0.1508
 3282W        W20130  12.842   7.980  11.868  0.2017 -0.2488  0.2973
 3283W        W20131  15.772   1.858   3.671 -0.0433 -0.1692  0.1518
 3284W        W20132  18.171  17.499  14.670 -0.0410 -0.0950 -0.0957
 3285W        W20133  17.741   5.854   2.836  0.0179  0.0703 -0.1023
 3286W        W20134  15.164   0.604   4.070  0.0608 -0.1422 -0.0052
 3287W        W20135   1.128  13.912   2.328 -0.2652  0.4374 -0.0023
 3288W        W20136   6.567  11.253   2.388  0.2480 -0.1235  0.1961
 3289W        W20137  11.898   1.748   3.269  0.2165  0.1944  0.2813
 3290W        W20138   8.207   6.880   4.177 -0.1206  0.0535  0.0657
 3291W        W20139  17.360  14.374  14.532 -0.0977 -0.3048  0.1073
 3292W        W20140   3.436   6.132   4.086  0.1538  0.2589 -0.1003
 3293W        W20141  15.513   9.081  14.945  0.0515  0.0814  0.1941
 3294W        W20142   2.208  12.056   2.954  0.0516  0.1434  0.2565
 3295W        W20143  16.147   1.275  11.880 -0.4690  0.2059 -0.1900
 3296W        W20144  17.277   6.090  12.325  0.1510  0.2502 -0.2514
 3297W        W20145   1.019   8.685   1.187 -0.1223  0.1108  0.2541
 3298W        W20146  13.299  10.792   6.217 -0.2378  0.0324 -0.4193
 3299W        W20147  17.736   9.889   2.302 -0.2638  0.0649 -0.0369
 3300W        W20148  10.698   3.930   3.435  0.1876 -0.1330 -0.0805
 3301W        W20149  13.574   2.559   2.511  0.2692  0.0574 -0.0675
 3302W        W20150   9.063   7.234  11.556  0.1269 -0.1900  0.0148
 3303W        W20151   6.488   1.233  14.132  0.1953  0.0563 -0.1526
 3304W        W20152  12.660  18.016   2.177 -0.1876 -0.3529  0.0923
 3305W        W20153   5.591   4.571  11.276  0.3207  0.1099 -0.4067
 3306W        W20154   8.703   6.619  15.710  0.1416  0.2231 -0.0951
 3307W        W20155  11.749   1.836   1.106 -0.0320  0.0745 -0.1162
 3308W        W20156  12.175   9.325   2.466  0.2576 -0.3624  0.0234
 3309W        W20157  16.067   4.334  16.014 -0.0922  0.0960  0.3382
 3310W        W20158   3.569  11.757  11.150 -0.2207 -0.0013  0.0172
 3311W        W20159   7.272  12.784   2.149 -0.2274  0.2118 -0.1830
 3312W        W20160  13.014   4.104  13.909 -0.0146  0.0738 -0.0465
 3313W        W20161   5.115   9.285   0.878  0.1235  0.0674  0.4245
 3314W        W20162   7.605  12.342   3.074  0.3678 -0.1567  0.1324
 3315W        W20163   1.157   4.086   3.051  0.0752  0.1232 -0.0941
 3316W        W20164   1.421  11.233  14.316 -0.1215  0.1219 -0.1655
 3317W        W20165   9.424  14.038   3.548 -0.0649 -0.1057  0.0370
 3318W        W20166   1.507   1.480  11.380 -0.1335  0.4204 -0.3708
 3319W        W20167  12.034   9.352   1.405 -0.0364 -0.0254  0.0194
 3320W        W20168   2.445   2.102  13.625  0.0008 -0.0623  0.0029
 3321W        W20169  13.687   7.001  16.020 -0.1204  0.0340  0.4052
 3322W        W20170  15.343  11.702   3.621  0.3011  0.1557 -0.1327
 3323W        W20171  10.959  13.017   3.922  0.0999  0.3754  0.1433
 3324W        W20172   6.818  17.643   3.608 -0.0826 -0.0318 -0.0280
 3325W        W20173   1.848  13.529   3.795  0.0120 -0.1052 -0.0753
 3326W        W20174  17.716  16.963   3.066 -0.0651 -0.2742 -0.0000
 3327W        W20175   2.955   6.036  15.687 -0.2122 -0.0756 -0.2300
 3328W        W20176  18.177  14.083  12.851 -0.3778 -0.3359 -0.1113
 3329W        W20177  16.316   4.664   2.247  0.2391 -0.1009  0.0632
 3330W        W20178   9.250  17.484   0.604  0.0050  0.2441  0.3163
 3331W        W20179   9.156  14.941  15.131 -0.1716  0.1575  0.1410
 3332W        W20180   3.695  15.245   5.226 -0.1444  0.1722 -0.3706
 3333W        W20181   4.568  12.722   1.100 -0.0772 -0.5280 -0.1240
 3334W        W20182   4.837   3.074   0.436  0.0893 -0.2065  0.3209
 3335W        W20183  11.257  13.353  12.705  0.1734 -0.2899  0.2391
 3336W        W20184  10.338   7.983   2.609 -0.2759  0.0605  0.1145
 3337W        W20185  17.212   4.110  14.190  0.0073 -0.1105  0.0007
 3338W        W20186  13.861  10.638   2.097  0.0534  0.0286 -0.0856
 3339W        W20187   8.609  14.199   0.120  0.1916  0.3129 -0.0622
 3340W        W20188   3.688   8.515  12.486  0.2349 -0.2770  0.6065
 3341W        W20189  11.431  11.214  14.138 -0.0839 -0.0366  0.0873
 3342W        W20190   5.505   5.052  11.557  0.2700  0.4131 -0.0427
 3343W        W20191  14.925  11.409  16.004  0.4075 -0.0025 -0.1101
 3344W        W20192  14.967   8.079  15.372 -0.3582 -0.1695 -0.4704
 3345W        W20193  10.970  17.204   0.977 -0.4117 -0.1328 -0.2772
 3346W        W20194   6.789   9.381  11.360 -0.1149 -0.1686  0.2936
 3347W        W20195   2.408  11.853  13.615  0.1241  0.0147  0.0629
 3348W        W20196  11.540  14.619  10.004  0.0004  0.0862  0.1812
 3349W        W20197  17.684   7.629  11.951  0.0110  0.0226 -0.0890
 3350W        W20198   7.502   3.719  13.550  0.1153 -0.0378 -0.0601
 3351W        W20199   2.366   9.540   4.928  0.1243  0.0337 -0.0951
 3352W        W20200   0.090  14.298   5.792  0.2795 -0.0475 -0.0706
 3353W        W20201   6.868   7.159  10.707  0.1892  0.0342 -0.0029
 3354W        W20202   3.304  12.877   3.437  0.2451 -0.1704  0.1944
 3355W        W20203  15.237  16.785   3.319 -0.5221 -0.0788 -0.0543
 3356W        W20204   4.493   3.107   0.028 -0.1741  0.0137  0.0009
 3357W        W20205   8.418  10.550  15.475  0.1063  0.1444  0.2418
 3358W        W20206  17.340   6.602   0.557  0.1351  0.0100 -0.0993
 3359W        W20207   0.523   9.421   4.179 -0.0441 -0.3327  0.1807
 3360W        W20208   4.318  14.778  15.611  0.0757  0.0033 -0.0375
 3361W        W20209   9.683   9.358  15.530  0.0368 -0.1752 -0.1508
 3362W        W20210  16.441  17.240  13.367  0.0525 -0.1240 -0.3029
 3363W        W20211   5.629   0.467   1.454  0.0882  0.0375  0.0449
 3364W        W20212  11.572   3.438   1.944  0.3529 -0.3310  0.5964
 3365W        W20213   2.109  16.610  13.945 -0.1148 -0.2038  0.1850
 3366W        W20214   7.876   9.623   0.904  0.2257 -0.0216  0.0301
 3367W        W20215  16.420   7.542  14.454 -0.3928 -0.0971 -0.1438
 3368W        W20216  16.367  15.193   4.065  0.1463 -0.0146 -0.2526
 3369W        W20217   7.249   9.995  12.639  0.1877  0.0977  0.2096
 3370W        W20218  14.576   2.690  12.332 -0.0465  0.1634  0.1804
 3371W        W20219   4.249   7.677  12.213 -0.0225 -0.2692  0.1187
 3372W        W20220   4.515  18.095  11.108 -0.2038  0.2222 -0.0489
 3373W        W20221   0.378  13.441  14.089 -0.0400 -0.0811 -0.0842
 3374W        W20222   2.889  17.936  11.220 -0.0474 -0.3104  0.1048
 3375W        W20223  17.548  17.888   2.619  0.0550  0.2472  0.2890
 3376W        W20224  13.967  10.968   4.856 -0.1533  0.3103 -0.0895
 3377W        W20225   8.256   4.635  11.360  0.0275  0.0909 -0.0830
 3378W        W20226  12.549  15.536  11.036  0.1764 -0.0818  0.3653
 3379W        W20227   3.786   8.806   3.472 -0.1374 -0.0797  0.3854
 3380W        W20228  14.746   6.147   3.018  0.0181 -0.0020  0.1097
 3381W        W20229   5.318   6.917  13.666 -0.4367 -0.1932 -0.0208
 3382W        W20230   7.466  11.349   1.404 -0.4477  0.0213 -0.1191
 3383W        W20231  13.509   0.792   3.022  0.1663  0.0229  0.0783
 3384W        W20232  17.528  14.585   0.496  0.4411 -0.1308  0.0434
 3385W        W20233   5.771   0.275   3.156  0.2186 -0.0256  0.1746
 3386W        W20234   3.458   9.175  14.465  0.2437  0.0456 -0.2889
 3387W        W20235  10.611  16.111  13.048  0.0025 -0.0338 -0.0568
 3388W        W20236  17.358   7.210   1.968 -0.0965 -0.0015 -0.1531
 3389W        W20237  13.922  14.730   3.977  0.1675 -0.3446 -0.3357
 3390W        W20238  17.834   8.567   2.515  0.0893  0.0792 -0.0944
 3391W        W20239   7.025  10.379   2.547 -0.1369 -0.1963  0.2511
 3392W        W20240   6.709   1.095  15.272  0.0196  0.1563  0.1355
 3393W        W20241  13.701  14.023  15.568 -0.0449 -0.0875 -0.0942
 3394W        W20242   9.943   9.292   5.377  0.4261  0.0066  0.0748
 3395W        W20243  18.163   6.264   3.301  0.2937  0.1631 -0.0294
 3396W        W20244   8.610   7.283  12.340  0.2482  0.1233  0.1897
 3397W        W20245   7.488   2.414  14.621 -0.1460 -0.1977 -0.2160
 3398W        W20246   4.580   3.728  13.260 -0.2114 -0.2284 -0.1616
 3399W        W20247  12.398   1.565  10.302  0.0100 -0.1119 -0.0104
 3400W        W20248  12.270   4.688   1.961 -0.1761  0.0356 -0.0512
 3401W        W20249   1.480   6.548   3.109 -0.1593 -0.3218  0.2031
 3402W        W20250  16.649   7.527   1.428  0.2005 -0.3279  0.2915
 3403W        W20251   2.301   9.791   3.080  0.3721  0.0099 -0.0352
 3404W        W20252  16.864   4.706  11.896  0.1065 -0.2244 -0.0149
 3405W        W20253   7.667  14.403  15.563 -0.0166  0.0257 -0.0468
 3406W        W20254  16.572   8.018   1.297 -0.4188 -0.1133  0.2001
 3407W        W20255  18.211   0.227  14.705  0.2189  0.1570 -0.2390
 3408W        W20256   3.066   2.023   0.378  0.0389  0.0160 -0.0370
 3409W        W20257   9.351  11.130   0.474  0.1419 -0.2305  0.1194
 3410W        W20258  11.470  17.392  15.290 -0.1832  0.0810 -0.3990
 3411W        W20259  17.109  18.023  12.530  0.0197 -0.0285  0.0767
 3412W        W20260   0.905   2.341  14.219  0.0345  0.0873 -0.1806
 3413W        W20261   0.319  13.467   2.178  0.2737  0.1563 -0.0224
 3414W        W20262   7.588  14.577   5.183  0.1378 -0.2826  0.1036
 3415W        W20263   5.488  12.924   0.083  0.2292  0.2663 -0.0121
 3416W        W20264  13.993   0.800   1.003  0.0907  0.0949 -0.0757
 3417W        W20265   6.839  15.240   3.352  0.0075 -0.1500  0.2644
 3418W        W20266  12.738   1.546   4.962  0.0506 -0.1761 -0.1364
 3419W        W20267   6.648   9.752  13.233 -0.0689 -0.1550  0.0560
 3420W        W20268  13.662   8.282  13.643 -0.0175  0.1710 -0.0186
 3421W        W20269  11.494   7.836   2.135  0.1831  0.2543 -0.0373
 3422W        W20270   7.756   0.567  15.276 -0.3165 -0.0166  0.4583
 3423W        W20271   6.925   3.543  12.049  0.0644  0.1342 -0.0568
 3424W        W20272   6.128   6.332  15.772 -0.0355  0.0532  0.2966
 3425W        W20273  13.756   0.628  14.150  0.0098 -0.0755  0.2975
 3426W        W20274   3.254   3.299  13.234  0.0164 -0.0589  0.0917
 3427W        W20275  11.885  12.759   0.975 -0.1023  0.0521  0.3229
 3428W        W20276  17.696  14.302   1.329 -0.1564  0.2215  0.2198
 3429W        W20277   1.140   8.150  11.226 -0.1614  0.0987  0.0019
 3430W        W20278   4.104  12.849   5.758  0.1921 -0.0898 -0.1784
 3431W        W20279  13.370   4.389  14.618 -0.0578  0.0493  0.1197
 3432W        W20280   3.845   3.793   3.459 -0.3130 -0.0110 -0.0447
 3433W        W20281   1.949  14.786  14.293 -0.2829 -0.3268 -0.0143
 3434W        W20282   7.807  15.912   4.507 -0.0161 -0.0800 -0.1403
 3435W        W20283   2.229   2.034  14.122 -0.1858 -0.1426  0.2324
 3436W        W20284  13.738  17.706  15.915  0.0364  0.4670 -0.3093
 3437W        W20285  14.999   2.204   4.661 -0.0344 -0.2935  0.1285
 3438W        W20286  15.379   9.951  10.285 -0.4223 -0.0136  0.0186
 3439W        W20287   6.492  17.699  11.973 -0.1350  0.1860  0.2115
 3440W        W20288   4.286   4.596   4.370  0.0338  0.1106  0.1284
 3441W        W20289  12.311   3.051  15.149 -0.1176 -0.1570 -0.0397
 3442W        W20290   1.858   0.059  11.017  0.1712  0.1238  0.0177
 3443W        W20291   7.497  12.439   1.003 -0.3103  0.1312 -0.2584
 3444W        W20292   3.349  13.262  14.573 -0.0298  0.2164  0.2679
 3445W        W20293  13.438   2.552   1.667  0.0493 -0.0247  0.2421
 3446W        W20294   9.402  10.100  10.994 -0.0437  0.0192 -0.0028
 3447W        W20295   9.275   8.825  10.808 -0.0174 -0.0344 -0.0658
 3448W        W20296  10.964  17.073  14.626  0.0175 -0.3793  0.2814
 3449W        W20297   3.529  11.315  13.093  0.1605  0.1794  0.0764
 3450W        W20298  18.150   0.863  16.014 -0.0460 -0.0201  0.1343
 3451W        W20299   5.793  16.770   1.852  0.0291 -0.2773  0.0860
 3452W        W20300  11.588  15.859   2.063  0.2207  0.3916  0.0034
 3453W        W20301   0.415   0.878  15.246 -0.0655  0.3058 -0.1444
 3454W        W20302   6.375  14.722  11.576 -0.1736  0.2675 -0.0795
 3455W        W20303   7.748   6.512  14.340 -0.0159  0.2180 -0.0539
 3456W        W20304   7.638  12.939   3.566 -0.1946  0.1267  0.1179
 3457W        W20305  14.696   0.847  15.529 -0.6115  0.0723 -0.0068
 3458W        W20306   9.972  10.035   2.430 -0.1066 -0.1252  0.1424
 3459W        W20307   7.697  12.947  11.845 -0.0809 -0.2125 -0.0064
 3460W        W20308   1.913   7.011   2.827 -0.2890 -0.0223 -0.3046
 3461W        W20309  13.923   5.155  13.842  0.1631 -0.1041 -0.1444
 3462W        W20310  14.072   4.249   3.681  0.4286 -0.0101  0.1903
 3463W        W20311   8.509   0.803   4.584 -0.2119  0.1383  0.1544
 3464W        W20312   7.422  13.546   4.918 -0.0314 -0.0144  0.1349
 3465W        W20313   2.586   5.105   0.782  0.0404  0.1962  0.1495
 3466W        W20314   7.385  12.635   0.017  0.0797  0.2934  0.0444
 3467W        W20315   6.707   8.222   2.162 -0.0688 -0.2481  0.1063
 3468W        W20316   2.935   7.006  13.455  0.1479 -0.1422 -0.2900
 3469W        W20317  10.096   1.203  12.463  0.1940 -0.0828 -0.0990
 3470W        W20318   1.818  12.813   5.082 -0.0528 -0.0179  0.0657
 3471W        W20319  11.236   8.438  11.724  0.1144 -0.2057  0.1963
 3472W        W20320  12.552  12.561  12.578 -0.0320 -0.0446 -0.4503
 3473W        W20321   8.328  13.121   0.877 -0.1989 -0.0525  0.0256
 3474W        W20322   3.683   4.902   0.082  0.3740  0.0847 -0.2787
 3475W        W20323  12.446  12.254   4.160  0.0461 -0.0544 -0.1303
 3476W        W20324  14.881   5.505  11.479  0.4655 -0.0386  0.0160
 3477W        W20325   1.124   9.951  10.028  0.3647  0.1240  0.2403
 3478W        W20326  16.845   5.913   2.724 -0.1460  0.0869 -0.1254
 3479W        W20327   7.326  14.790   3.962 -0.0237  0.2378 -0.2568
 3480W        W20328   1.074   6.331   4.753 -0.2398  0.1436 -0.1064
 3481W        W20329   0.379  16.037  10.913  0.0364  0.1517  0.2910
 3482W        W20330  10.129  13.803  12.003  0.1417 -0.3598 -0.0578
 3483W        W20331   0.456  15.867   2.455  0.1784  0.2268  0.1324
 3484W        W20332  15.179   7.009   0.062 -0.2397  0.1187 -0.0688
 3485W        W20333   9.028  17.720  12.096 -0.2284 -0.0168 -0.0559
 3486W        W20334  15.787  10.326  15.635 -0.1135  0.1671 -0.0459
 3487W        W20335  13.820   6.559  12.309 -0.2698  0.2920 -0.1316
 3488W        W20336   9.343   4.304   4.529  0.0518  0.1031  0.1752
 3489W        W20337   9.187   2.362  12.204 -0.1134  0.0395 -0.2264
 3490W        W20338  13.864  18.095  15.515 -0.1904 -0.1500  0.1862
 3491W        W20339   5.390   0.899  15.660 -0.4069  0.2395  0.0439
 3492W        W20340   3.677   9.669   3.818  0.0113 -0.1860 -0.1016
 3493W        W20341   4.996  12.420   5.792 -0.3077  0.0411 -0.0098
 3494W        W20342  10.101  16.970  12.673 -0.1879  0.2406  0.0845
 3495W        W20343  16.485   7.463   0.075 -0.0465 -0.1571 -0.2608
 3496W        W20344  12.710   0.778   4.107 -0.1160 -0.3637 -0.0473
 3497W        W20345   4.605   4.853  15.188 -0.0845  0.3859  0.2695
 3498W        W20346   0.865   9.639   3.319  0.1611  0.0607 -0.0483
 3499W        W20347  15.508  12.366  13.740  0.0367  0.0630  0.1537
 3500W        W20348  16.005  13.001  15.493 -0.0431  0.0258  0.0626
 3501W        W20349  16.529   2.776   4.269 -0.1003  0.0160 -0.0020
 3502W        W20350  11.415  11.088   5.926 -0.1762 -0.0110 -0.0686
 3503W        W20351  15.168  17.176   2.910 -0.0708 -0.3249 -0.3302
 3504W        W20352   3.568  13.406   2.011 -0.0716  0.1266  0.1929
 3505W        W20353   4.477   1.318  14.353  0.2372  0.2856  0.2710
 3506W        W20354  13.902  17.201  14.978 -0.3884  0.3519  0.0028
 3507W        W20355  11.748  11.782  12.147  0.1674 -0.0382  0.0874
 3508W        W20356   2.880  10.911   2.191 -0.1730 -0.0538  0.0322
 3509W        W20357  16.944  16.826   3.536 -0.2937  0.0089  0.0184
 3510W        W20358   0.677   7.842  12.084  0.3234  0.2216 -0.1370
 3511W        W20359   5.235   2.053  14.354  0.0716 -0.1337 -0.1241
 3512W        W20360  10.353  11.343  13.540  0.0592 -0.1323  0.2958
 3513W        W20361  10.205  12.941   1.715  0.2601 -0.0130 -0.1022
 3514W        W20362   6.125   6.740   4.148  0.3291  0.1624 -0.2839
 3515W        W20363  17.363   6.100  13.761 -0.1544  0.1666  0.1942
 3516W        W20364  16.389   5.358   3.234 -0.0735 -0.0209 -0.0503
 3517W        W20365  10.818   4.166  12.727 -0.1465 -0.0410 -0.1648
 3518W        W20366   4.036  16.359   0.101  0.4234  0.1569 -0.1904
 3519W        W20367   2.428  15.438   3.868 -0.1388  0.0020 -0.3330
 3520W        W20368  17.700   3.954  14.179  0.0920  0.0543 -0.4336
 3521W        W20369   6.746  13.738  14.717  0.1097 -0.2904  0.1216
 3522W        W20370   6.165   5.473   3.878 -0.1523  0.2957  0.0437
 3523W        W20371   3.267  15.172  11.446 -0.1756  0.2599 -0.2741
 3524W        W20372   4.287   7.007   1.113  0.3340  0.2405  0.1462
 3525W        W20373   2.588  12.678  13.840  0.0861 -0.0756 -0.1504
 3526W        W20374  17.049   0.446  11.294  0.0969 -0.1810 -0.4100
 3527W        W20375   9.463   5.799   0.758  0.5957 -0.2828  0.1989
 3528W        W20376   1.774  14.458   3.384 -0.2809  0.2286 -0.0877
 3529W        W20377  17.498  11.918  15.928  0.2299  0.0808  0.2497
 3530W        W20378   8.782   7.793   4.765  0.2147 -0.0951  0.2770
 3531W        W20379  12.504  10.176  12.547 -0.1336 -0.1419 -0.0885
 3532W        W20380  15.698   4.971   9.722  0.2281  0.0573  0.2423
 3533W        W20381  15.001   2.289  12.397  0.0052  0.1174 -0.0720
 3534W        W20382  14.381  16.740   3.941 -0.1124  0.2829  0.2357
 3535W        W20383  17.617  10.160  10.994  0.1288 -0.0573  0.0378
 3536W        W20384   2.240   7.043  14.977  0.3816  0.1431 -0.0081
 3537W        W20385   2.538   2.464  11.775 -0.0021  0.1544 -0.3165
 3538W        W20386   7.626  17.152   1.650 -0.0905 -0.0114  0.3745
 3539W        W20387   8.055  17.136   2.031  0.2225 -0.2414 -0.3647
 3540W        W20388  10.877   1.144  13.794 -0.3078  0.3642 -0.2144
 3541W        W20389  12.064  12.132   1.595 -0.0020 -0.0184 -0.1346
 3542W        W20390  11.891   1.867   4.926  0.2567 -0.4223  0.0556
 3543W        W20391  17.287   6.951  15.234 -0.3372 -0.0126  0.0231
 3544W        W20392   4.760   7.648   3.219 -0.2124 -0.0051  0.2005
 3545W        W20393  17.502  18.163   4.030 -0.0305  0.0880 -0.2186
 3546W        W20394   3.512   1.501   2.986 -0.1013  0.1970 -0.1436
 3547W        W20395  16.555   8.347  15.965 -0.0794 -0.1681 -0.3818
 3548W        W20396   6.659   6.127  12.848 -0.1164  0.3724  0.0074
 3549W        W20397  17.028   7.241   3.626  0.1899 -0.0059 -0.0122
 3550W        W20398   4.152   3.823  13.757  0.0910 -0.3702 -0.1170
 3551W        W20399   5.010  12.344   2.085  0.1676 -0.0389  0.1869
 3552W        W20400  12.691   3.325   2.556 -0.1171  0.0116  0.2918
 3553W        W20401   5.951   2.182  12.646  0.1054  0.0798  0.1812
 3554W        W20402  17.871   2.937   1.922  0.0297  0.1718 -0.2255
 3555W        W20403   7.955   5.253   4.435  0.1279 -0.1812 -0.4370
 3556W        W20404   5.859  13.020  14.303 -0.0864 -0.0239 -0.1603
 3557W        W20405   2.654  13.907   0.888  0.0409  0.0237  0.0334
 3558W        W20406   2.003  13.307  13.258 -0.0102  0.2794  0.1626
 3559W        W20407  14.156   8.187   4.236  0.3611 -0.0488 -0.1854
 3560W        W20408   6.775   0.356  14.407  0.1592 -0.1109 -0.1542
 3561W        W20409  12.009  11.136   4.065 -0.0012  0.2694  0.3343
 3562W        W20410   8.872  14.535   1.852  0.5408 -0.1062  0.1586
 3563W        W20411  11.821  15.198   2.736  0.4171 -0.2647 -0.1660
 3564W        W20412  16.526   3.858  10.189  0.0066 -0.0356  0.0591
 3565W        W20413  11.121  12.903  12.422  0.4625  0.2291 -0.0259
 3566W        W20414  16.513   1.478  13.866 -0.1061  0.4397  0.3896
 3567W        W20415   2.158   9.969  12.471  0.1619  0.2583 -0.0035
 3568W        W20416  13.349  13.885   2.891  0.1129 -0.3710 -0.0472
 3569W        W20417  15.852  14.596   0.866  0.0670  0.0702  0.2273
 3570W        W20418   9.354  11.897  11.858 -0.4009  0.0219 -0.0166
 3571W        W20419   3.496   6.315  12.935 -0.1042  0.0891 -0.2301
 3572W        W20420  10.761   0.357  15.559 -0.1955  0.2881  0.4659
 3573W        W20421  11.724   0.728   3.068  0.1210  0.1212 -0.3891
 3574W        W20422  16.166   0.150   4.042 -0.1404 -0.1615 -0.1665
 3575W        W20423   3.190   6.468   2.878  0.1063 -0.3491 -0.0922
 3576W        W20424   1.792   2.149   3.986  0.1405 -0.0407  0.0119
 3577W        W20425  12.770  14.870   0.641  0.0137 -0.2783  0.1966
 3578W        W20426   9.908   6.773  14.976  0.1135  0.0427  0.1458
 3579W        W20427  10.923  11.526  11.201 -0.2630 -0.1177 -0.0809
 3580W        W20428   3.680   4.494  12.716 -0.1179 -0.1369  0.2456
 3581W        W20429   7.431  14.320   0.421  0.1173  0.1245 -0.1227
 3582W        W20430   7.701   7.508  14.571  0.0105 -0.3262 -0.0848
 3583W        W20431   4.032  16.405   2.798  0.1354 -0.0814  0.1276
 3584W        W20432   8.254  10.942   2.015  0.1827  0.0371 -0.1011
 3585W        W20433  12.249  11.021   2.825 -0.1486 -0.1585 -0.1121
 3586W        W20434   1.439   8.465   0.440  0.2003  0.2910 -0.0311
 3587W        W20435  12.147  10.391   4.715  0.2627 -0.1842  0.1701
 3588W        W20436  11.370   5.484  15.395 -0.0465  0.0084 -0.1959
 3589W        W20437   1.015  10.339   1.249 -0.1289 -0.2373 -0.1171
 3590W        W20438  10.515   1.040   1.374 -0.2346  0.1869 -0.0977
 3591W        W20439  10.165  15.707   2.218  0.2913 -0.0933 -0.3212
 3592W        W20440   0.803   4.785  15.705 -0.1175 -0.0646 -0.1820
 3593W        W20441   7.747  10.675   0.989  0.2359 -0.0832  0.1291
 3594W        W20442   1.051   7.773   0.862  0.3230 -0.1095  0.2135
 3595W        W20443   9.118  14.749  11.993 -0.1133 -0.1618 -0.0893
 3596W        W20444  14.572  11.608  13.046 -0.3369 -0.0983  0.0858
 3597W        W20445   2.561   1.723   3.091 -0.1102  0.2369 -0.2045
 3598W        W20446   6.934   3.834   1.081 -0.3577 -0.0709  0.1355
 3599W        W20447   2.936  10.040   0.531  0.2980  0.0858 -0.0179
 3600W        W20448  14.565   5.528   1.082  0.0133  0.1713  0.1755
 3601W        W20449  16.807   9.763   0.878  0.0353 -0.1593 -0.3873
 3602W        W20450   1.595  11.166  15.224 -0.0218 -0.2594  0.2539
 3603W        W20451   6.358  13.585  13.112 -0.1850  0.1303 -0.0374
 3604W        W20452   2.100   3.933   3.193  0.0154  0.0216  0.2068
 3605W        W20453   0.960  14.047   3.743  0.2424  0.2601  0.2431
 3606W        W20454  10.589   6.563   2.569 -0.1889  0.0555  0.0311
 3607W        W20455   7.203  17.237   4.671  0.1196  0.1102  0.3540
 3608W        W20456   2.261  16.609  12.926 -0.4382 -0.1753  0.0803
 3609W        W20457   5.447  12.929   1.530 -0.0647 -0.4194 -0.2704
 3610W        W20458  15.404  14.822  15.650  0.0367 -0.0079 -0.1193
 3611W        W20459   3.190  12.464   2.868 -0.0955  0.0583  0.1696
 3612W        W20460   6.095   3.215   0.890 -0.1858  0.0387 -0.1711
 3613W        W20461   7.312   5.305  11.539  0.0773  0.2413 -0.3191
 3614W        W20462  10.094   7.520   3.426 -0.0457  0.1386  0.2489
 3615W        W20463  16.758   0.215   2.386 -0.1408  0.1469 -0.2561
 3616W        W20464   5.780   7.453  11.629 -0.3077  0.1346  0.1841
 3617W        W20465  13.557  16.180   2.896  0.0672  0.1641  0.0553
 3618W        W20466  13.257   5.625  15.470  0.0239  0.1789 -0.3022
 3619W        W20467   6.344  17.364   5.521  0.0175  0.2480  0.0754
 3620W        W20468   0.535   5.059  13.652  0.3412  0.1506 -0.2143
 3621W        W20469   8.680  17.925  13.667  0.0992  0.3933  0.2058
 3622W        W20470   9.388   7.281   5.942  0.0648 -0.4498 -0.0319
 3623W        W20471   6.830   4.544  15.745  0.0281 -0.0826 -0.0020
 3624W        W20472   8.575   0.012  10.931 -0.2008 -0.0693  0.0428
 3625W        W20473  18.025  15.130  13.487  0.1829 -0.0856 -0.0860
 3626W        W20474   7.964  14.458  12.688 -0.0608 -0.1600 -0.2679
 3627W        W20475   5.582  11.235   4.430 -0.0462 -0.0667  0.0192
 3628W        W20476  14.857  10.470   4.904  0.2297 -0.3923 -0.2207
 3629W        W20477   0.817   0.970   1.564 -0.0819 -0.2051  0.0145
 3630W        W20478   9.781  11.684  15.569 -0.3297  0.0279  0.0642
 3631W        W20479   0.453   7.214  13.144  0.0149  0.1105  0.0011
 3632W        W20480   5.926   0.002  15.192  0.0490  0.0493  0.1602
 3633W        W20481   7.701  15.388   3.640 -0.1829 -0.3642 -0.1551
 3634W        W20482  17.688  15.746   3.899  0.0990 -0.1756  0.1713
 3635W        W20483   5.655   8.947   1.811  0.0316  0.0837 -0.4563
 3636W        W20484   4.846  15.908  11.993 -0.2065 -0.2167 -0.2098
 3637W        W20485   9.349   1.289   3.002  0.2262  0.0917  0.1068
 3638W        W20486  18.199   1.821  14.301  0.0262 -0.0162  0.0976
 3639W        W20487   3.479   7.161  11.930 -0.1412  0.3782  0.0484
 3640W        W20488   3.660  10.414  12.029  0.0155 -0.0741  0.2462
 3641W        W20489  12.408  13.080  14.286  0.0290  0.0488 -0.0080
 3642W        W20490   6.673   0.285  15.703 -0.0082 -0.0179 -0.1337
 3643W        W20491  16.031   0.525  12.734  0.3686 -0.0262 -0.0503
 3644W        W20492   0.101  18.098  13.261 -0.2426 -0.1527 -0.1002
 3645W        W20493   8.422   1.050   2.283 -0.1522 -0.0637 -0.4214
 3646W        W20494   1.149   1.669   2.515  0.0310 -0.1233 -0.0289
 3647W        W20495  14.726  17.241   2.610  0.4624  0.0201 -0.0738
 3648W        W20496   4.688   8.108   4.443 -0.1127 -0.0263 -0.0062
 3649W        W20497   3.518  16.759  10.530 -0.0704 -0.1737 -0.1384
 3650W        W20498  17.780   3.494  15.148 -0.1149  0.1736  0.0149
 3651W        W20499   0.142  11.732  14.198  0.1271  0.0568  0.1344
 3652W        W20500   6.116  15.367   0.249 -0.1803  0.0630  0.2189
 3653W        W20501   4.400  12.980   2.783 -0.1514  0.1404  0.1118
 3654W        W20502   9.402   4.456  12.013  0.1685 -0.0433 -0.1330
 3655W        W20503  12.945   0.952   1.659  0.3749  0.0981 -0.0692
 3656W        W20504  15.478   2.982  12.434  0.1632 -0.0332 -0.0268
 3657W        W20505   4.831  12.278   1.289  0.2491  0.0791  0.2019
 3658W        W20506  10.565  13.851  10.744  0.1480  0.6262  0.2533
 3659W        W20507   7.082  12.559  12.339 -0.0022 -0.2272 -0.0592
 3660W        W20508   3.149   7.511   1.811  0.1469 -0.0487  0.0581
 3661W        W20509  15.179   9.134   3.999 -0.0449 -0.1040  0.0336
 3662W        W20510   7.241   3.852   3.769  0.2307  0.1014  0.0362
 3663W        W20511   1.168   4.663  12.433  0.1190  0.2493  0.0884
 3664W        W20512   5.200  13.145   2.652 -0.2641 -0.0825  0.0256
 3665W        W20513  18.217  15.359  11.480 -0.5551  0.0040  0.1688
 3666W        W20514   6.217   9.070   2.316  0.0839  0.0764 -0.3530
 3667W        W20515   2.730   7.991   2.299  0.1941  0.1294  0.2518
 3668W        W20516  14.742   7.161  12.938 -0.3458 -0.1821  0.4830
 3669W        W20517   5.212   7.060   4.325 -0.0003 -0.0786 -0.1559
 3670W        W20518  17.765   9.256  14.280  0.3291  0.0658 -0.0512
 3671W        W20519   5.444  13.633  12.086 -0.5008 -0.0491 -0.2140
 3672W        W20520  16.006   5.300  12.348  0.3351  0.1741 -0.0469
 3673W        W20521   2.791   3.415  13.289 -0.2332 -0.1732  0.1900
 3674W        W20522   5.489  13.617   5.894 -0.3226  0.1518 -0.3106
 3675W        W20523   0.657   0.586   4.625 -0.0099  0.1759 -0.1019
 3676W        W20524  12.402   2.984   1.573  0.2289  0.1929  0.1151
 3677W        W20525  10.365  17.394  15.222  0.0676 -0.1923  0.0127
 3678W        W20526  11.714  11.758  13.147  0.0544  0.2460 -0.0092
 3679W        W20527  13.805  15.087  13.226 -0.0663  0.2351  0.3700
 3680W        W20528   0.562  15.380  12.969  0.0664  0.0656 -0.3081
 3681W        W20529   5.165   9.832   3.353  0.3737  0.3952 -0.0275
 3682W        W20530   0.119   9.040  12.253  0.1234 -0.2690 -0.0887
 3683W        W20531  14.314  15.295   3.385  0.2631 -0.0988 -0.1867
 3684W        W20532  10.397  15.703   3.198 -0.0606 -0.1030 -0.2197
 3685W        W20533  15.775  12.310  12.635 -0.1125  0.1300 -0.0942
 3686W        W20534   0.270   7.943   1.385  0.0578 -0.0345  0.1108
 3687W        W20535   3.826  14.378   0.315  0.1564  0.0614 -0.0665
 3688W        W20536   2.656  12.382  15.473  0.0551  0.0016 -0.3422
 3689W        W20537  13.148  14.704   4.553 -0.1812  0.0622  0.1930
 3690W        W20538  13.173  12.879  13.433 -0.0261 -0.3956  0.2605
 3691W        W20539   4.894   1.508  15.767  0.2615 -0.2610  0.2255
 3692W        W20540   9.266  11.262   2.433 -0.2905  0.1467  0.0320
 3693W        W20541  10.821   8.435  14.273 -0.0598  0.3447 -0.1847
 3694W        W20542  16.914   8.698  15.674  0.0686 -0.1931 -0.0052
 3695W        W20543  12.531  18.027   4.103  0.4379  0.2348 -0.1792
 3696W        W20544  15.943  15.245  13.855  0.1771  0.0361 -0.1662
 3697W        W20545  10.529  15.592  14.058 -0.0116 -0.2736  0.0743
 3698W        W20546   3.233  11.653   0.337  0.4232 -0.2434  0.4226
 3699W        W20547   2.070   6.095   2.656 -0.0373  0.0908 -0.0914
 3700W        W20548   9.575   2.392  11.908  0.0324  0.1339  0.1068
 3701W        W20549   2.452   0.779   3.994  0.0431 -0.0723  0.1122
 3702W        W20550   1.253  17.264  15.402  0.1822 -0.0497 -0.2784
 3703W        W20551   4.269   6.282   0.994 -0.2941 -0.0978  0.0243
 3704W        W20552   1.785  17.008  14.056 -0.0657  0.0292  0.2321
 3705W        W20553  10.259  17.776  13.343 -0.0406  0.0454 -0.0292
 3706W        W20554  13.756   5.161   2.490  0.1723  0.3855 -0.2985
 3707W        W20555  11.599   0.145  15.063 -0.0359  0.2184 -0.2045
 3708W        W20556   5.272   4.304  11.566  0.2334  0.0160 -0.0392
 3709W        W20557  12.263   8.880  15.200 -0.3539  0.0075  0.4131
 3710W        W20558   7.725   8.118   0.019  0.0404  0.3566 -0.0075
 3711W        W20559   2.228   4.038  11.646  0.0133 -0.3940 -0.2934
 3712W        W20560   0.904  13.953   1.056  0.0411 -0.0118 -0.0185
 3713W        W20561   2.828   8.009  11.894  0.1463  0.2443  0.0788
 3714W        W20562  13.065  10.894  13.072  0.0854  0.0141 -0.0427
 3715W        W20563  16.558  10.820   4.855  0.2208 -0.0351  0.2267
 3716W        W20564  17.695   0.423   4.009  0.0821  0.0055  0.1868
 3717W        W20565  13.450  10.303   3.306 -0.2205  0.0142 -0.2671
 3718W        W20566   3.351  13.736  10.473 -0.0299 -0.3731  0.1790
 3719W        W20567   3.780   1.701   1.834 -0.0037  0.1429 -0.0873
 3720W        W20568   9.367   0.691   3.726 -0.2240 -0.1424 -0.0834
 3721W        W20569   7.878  13.162  14.926  0.0101  0.0098 -0.2364
 3722W        W20570   7.838  14.793   4.771 -0.3992 -0.3234 -0.1315
 3723W        W20571  15.917  15.176   2.392 -0.2131  0.2400 -0.0017
 3724W        W20572  15.159   4.613  12.957 -0.0509  0.2043 -0.1214
 3725W        W20573   8.931   3.471   3.357  0.2814 -0.0399  0.0316
 3726W        W20574   1.172   6.722  14.774 -0.1821 -0.1357 -0.3185
 3727W        W20575  10.721  13.832  14.357 -0.0156  0.1892  0.1403
 3728W        W20576   7.406   4.913   0.981  0.1742  0.3748 -0.0857
 3729W        W20577  12.787  12.447  16.084 -0.2401 -0.3669 -0.0287
 3730W        W20578   5.883  12.030  15.117 -0.1442  0.1730  0.1890
 3731W        W20579  15.121   8.579   2.456  0.1239 -0.1555  0.1041
 3732W        W20580  14.512   5.017  11.091  0.1264  0.0134  0.0470
 3733W        W20581   8.907  11.460  14.596  0.0339  0.0957 -0.0770
 3734W        W20582   8.416   1.692  15.413 -0.1039  0.0444 -0.1099
 3735W        W20583   3.615  15.257   2.029  0.1890 -0.0309  0.1009
 3736W        W20584   3.301  18.179   2.635  0.2321  0.2076  0.2582
 3737W        W20585  11.227   7.226   3.301 -0.0435  0.2159 -0.1394
 3738W        W20586  12.543  12.328   3.415 -0.1722  0.0658 -0.1808
 3739W        W20587   3.404  17.974  13.257  0.2379  0.0605 -0.2380
 3740W        W20588   2.532   5.737   5.186 -0.1159  0.1102  0.2211
 3741W        W20589   0.996  15.030   4.122  0.0355  0.0475  0.1116
 3742W        W20590   5.553  18.012   0.577 -0.1789 -0.4194  0.3405
 3743W        W20591   8.993   1.023   3.696 -0.1219 -0.1452 -0.0060
 3744W        W20592   8.712  13.519  12.453 -0.0869  0.1937  0.1250
 3745W        W20593  13.208  13.936   3.584  0.4867 -0.3055  0.0594
 3746W        W20594   6.119  14.453   4.040 -0.0725 -0.3487  0.0281
 3747W        W20595   0.014   1.629   0.726 -0.0751 -0.1019  0.0354
 3748W        W20596  15.934   9.304   4.649  0.0663 -0.0450 -0.4062
 3749W        W20597   7.074  12.452   5.099 -0.1144  0.3643 -0.0614
 3750W        W20598  12.763   8.176  12.801  0.0255  0.2750  0.2219
 3751W        W20599  13.002  13.102  15.989 -0.1297 -0.1010  0.0537
 3752W        W20600  11.183  16.149  12.253 -0.3755 -0.0369  0.4482
 3753W        W20601  10.642  14.550  15.007  0.3342  0.2197 -0.0047
 3754W        W20602  15.193   2.217  11.851  0.1240  0.0069 -0.0183
 3755W        W20603   3.745  17.601  12.588 -0.1487 -0.0371  0.0989
 3756W        W20604  16.832   1.832  12.804  0.1127 -0.0018 -0.1708
 3757W        W20605   9.135   2.230  13.973  0.0813 -0.3433  0.0287
 3758W        W20606   3.746  11.134   1.458  0.1544 -0.0981  0.0520
 3759W        W20607  16.950  15.021   3.861  0.2318 -0.0618 -0.2654
 3760W        W20608  14.543  17.273   2.167  0.2253  0.1632 -0.1844
 3761W        W20609   4.407  17.455   3.231 -0.1045  0.3434  0.0970
 3762W        W20610   6.083   2.713   0.503 -0.1556 -0.1002  0.2313
 3763W        W20611   6.690   7.649  15.379  0.2222 -0.2221  0.0930
 3764W        W20612   5.006   7.900  11.947 -0.0883  0.0851  0.1835
 3765W        W20613   2.491  12.407   2.403 -0.3008 -0.0431 -0.1929
 3766W        W20614   9.940  16.738   4.887  0.1980  0.0922 -0.0268
 3767W        W20615  10.721  10.658  11.056  0.0380 -0.0209  0.1595
 3768W        W20616   1.528   6.511   4.827 -0.2570  0.3387  0.3182
 3769W        W20617   0.421   2.109  11.187  0.1220  0.0136 -0.0544
 3770W        W20618   8.295   1.502   2.564  0.1514 -0.2120 -0.0051
 3771W        W20619   0.968   1.232   2.362 -0.0467 -0.0652  0.2610
 3772W        W20620  10.043   4.334   5.719 -0.0777 -0.0016 -0.1568
 3773W        W20621   5.872  10.516  13.217  0.0580  0.1764  0.0530
 3774W        W20622   7.987  13.915   4.622  0.0835  0.3720 -0.0399
 3775W        W20623   2.795  11.238   3.449 -0.0850  0.0855 -0.3691
 3776W        W20624  11.525   8.150  12.981  0.1425 -0.1527  0.2260
 3777W        W20625   4.570  12.112  13.693  0.2220 -0.0267 -0.2448
 3778W        W20626   8.322  16.126  15.005 -0.1338  0.0698 -0.0120
 3779W        W20627   5.312   4.720   4.840  0.1754  0.1039  0.0121
 3780W        W20628  12.365  13.492  14.646 -0.0213  0.1129  0.0906
 3781W        W20629   8.447   8.234  11.624  0.1624  0.0649 -0.1436
 3782W        W20630   8.936   0.750   0.387 -0.3756  0.2644  0.0298
 3783W        W20631   4.115   9.141   1.049  0.0479 -0.3580 -0.1161
 3784W        W20632   2.222   4.052  14.878 -0.1828 -0.0149 -0.0406
 3785W        W20633   3.563   9.484   1.799 -0.0009 -0.4064  0.3202
 3786W        W20634  15.265  10.502  14.872 -0.1647  0.1236  0.0301
 3787W        W20635   1.174   8.326  13.082 -0.1224  0.1322 -0.0850
 3788W        W20636  14.982   7.146   2.303  0.2006  0.2569  0.0427
 3789W        W20637   1.286  16.666   3.172 -0.1740 -0.4508  0.2531
 3790W        W20638   1.960   9.768  11.114 -0.0806 -0.3130 -0.4992
 3791W        W20639  18.011   2.325  14.481 -0.1120  0.0851  0.1747
 3792W        W20640   3.815   1.523  13.934  0.1105 -0.0117 -0.0768
 3793W        W20641  16.915   5.118  13.642  0.2988  0.6239  0.1270
 3794W        W20642  11.764   1.976  12.949  0.1180  0.0984 -0.0065
 3795W        W20643  17.920  13.317  14.348  0.4381  0.1271 -0.2286
 3796W        W20644  11.241  10.028   0.972  0.1644 -0.1706  0.0246
 3797W        W20645   4.679   6.172   0.632  0.2523 -0.1055 -0.1674
 3798W        W20646   7.369   8.241  15.173 -0.2682 -0.3130  0.0371
 3799W        W20647  10.952  18.146   3.128 -0.2652  0.0165  0.1823
 3800W        W20648   2.601  17.318  10.898  0.3268  0.0611 -0.3742
 3801W        W20649   2.250  11.765  15.849  0.0402 -0.0224 -0.1219
 3802W        W20650   4.907   3.050  12.264 -0.1350 -0.0409  0.0921
 3803W        W20651  10.573   7.495   3.524 -0.0064  0.1984 -0.0838
 3804W        W20652   4.634  10.212   2.421  0.1205  0.1392 -0.3459
 3805W        W20653  12.394  11.211   3.765  0.1533 -0.1546 -0.0610
 3806W        W20654   0.606   3.283   1.038 -0.0205  0.2368  0.1459
 3807W        W20655   5.199   7.180  12.414 -0.2268  0.1198 -0.1485
 3808W        W20656   5.859   5.853  11.568  0.1158 -0.3467  0.1231
 3809W        W20657  15.693  12.185  14.681 -0.2480  0.0940  0.0235
 3810W        W20658  10.189   4.642  12.216  0.3369  0.1140  0.3107
 3811W        W20659  18.120   6.368   0.276  0.2577  0.0453  0.1435
 3812W        W20660  12.123   8.147  15.707  0.0185 -0.1063  0.1498
 3813W        W20661  12.935   3.226   4.729  0.3012 -0.0537  0.3057
 3814W        W20662  11.053  13.835  12.720  0.1323 -0.0152  0.1358
 3815W        W20663  16.314   2.839  11.774 -0.1178 -0.1975 -0.3394
 3816W        W20664  16.841  16.408   1.838 -0.1058 -0.3243 -0.1571
 3817W        W20665  14.642   6.947  14.586  0.0269  0.1549  0.1807
 3818W        W20666   0.980   2.492   1.836  0.0988 -0.1594  0.0135
 3819W        W20667   2.258  15.857  15.768 -0.0391 -0.0005  0.0119
 3820W        W20668   5.070  11.443  13.303 -0.0641 -0.4391  0.2477
 3821W        W20669  15.266  16.736  12.595  0.0388 -0.1037  0.1117
 3822W        W20670   1.229  14.190  15.316  0.1924  0.1271 -0.0550
 3823W        W20671   9.382   7.056   3.824  0.1890  0.0232 -0.2268
 3824W        W20672   6.029  15.633  13.991  0.2247 -0.3232  0.0692
 3825W        W20673   4.849   8.109  15.892 -0.1237 -0.3599 -0.0706
 3826W        W20674   1.775   5.286   5.240  0.1732  0.0046  0.0181
 3827W        W20675  14.693   5.330   4.803 -0.0767 -0.1501  0.2821
 3828W        W20676   8.532  16.100   3.613 -0.2158 -0.0745  0.0034
 3829W        W20677  11.993  10.766   1.501 -0.2652 -0.0576 -0.0372
 3830W        W20678   7.222  12.924  14.336  0.1238 -0.1123  0.4240
 3831W        W20679  13.872   5.988   5.866 -0.0352  0.2545 -0.0173
 3832W        W20680   0.866   3.685  14.734 -0.2201  0.0615  0.2268
 3833W        W20681  17.609  16.146   0.710  0.3113 -0.1920 -0.1161
 3834W        W20682  11.857   8.182   4.225  0.3363  0.4099 -0.0790
 3835W        W20683   1.549   7.914   1.948  0.1167  0.1304 -0.0414
 3836W        W20684  17.509  13.452  12.745  0.0595 -0.0360 -0.1027
 3837W        W20685   7.200  16.610  12.635  0.2665  0.0931 -0.1145
 3838W        W20686   2.504  16.609   1.124 -0.3513 -0.2515 -0.4173
 3839W        W20687  17.892  16.815  15.801 -0.1571 -0.0737 -0.0827
 3840W        W20688   6.198   3.908  11.830 -0.0831  0.1093 -0.1364
 3841W        W20689  14.615   2.274  11.564 -0.0248  0.3539  0.3383
 3842W        W20690  14.422   3.867   0.141 -0.1906 -0.0231 -0.1345
 3843W        W20691   3.700   5.867   0.280  0.0561  0.0740  0.3314
 3844W        W20692   7.039   3.678   2.228 -0.0544  0.1798 -0.0965
 3845W        W20693   8.844   5.393  15.178 -0.1018  0.0157 -0.1249
 3846W        W20694  11.846   4.676   4.537  0.1509 -0.2583 -0.0343
 3847W        W20695  13.314   6.390  12.461 -0.4987 -0.0965 -0.0171
 3848W        W20696  13.741   4.015  13.530 -0.0191 -0.2931 -0.2399
 3849W        W20697  11.101  11.624   0.965  0.2782 -0.2016  0.3178
 3850W        W20698   0.510  17.750  13.238 -0.1354 -0.1847  0.3236
 3851W        W20699   2.475  14.680  13.663  0.1529  0.2900  0.0899
 3852W        W20700  12.218   5.012  13.389 -0.0481  0.0366  0.1286
 3853W        W20701   8.164   8.769   4.047  0.0177  0.2908  0.0227
 3854W        W20702   8.362  17.806  10.697  0.2628  0.0148  0.0401
 3855W        W20703  10.746  12.463  14.277 -0.0517  0.2461  0.1540
 3856W        W20704  18.147   8.696   4.706  0.1825 -0.0911 -0.0675
 3857W        W20705   0.483  13.629  14.936  0.0987 -0.0759  0.1348
 3858W        W20706  11.840   6.438  13.699  0.4051  0.1602 -0.0438
 3859W        W20707   4.271   1.340   2.386  0.0784  0.2252  0.2658
 3860W        W20708   7.753   7.739  14.114 -0.0769 -0.1736  0.0051
 3861W        W20709  16.733   5.305  15.918 -0.0057  0.1194  0.0643
 3862W        W20710   8.984  11.179  15.569  0.0084  0.2816  0.1439
 3863W        W20711  16.459   9.279  14.813 -0.0104 -0.1473  0.0496
 3864W        W20712   5.686   5.957   6.308  0.1962  0.1608 -0.2553
 3865W        W20713  15.157  17.856  14.021 -0.4684 -0.0707  0.1344
 3866W        W20714   6.673  15.050  15.809  0.0484  0.2311  0.0617
 3867W        W20715   0.722  11.259   3.985 -0.1956  0.2349  0.3308
 3868W        W20716  10.754   7.927   3.159 -0.3448  0.0991 -0.0313
 3869W        W20717   6.529   5.681   5.413  0.2220 -0.1002 -0.1842
 3870W        W20718  17.168   7.845  13.783  0.0449 -0.0608  0.1635
 3871W        W20719  15.247  11.418  13.827  0.2931  0.0494 -0.0351
 3872W        W20720  16.883   8.619  11.449  0.0679  0.3523  0.0561
 3873W        W20721   5.235  10.945  13.642  0.0380 -0.1043  0.2292
 3874W        W20722   6.893   7.371   3.197  0.1051  0.1666  0.1583
 3875W        W20723  12.210  12.924  12.781 -0.0092 -0.2053  0.1083
 3876W        W20724   1.408  16.324   9.861 -0.1793 -0.2652  0.1886
 3877W        W20725  15.048  11.089  12.070 -0.2475  0.1364 -0.1167
 3878W        W20726  15.655   2.493   0.542  0.1223 -0.0112 -0.0670
 3879W        W20727  16.649  10.283  14.271  0.0719 -0.1190  0.2049
 3880W        W20728   0.859  17.681   0.896  0.2987  0.1026  0.3344
 3881W        W20729  14.059  17.428   3.321  0.1925 -0.1578 -0.0101
 3882W        W20730   3.801   6.200  11.243 -0.0081  0.3510 -0.1269
 3883W        W20731   0.933   9.117   1.469  0.0981 -0.4054 -0.1248
 3884W        W20732  13.143   0.306   4.363  0.1220  0.0076  0.0318
 3885W        W20733   7.009  17.000   5.090 -0.0642 -0.0024  0.1984
 3886W        W20734   1.947  13.328   0.304 -0.1521  0.0675 -0.0987
 3887W        W20735   2.738   2.496  14.880 -0.0453  0.1248  0.1950
 3888W        W20736  12.099   1.553   2.256  0.1813 -0.1115  0.1240
 3889W        W20737  10.442   1.383  13.558 -0.0145 -0.1588  0.3510
 3890W        W20738   2.907  12.793   2.563  0.1406 -0.1832 -0.0915
 3891W        W20739  13.940  16.464   2.854 -0.2910 -0.2457  0.0424
 3892W        W20740   9.327   1.836  15.196  0.1332  0.2764  0.0569
 3893W        W20741  17.565   8.097   2.269  0.0557 -0.0257 -0.4438
 3894W        W20742  15.452   6.443   6.184  0.1198 -0.1101 -0.0773
 3895W        W20743  14.833   0.360  11.450  0.2220  0.0979 -0.3261
 3896W        W20744  17.199  11.662  14.745 -0.1029 -0.2558 -0.6397
 3897W        W20745  10.117  15.756   1.654 -0.2396  0.0200 -0.1633
 3898W        W20746   0.548  12.452   1.025 -0.2423  0.3872 -0.1854
 3899W        W20747  12.030  14.108   2.978 -0.3062 -0.0685 -0.3881
 3900W        W20748  13.297   2.680  14.836  0.0423 -0.0379  0.1580
 3901W        W20749  10.131   2.918   3.194  0.2276 -0.1040 -0.2413
 3902W        W20750   5.534   1.498  13.111  0.3177  0.0921 -0.4518
 3903W        W20751   3.641   3.716  11.439  0.3985  0.1425  0.1036
 3904W        W20752  12.243  10.769  13.998  0.0496  0.1390 -0.1364
 3905W        W20753  13.790   2.262  11.826 -0.0155  0.0155 -0.1343
 3906W        W20754   5.381  13.389   0.255  0.1832 -0.3319 -0.2400
 3907W        W20755  12.501  15.260  14.468  0.2088  0.0483 -0.0654
 3908W        W20756   7.654   1.749  11.472 -0.2881  0.4686 -0.2627
 3909W        W20757   6.436  14.207  13.021  0.3004 -0.1839 -0.4299
 3910W        W20758   4.882  15.247  11.920  0.1352 -0.0445 -0.2142
 3911W        W20759  17.062   6.595  11.582  0.3419  0.2347  0.1364
 3912W        W20760   3.799  14.481   2.725  0.0462  0.0033  0.0528
 3913W        W20761  14.753  18.051   3.703 -0.3922 -0.2932  0.1212
 3914W        W20762   8.812  10.912   4.382 -0.1643 -0.0291 -0.1506
 3915W        W20763   0.067   0.763  12.631 -0.5847 -0.1330  0.0568
 3916W        W20764  17.756   0.353   3.250 -0.0278  0.0832 -0.0600
 3917W        W20765   4.530  12.549   2.170  0.0660 -0.2195  0.0456
 3918W        W20766   4.366  12.287   1.361  0.1329  0.0002  0.4880
 3919W        W20767  14.749   8.376  15.704 -0.0426 -0.1081  0.2858
 3920W        W20768  13.645   3.454  13.491  0.1775  0.0320  0.0762
 3921W        W20769   4.070  12.587   2.791 -0.0786  0.0602  0.2153
 3922W        W20770   8.582   0.106  15.027  0.2427  0.0966 -0.0286
 3923W        W20771   2.884  12.512  12.412  0.0533 -0.2587 -0.0117
 3924W        W20772   4.615   7.104  12.775 -0.3057  0.0649 -0.0468
 3925W        W20773   8.817  10.049   3.074 -0.2190 -0.0250 -0.0779
 3926W        W20774   1.083  10.326  13.965  0.0413 -0.2355  0.1521
 3927W        W20775  15.428  16.602  15.806  0.1700  0.2768  0.2677
 3928W        W20776  13.927   0.638   2.822 -0.1600  0.0232 -0.0153
 3929W        W20777  17.388   4.637  11.858 -0.0444 -0.3540 -0.0035
 3930W        W20778  14.208  11.518   0.561  0.2534 -0.1861 -0.0320
 3931W        W20779   7.156   3.298  14.538 -0.1717  0.1282  0.1093
 3932W        W20780  16.685  17.323  15.790 -0.1684  0.0290  0.0158
 3933W        W20781   9.112  13.744  13.530  0.0831  0.2503  0.3252
 3934W        W20782   3.823  17.960  13.522 -0.1610  0.3032 -0.3007
 3935W        W20783  12.938  13.222   2.317  0.2711 -0.1691  0.0356
 3936W        W20784   1.747   5.222   2.631  0.0576 -0.1197  0.1617
 3937W        W20785   8.897   0.553  13.223 -0.4005 -0.1594  0.0598
 3938W        W20786   1.024   4.379  13.474  0.0114  0.0228 -0.2032
 3939W        W20787   4.835   2.950  13.825 -0.1157 -0.1206 -0.0419
 3940W        W20788  15.499   9.145  15.442  0.0827 -0.1670 -0.1442
 3941W        W20789  16.075   7.387  12.398  0.4485 -0.0114  0.1647
 3942W        W20790   9.933   5.392   1.246 -0.0636  0.2350 -0.0664
 3943W        W20791  12.376   4.185   5.753  0.0822  0.0401 -0.0542
 3944W        W20792  14.822  11.559   1.712  0.0108  0.5558 -0.3263
 3945W        W20793   3.233   7.235  14.921 -0.2725  0.0736  0.0172
 3946W        W20794   4.726   4.034   3.828 -0.0044  0.1759 -0.0990
 3947W        W20795  10.835   6.958   2.894  0.1555  0.1540  0.1222
 3948W        W20796  10.647  12.431   1.090 -0.2451 -0.2016  0.3113
 3949W        W20797  10.842  13.540   0.001 -0.3716  0.0160 -0.4235
 3950W        W20798   2.435  11.705   0.189  0.2134  0.0662 -0.0252
 3951W        W20799   9.156  16.190   1.718  0.0110 -0.1416 -0.0734
 3952W        W20800  17.712   5.386   2.393  0.0095  0.0148 -0.1434
 3953W        W20801   0.337  11.869   4.811  0.0562 -0.0952 -0.0031
 3954W        W20802   8.054  14.362   3.838 -0.0797 -0.0590  0.1011
 3955W        W20803   6.566  10.475  10.735 -0.0621  0.0723 -0.1302
 3956W        W20804  17.129   3.937  13.216  0.1992 -0.0986  0.0726
 3957W        W20805   9.543   3.861   0.715  0.0588 -0.0965 -0.0527
 3958W        W20806   0.591  13.182  14.592  0.1558  0.1117 -0.2941
 3959W        W20807   9.491   3.796  15.857  0.0546 -0.0483  0.2885
 3960W        W20808   7.973   7.997  14.485  0.2440  0.2401  0.0620
 3961W        W20809  12.006   0.052   3.776 -0.1906  0.4003 -0.1548
 3962W        W20810   1.454  18.096  15.335 -0.1561 -0.1119  0.2224
 3963W        W20811  17.935   9.109  12.756  0.1514  0.0003  0.1141
 3964W        W20812   4.097   6.935  14.438 -0.0658  0.1336  0.0683
 3965W        W20813  14.290  15.409   0.748  0.3134 -0.2031 -0.0171
 3966W        W20814   5.242   6.833   1.427 -0.1835 -0.1711  0.2065
 3967W        W20815   9.661  13.557  15.338  0.0639 -0.2250  0.2179
 3968W        W20816  12.420   4.385   3.112  0.0092 -0.0110  0.0535
 3969W        W20817  14.647   6.816   3.786  0.1308 -0.0521  0.0156
 3970W        W20818   2.584  12.317   3.304 -0.0293  0.2064 -0.0785
 3971W        W20819  16.512   3.465  12.123 -0.2804  0.1321  0.0333
 3972W        W20820   1.521   2.714   1.810  0.1423  0.2861 -0.0097
 3973W        W20821  10.333  14.192   5.043  0.1914  0.0200 -0.0202
 3974W        W20822   9.721   5.654  11.452 -0.3506  0.1816 -0.1386
 3975W        W20823   4.367   7.475   5.002 -0.0087 -0.1719 -0.1387
 3976W        W20824   5.484   5.093   0.887 -0.2204  0.2589  0.2548
 3977W        W20825   1.540   5.157  14.215 -0.0515  0.2944 -0.0243
 3978W        W20826   5.276  16.301   3.197  0.2628  0.3063  0.1476
 3979W        W20827   1.309   4.907  15.487 -0.0396 -0.0908  0.1116
 3980W        W20828   5.970  15.703  15.596  0.2583  0.0017  0.1885
 3981W        W20829   3.231  16.169  13.099 -0.0159  0.2789 -0.0454
 3982W        W20830   1.703  11.308  14.720 -0.5086 -0.1136 -0.1686
 3983W        W20831   0.405  18.137  12.875  0.3720 -0.1144 -0.2472
 3984W        W20832   0.143  12.770  12.363 -0.0452  0.1177  0.2158
 3985W        W20833   7.030   4.119   1.933 -0.3633  0.2603  0.2163
 3986W        W20834  14.044  14.344  15.683 -0.0820  0.1139 -0.1871
 3987W        W20835  10.319  17.648   4.853  0.1220 -0.2662 -0.2001
 3988W        W20836   1.692  14.538  11.899 -0.0900  0.0101  0.0719
 3989W        W20837   5.114  15.902  15.019 -0.0071 -0.3018 -0.0862
 3990W        W20838  12.626   2.768   2.036  0.1277 -0.3044  0.2387
 3991W        W20839   1.708  10.839   0.488  0.1022  0.4507  0.0168
 3992W        W20840  14.874  12.012  14.272 -0.0505 -0.0966 -0.1879
 3993W        W20841   8.709  14.235   4.148 -0.2085 -0.0403  0.0683
 3994W        W20842   1.370  18.103   4.619  0.1212  0.1474  0.2550
 3995W        W20843   7.063   5.956   5.128 -0.0832 -0.1713 -0.0899
 3996W        W20844  12.622   1.797  15.969 -0.0963 -0.6157  0.2515
 3997W        W20845  16.661  14.861   1.822 -0.0192  0.0036  0.1586
 3998W        W20846   1.705   1.809  10.283 -0.0680 -0.0140  0.0286
 3999W        W20847  12.724   4.504   0.527 -0.1023  0.2053  0.3946
 4000W        W20848   8.808   6.673  12.831  0.3156  0.1912  0.1902
 4001W        W20849   8.496  14.111   5.243 -0.0776  0.0499 -0.1380
 4002W        W20850   1.032  10.024  13.384  0.2533 -0.2081 -0.0918
 4003W        W20851  13.639   7.703  15.254 -0.2188 -0.1521 -0.0589
 4004W        W20852  10.403  10.292   0.978  0.0752 -0.0692  0.0826
 4005W        W20853  12.264   7.456   4.214 -0.0460 -0.1807 -0.0924
 4006W        W20854  14.738  11.882   4.175 -0.0682 -0.2773 -0.0222
 4007W        W20855   8.841  13.176  12.801  0.1835  0.2671  0.1782
 4008W        W20856   9.989   4.192   0.589 -0.0524 -0.2303 -0.0122
 4009W        W20857   1.071  16.808  11.689 -0.0067 -0.3861 -0.3732
 4010W        W20858  16.432   7.992  11.745 -0.3489  0.1035 -0.0003
 4011W        W20859   7.167   9.037   5.161  0.0741 -0.1517  0.0573
 4012W        W20860  15.850   3.858   1.874 -0.3166 -0.2045 -0.1528
 4013W        W20861   0.646   2.175   6.053  0.0006  0.2677 -0.3336
 4014W        W20862   1.085   9.851   1.738  0.3420 -0.2340 -0.3698
 4015W        W20863  15.682   1.416   2.296  0.1244  0.0715  0.2491
 4016W        W20864   7.167   1.557  15.903  0.2567 -0.2676 -0.1828
 4017W        W20865   4.417   8.222   0.002  0.2237  0.4445 -0.2591
 4018W        W20866  14.208   1.816   2.840  0.3035 -0.0415 -0.1348
 4019W        W20867   6.788   1.979   4.668  0.1670 -0.2211  0.1533
 4020W        W20868   2.646   9.650   1.597 -0.2564 -0.0450 -0.0807
 4021W        W20869  16.229  16.270   2.073 -0.1293  0.3507  0.1218
 4022W        W20870   2.099   1.536  14.325  0.1017 -0.0160 -0.0418
 4023W        W20871   8.132   3.277   5.080  0.1929  0.0180 -0.4105
 4024W        W20872   5.619  10.784   0.101  0.2843  0.0092  0.2975
 4025W        W20873  12.597   6.535   5.754 -0.1609  0.2626  0.1065
 4026W        W20874  14.101  11.822  12.799 -0.2063  0.3983 -0.0992
 4027W        W20875  15.083   9.670   1.969 -0.1997 -0.0449 -0.2131
 4028W        W20876   0.210   6.101   4.578 -0.1834  0.2621 -0.3874
 4029W        W20877   6.244  10.100   4.658  0.0534  0.2714  0.4071
 4030W        W20878   9.197  16.048   5.894  0.1898 -0.2371 -0.2933
 4031W        W20879  14.331  15.829   3.473 -0.2383  0.2554 -0.3636
 4032W        W20880   9.103   6.799   5.286  0.0593  0.4912  0.1430
 4033W        W20881   9.365  10.362   0.859  0.1499 -0.0722  0.3678
 4034W        W20882   2.337   1.793   2.633  0.2877 -0.0230 -0.1432
 4035W        W20883   5.534  15.985   3.946 -0.0597  0.0396 -0.0821
 4036W        W20884  11.486  18.205  11.186  0.2385  0.1053 -0.1144
 4037W        W20885  16.013   6.402  12.240 -0.1305  0.1492  0.0810
 4038W        W20886   3.210  15.640  11.182  0.0800  0.4375  0.3186
 4039W        W20887  17.728  12.944  11.478  0.0751 -0.0849 -0.0879
 4040W        W20888  11.368   5.889   3.219 -0.0216  0.0495 -0.1264
 4041W        W20889  13.141  11.071  14.775  0.0875  0.0875  0.3991
 4042W        W20890  14.230  18.016  11.543  0.0945 -0.0674  0.2652
 4043W        W20891  12.299  18.060   0.038  0.0586 -0.0060  0.1648
 4044W        W20892   6.686  15.108   4.910 -0.2597 -0.0531 -0.4265
 4045W        W20893  16.119   1.768  13.194  0.2828  0.2989 -0.2095
 4046W        W20894   1.146  18.111   3.117 -0.1642  0.1939  0.2346
 4047W        W20895  17.635   1.446  10.629 -0.2056 -0.2545  0.1859
 4048W        W20896  10.252  14.067  13.186 -0.0604  0.0466  0.1686
 4049W        W20897  13.451  13.815  15.022 -0.2671 -0.2714 -0.1472
 4050W        W20898   0.832   0.232  10.960 -0.0158  0.0863 -0.4118
 4051W        W20899  17.594  16.602   4.110  0.1893 -0.6721 -0.1789
 4052W        W20900  12.067  11.235   2.001 -0.5073  0.0815 -0.1348
 4053W        W20901  13.634   0.164  12.597  0.3252  0.1410 -0.1271
 4054W        W20902   2.211  18.221  15.422 -0.0243 -0.0750  0.2133
 4055W        W20903   0.576  14.135   1.482  0.1622 -0.1712 -0.3946
 4056W        W20904   8.425   0.876  13.388 -0.0677 -0.0803  0.2659
 4057W        W20905  10.001   6.601  15.845  0.0263  0.1560  0.0418
 4058W        W20906   3.308  16.623  11.016  0.5209  0.0101  0.0158
 4059W        W20907   2.791  11.286   0.238 -0.0099 -0.1888  0.0281
 4060W        W20908  13.021  12.449  11.419 -0.2228 -0.0443 -0.3670
 4061W        W20909   2.605  16.709   2.868 -0.0326  0.1254 -0.4293
 4062W        W20910  10.170  16.504   6.250  0.2630 -0.0127 -0.0262
 4063W        W20911  15.660  14.408  15.848 -0.1318 -0.0500 -0.1242
 4064W        W20912   5.478   5.190   2.013 -0.1391 -0.2133 -0.1443
 4065W        W20913  10.931  16.530  10.511  0.2673  0.0329 -0.1747
 4066W        W20914   4.932   1.871  14.787  0.1651 -0.1036  0.0692
 4067W        W20915  15.639   4.106   1.439 -0.0172 -0.2011 -0.0817
 4068W        W20916   8.099  14.849  10.722 -0.2152 -0.1559 -0.1075
 4069W        W20917   4.891  16.975   3.531 -0.3393  0.1761 -0.2840
 4070W        W20918   4.225   4.576  14.957  0.0333  0.1172 -0.0918
 4071W        W20919  14.372  15.966  13.669 -0.0825  0.2013 -0.4071
 4072W        W20920   5.932   3.322   2.995 -0.1708 -0.1432  0.0483
 4073W        W20921   2.162  10.206  11.424 -0.0521  0.1967 -0.3021
 4074W        W20922  16.103  15.715   1.746  0.0246 -0.1445 -0.2513
 4075W        W20923   5.123  12.324   3.970 -0.2528  0.0064  0.3782
 4076W        W20924   2.740   6.132  12.123 -0.2129  0.1640 -0.4034
 4077W        W20925  14.630   9.612   0.752 -0.2499 -0.1568  0.1448
 4078W        W20926  13.593   9.749   3.935 -0.0973  0.2441  0.0739
 4079W        W20927  12.792   3.840   4.196  0.1628 -0.0399 -0.0511
 4080W        W20928   3.745  13.422  14.853  0.3103 -0.1568  0.2330
 4081W        W20929  17.440   0.676   1.771  0.0192 -0.0359  0.0040
 4082W        W20930   4.899  18.100  15.134 -0.1582  0.2386  0.2127
 4083W        W20931   5.569   8.045  10.333 -0.1756  0.2023  0.0786
 4084W        W20932   5.424   9.821   5.054 -0.0103 -0.4312  0.2957
 4085W        W20933   0.123  12.317   3.625 -0.1392  0.3486  0.1935
 4086W        W20934  12.440   7.324   3.768 -0.1500  0.2206  0.0759
 4087W        W20935   0.272  13.459  12.860  0.0222  0.1206  0.0227
 4088W        W20936  16.430  13.302   0.756  0.1588 -0.1807 -0.1431
 4089W        W20937  14.518   2.053  15.168 -0.1308  0.2678 -0.1577
 4090W        W20938   2.971   6.151  12.936  0.1817  0.2231 -0.0487
 4091W        W20939  12.009   7.708  14.382 -0.1879  0.1451 -0.0843
 4092W        W20940   8.559   5.862   3.460  0.0041 -0.2400 -0.0309
 4093W        W20941   4.971   8.420   1.868 -0.1453 -0.3109 -0.0620
 4094W        W20942   4.620   6.462  15.558  0.1327  0.0670 -0.1022
 4095W        W20943  17.239   2.123  13.387  0.0819  0.2856  0.0500
 4096W        W20944  14.287  12.090   5.981 -0.1214  0.3963  0.0446
 4097W        W20945  11.293  13.640   2.174  0.2850  0.0130  0.0483
 4098W        W20946   3.637   8.029  15.999  0.1278 -0.2429  0.0383
 4099W        W20947   8.780  17.609   0.758 -0.0505 -0.1738 -0.2408
 4100W        W20948   3.451   6.255   3.296  0.3155 -0.0834  0.1426
 4101W        W20949   7.640  14.229  11.285  0.1174  0.2391  0.1089
 4102W        W20950   9.756  10.748   3.410  0.1825  0.0614  0.1901
 4103W        W20951   3.262  10.965  15.699 -0.1174  0.2626  0.1347
 4104W        W20952   8.781   9.732  14.600 -0.0678  0.0900 -0.0443
 4105W        W20953   8.056   0.760   3.174  0.2250 -0.0775 -0.1651
 4106W        W20954   3.936  14.363  15.568  0.1531  0.1297 -0.2644
 4107W        W20955   5.797  17.266  13.819 -0.2912 -0.1079  0.3396
 4108W        W20956   3.355  13.423  14.078 -0.2075  0.0808 -0.0239
 4109W        W20957   6.301   9.139   3.304 -0.3772  0.1048  0.3127
 4110W        W20958  16.440   8.707   5.074 -0.2844  0.3944 -0.0026
 4111W        W20959   9.248   8.876  13.386  0.2624  0.1053  0.0663
 4112W        W20960  10.399   3.569  15.280 -0.1205 -0.3039 -0.3202
 4113W        W20961   3.336  13.700   3.833 -0.1816  0.1274 -0.4168
 4114W        W20962  18.160  16.722  10.934  0.0658  0.1965  0.1962
 4115W        W20963   1.637   1.412   3.114 -0.1951 -0.2843  0.2082
 4116W        W20964  17.884  12.995   3.096  0.0795 -0.0201 -0.2598
 4117W        W20965   7.263   8.058   4.142  0.0324 -0.0161  0.1706
 4118W        W20966   6.831   8.536   0.811  0.0729 -0.0898 -0.3086
 4119W        W20967  13.351   3.274  13.895 -0.0110 -0.1475  0.1698
 4120W        W20968   7.960   1.048  15.410  0.1429  0.3969 -0.2917
 4121W        W20969  12.738  17.444  14.340 -0.1838 -0.0997 -0.0869
 4122W        W20970  13.067   5.283   0.330  0.0484  0.1369 -0.1226
 4123W        W20971  17.011  14.182   3.311 -0.1103 -0.0389 -0.0555
 4124W        W20972   3.456   2.053  14.617 -0.0583 -0.4474 -0.1296
 4125W        W20973  12.010   7.611   1.981 -0.0799  0.0236 -0.1129
 4126W        W20974   6.454   8.886  15.984  0.1604  0.0400 -0.0711
 4127W        W20975  14.220  11.522  15.863 -0.2130  0.1973  0.0390
 4128W        W20976   8.320  15.567   2.981 -0.0650 -0.1119  0.1199
 4129W        W20977   6.815  14.593  13.023 -0.1629 -0.5997 -0.0498
 4130W        W20978   1.960   5.049  11.898  0.1363  0.0802  0.0107
 4131W        W20979  15.004   0.771   3.634 -0.2056  0.0206 -0.1284
 4132W        W20980   4.303  14.382   2.752  0.1268  0.0363 -0.1570
 4133W        W20981   9.477  10.182  14.959  0.1180  0.4699 -0.1349
 4134W        W20982   5.638   2.847   5.222 -0.0755 -0.1497 -0.0258
 4135W        W20983  18.193   4.474  13.536  0.1166 -0.3833 -0.0671
 4136W        W20984   1.992   4.498  11.835 -0.0505 -0.1102 -0.0639
 4137W        W20985  10.158  14.472   0.360 -0.3430 -0.0931 -0.1673
 4138W        W20986   9.858  11.938   3.231 -0.6131 -0.2319  0.1706
 4139W        W20987  17.153  17.462  15.724  0.0880 -0.0306  0.1727
 4140W        W20988  10.873   9.329  14.103  0.1799  0.5099  0.1267
 4141W        W20989  18.104   4.556   4.436  0.4940 -0.0170 -0.4618
 4142W        W20990   7.299   6.096   4.315  0.0814 -0.1076 -0.0013
 4143W        W20991   1.819   4.733  14.103  0.1496 -0.1020 -0.1542
 4144W        W20992   7.935   2.466   0.283 -0.0521 -0.0424  0.0251
 4145W        W20993  14.722   0.472   1.574 -0.2130 -0.1029 -0.0710
 4146W        W20994  13.809  15.989  16.121 -0.3519 -0.0538  0.2088
 4147W        W20995  11.398  14.316   1.682  0.0325  0.1058 -0.0987
 4148W        W20996  16.201  13.399   3.079 -0.1658 -0.0564 -0.0100
 4149W        W20997   7.184   4.091   2.943 -0.1860 -0.0553  0.3605
 4150W        W20998  15.066   1.228   0.992  0.0612  0.0200  0.1888
 4151W        W20999   5.851   1.024  15.110  0.2921 -0.1705 -0.0244
 4152W        W21000  14.958   9.565   4.155  0.3125  0.1285  0.1366
 4153W        W21001  16.165  12.144   1.021 -0.0334  0.1423 -0.1405
 4154W        W21002   0.087   2.479   4.626  0.2582  0.0918  0.2394
 4155W        W21003  12.243   2.038   0.173  0.2118  0.1112 -0.0700
 4156W        W21004   4.952   3.563  13.760  0.2236 -0.0238 -0.0995
 4157W        W21005  14.209  12.465  14.944 -0.1019 -0.0410 -0.0503
 4158W        W21006  15.937   1.272   2.778 -0.0950 -0.1024 -0.0513
 4159W        W21007  15.327  13.489  13.661 -0.0222  0.3015 -0.1703
 4160W        W21008  15.332  17.656   5.026 -0.0033 -0.2287 -0.0695
 4161W        W21009  10.317   3.879   5.454 -0.0547 -0.1980 -0.0345
 4162W        W21010  17.625  14.600  11.522  0.0392 -0.0676 -0.1674
 4163W        W21011   3.663   1.478   5.314  0.1147 -0.2382  0.0461
 4164W        W21012  16.418  13.784   0.936  0.0126 -0.0041  0.0847
 4165W        W21013  10.278   2.667   4.975 -0.0037 -0.2775 -0.3576
 4166W        W21014   4.957  14.492  13.905 -0.0821  0.0967 -0.0429
 4167W        W21015   6.456   4.663   2.578 -0.0718 -0.0664  0.4076
 4168W        W21016  12.620   8.593   2.450  0.3033 -0.1371  0.1288
 4169W        W21017   4.903   0.013   1.743 -0.2335  0.1023 -0.1031
 4170W        W21018   2.881  13.166  13.312 -0.0788 -0.0598  0.0228
 4171W        W21019   5.815   0.529  11.506  0.1301 -0.3311  0.0132
 4172W        W21020  14.975   6.535  14.701 -0.1128  0.0672 -0.0572
 4173W        W21021  11.450  14.452   2.985 -0.2510 -0.1106  0.0292
 4174W        W21022  16.066  17.214   1.434  0.2416 -0.0617 -0.5736
 4175W        W21023  10.050   2.450  11.229 -0.0137  0.2034 -0.2494
 4176W        W21024  13.991   4.798   3.579  0.3418  0.0197 -0.0351
 4177W        W21025  13.749   6.545   1.180 -0.3439 -0.0813 -0.0528
 4178W        W21026  11.348  17.653   4.065 -0.0096  0.0780  0.3230
 4179W        W21027  13.677   4.002   1.436 -0.1218 -0.1095  0.0985
 4180W        W21028  17.999  14.978  15.653 -0.0876 -0.1261 -0.1520
 4181W        W21029   8.399   8.781   4.800 -0.2751  0.0388  0.1735
 4182W        W21030  12.620   4.428  12.017 -0.1199  0.3560  0.0251
 4183W        W21031   5.228   1.374   0.366 -0.0623  0.0139  0.1823
 4184W        W21032  17.659  15.098  11.406 -0.0943 -0.0103 -0.0832
 4185W        W21033  17.060   2.146   3.872 -0.3431 -0.0069 -0.1791
 4186W        W21034   5.285  13.176  13.426 -0.0141 -0.0640 -0.1500
 4187W        W21035  15.392   2.149  14.238 -0.0690  0.3617  0.3218
 4188W        W21036   1.471   9.077   1.640  0.3409 -0.0308 -0.2675
 4189W        W21037   3.676  12.722   3.129  0.2458  0.3086 -0.1243
 4190W        W21038  14.767   1.164   0.520 -0.4102 -0.0738  0.0722
 4191W        W21039   8.826   9.003   5.560 -0.0261  0.0165 -0.0395
 4192W        W21040   2.156   5.772   3.740  0.0273  0.2931  0.2320
 4193W        W21041  15.781   7.319  11.436 -0.0187  0.0220  0.0195
 4194W        W21042  11.019   9.865   2.403  0.2111  0.1368 -0.1659
 4195W        W21043   0.656   4.947  13.095 -0.0152  0.0381  0.2723
 4196W        W21044  13.804   3.101   2.714  0.2536  0.3302 -0.1681
 4197W        W21045  13.430   4.294   0.457  0.0736  0.1479  0.1755
 4198W        W21046  11.537   4.504   3.011 -0.1415 -0.2014 -0.2967
 4199W        W21047  18.092   3.274  13.580  0.3617 -0.0950  0.0206
 4200W        W21048   8.819   5.801  13.899 -0.1870 -0.3916 -0.0721
 4201W        W21049   0.756  13.991  12.441  0.0109 -0.4803 -0.2050
 4202W        W21050   1.807   5.005   1.292  0.3334  0.0231  0.0351
 4203W        W21051  17.574   0.264  10.440 -0.2447 -0.0857 -0.0370
 4204W        W21052  12.196   2.824   0.881  0.0661  0.1398  0.1397
 4205W        W21053   6.532   9.495  10.950  0.0079 -0.0955  0.0653
 4206W        W21054  14.568   9.536  12.376  0.1468  0.0119 -0.1620
 4207W        W21055   2.516  13.990   4.444  0.2213  0.1371 -0.1980
 4208W        W21056   4.350  15.189   4.234  0.1783 -0.2274  0.1409
 4209W        W21057  14.134  16.889  16.022 -0.3037  0.1544 -0.0860
 4210W        W21058  16.727  13.294   5.412  0.0039 -0.0005  0.1219
 4211W        W21059   4.830   7.882  13.185  0.2517 -0.4687  0.0238
 4212W        W21060   0.347  11.580  13.658  0.0938  0.0841 -0.0521
 4213W        W21061   0.472  14.275   1.945 -0.2233 -0.0231  0.1456
 4214W        W21062  17.622  16.849   2.592  0.0816 -0.0126 -0.1750
 4215W        W21063   0.857  16.028   0.316  0.2236 -0.0414 -0.2866
 4216W        W21064  15.025  16.989  14.326  0.0409 -0.0530  0.0978
 4217W        W21065  13.119  15.639  15.520  0.2439 -0.1335 -0.1661
 4218W        W21066  13.646  14.663  10.513 -0.1284 -0.3016  0.0294
 4219W        W21067   9.999   7.247   1.492 -0.1385  0.2022 -0.3369
 4220W        W21068  12.803  13.301  11.525 -0.0043  0.1771 -0.3107
 4221W        W21069   2.489   9.181   3.729 -0.0421 -0.1293  0.0521
 4222W        W21070  12.611   9.366  14.371 -0.0365  0.0363  0.1778
 4223W        W21071  12.374  12.870  15.242 -0.1066 -0.0166 -0.0957
 4224W        W21072  13.857   8.761  12.621 -0.1792  0.1415 -0.0020
 4225W        W21073   8.185   4.958  11.765 -0.0846 -0.3076 -0.1443
 4226W        W21074  13.532  13.910   5.585 -0.3689  0.1220  0.1038
 4227W        W21075   5.411  11.985   1.407 -0.0970  0.0052 -0.2757
 4228W        W21076  15.287   5.945   4.281 -0.2301  0.2998  0.0728
 4229W        W21077  17.222  10.284   2.956 -0.1537  0.0982 -0.3530
 4230W        W21078  10.361  11.342   1.477 -0.0118  0.2781 -0.0530
 4231W        W21079   1.472  13.673   3.169  0.0767  0.0755  0.2133
 4232W        W21080   8.390   1.352   3.073 -0.0475 -0.1138 -0.1769
 4233W        W21081  10.981  15.831  11.272 -0.0804 -0.1844 -0.0088
 4234W        W21082  18.033   3.743  16.050 -0.2216 -0.0600 -0.0097
 4235W        W21083   9.073   5.165  14.545  0.0642  0.0900  0.0294
 4236W        W21084  11.590   3.072  14.527 -0.1748  0.2250  0.1599
 4237W        W21085   2.733   5.042   3.224  0.0146  0.0448  0.1793
 4238W        W21086   1.802  16.170   3.843 -0.0038  0.1439  0.0338
 4239W        W21087  12.173   3.795   1.522  0.0456  0.3138  0.2151
 4240W        W21088  11.021  12.023  14.514 -0.0064 -0.3259 -0.2314
 4241W        W21089  13.112   2.304  10.312  0.0060  0.2397 -0.1659
 4242W        W21090  13.666  16.616  11.922  0.0108  0.0996 -0.1555
 4243W        W21091  13.580  11.994  15.465  0.0423  0.0768  0.2975
 4244W        W21092   3.403  12.916  14.142 -0.2430 -0.0261 -0.0907
 4245W        W21093   1.489   1.697  13.122 -0.0503  0.0073  0.1016
 4246W        W21094  15.143  14.414   4.265 -0.0716 -0.2980 -0.2057
 4247W        W21095  12.762  13.087   0.727  0.2977 -0.0700 -0.0142
 4248W        W21096   5.369   9.111   1.280  0.0462  0.2215 -0.1363
 4249W        W21097  14.729  17.306   1.147 -0.2354 -0.0463  0.2714
 4250W        W21098  13.498  15.798   1.653 -0.1405 -0.0742 -0.2749
 4251W        W21099  18.051   0.131   1.934  0.0151 -0.1224 -0.1465
 4252W        W21100   7.866   9.875  15.673  0.1328  0.1364 -0.2455
 4253W        W21101  11.350  16.840  16.081  0.2739 -0.2027  0.0697
 4254W        W21102   4.672   7.778   1.339  0.2951  0.2112 -0.1292
 4255W        W21103   0.156   6.196  11.792 -0.3034  0.1720 -0.0498
 4256W        W21104   2.446  11.691   4.627 -0.1698 -0.2942 -0.5115
 4257W        W21105  13.587   4.545   3.781  0.0279 -0.2795  0.0575
 4258W        W21106   7.157   4.758   3.826 -0.0586  0.0846 -0.2739
 4259W        W21107   8.178   1.365  15.714  0.0372  0.0209  0.0421
 4260W        W21108   5.772   9.348   1.475  0.1687 -0.1246  0.1658
 4261W        W21109   5.031  12.266  13.769 -0.2213 -0.0890 -0.1827
 4262W        W21110   3.541   1.516   4.494 -0.1702  0.1449  0.1053
 4263W        W21111  17.477  10.211   2.535 -0.0527 -0.3466 -0.6116
 4264W        W21112   0.668  16.859  13.194  0.0123 -0.2640 -0.2383
 4265W        W21113  16.731  16.706  13.717  0.3544  0.1689 -0.0304
 4266W        W21114  17.665   4.555   1.400  0.5016 -0.3706  0.0909
 4267W        W21115   9.065   3.162   2.299 -0.2447  0.3758  0.0651
 4268W        W21116  11.679   7.352  12.669  0.0519  0.1001 -0.1346
 4269W        W21117   9.020   0.242  15.206 -0.1056  0.2967 -0.0359
 4270W        W21118   1.692  12.883   3.962  0.1669 -0.3250  0.0132
 4271W        W21119   5.382   0.022  12.222 -0.1887 -0.0889 -0.1185
 4272W        W21120   8.425  15.953   0.538 -0.3781 -0.2427  0.0310
 4273W        W21121   0.758  12.565   1.875 -0.1488  0.1012  0.0681
 4274W        W21122  11.178   3.016  13.687  0.4272 -0.1899 -0.0479
 4275W        W21123   2.314   5.015  14.768 -0.3474  0.1365  0.1985
 4276W        W21124  10.332   7.723   4.372  0.0816 -0.2738  0.2529
 4277W        W21125   3.780  13.037   4.214  0.2590 -0.1239 -0.0558
 4278W        W21126  15.928   1.292  13.076  0.2560 -0.0707  0.0101
 4279W        W21127  12.919   7.504   1.204  0.1267  0.1836 -0.0870
 4280W        W21128   5.492  13.006   3.452 -0.1440  0.1680  0.1118
 4281W        W21129   9.595   4.750  15.464  0.1031  0.1418 -0.1888
 4282W        W21130  11.613  12.019   4.408 -0.0285  0.0324 -0.1586
 4283W        W21131   5.044  15.571  15.467 -0.2054  0.0099 -0.1035
 4284W        W21132  10.935   5.522   3.109 -0.0575  0.2827 -0.3621
 4285W        W21133  17.638  13.960  12.844 -0.2971 -0.1153  0.1240
 4286W        W21134  15.603   9.626  11.639  0.3340 -0.0681  0.0855
 4287W        W21135   0.003   9.611   4.737 -0.3514  0.2662 -0.0909
 4288W        W21136   0.357   1.344   5.466  0.2959 -0.1789  0.0189
 4289W        W21137  13.672  16.483   3.298  0.2739 -0.2333 -0.0431
 4290W        W21138  10.113  15.036   0.457 -0.0270 -0.0717  0.0538
 4291W        W21139   6.239   8.364  13.282  0.1972 -0.1532 -0.0470
 4292W        W21140  11.386  11.796  14.065  0.0988 -0.2168 -0.0011
 4293W        W21141  18.121  12.383  11.560  0.0394 -0.1137 -0.0301
 4294W        W21142  15.381  12.253   1.477  0.0515 -0.3892  0.1323
 4295W        W21143   5.926   6.526   2.765 -0.0237 -0.1855  0.2347
 4296W        W21144  12.596   9.798   0.152 -0.0988  0.0267 -0.1302
 4297W        W21145  12.936  10.991   3.897  0.1534  0.2031 -0.1129
 4298W        W21146   9.767   4.031   5.400 -0.0854 -0.1616  0.2110
 4299W        W21147   7.711  17.563   3.926 -0.3696 -0.0334 -0.0988
 4300W        W21148   8.020  12.811  12.940 -0.5137  0.0182  0.0612
 4301W        W21149   0.661  12.333  15.494 -0.0720  0.2172  0.0494
 4302W        W21150   0.443  14.522   2.685  0.1094  0.1279 -0.1580
 4303W        W21151  12.975  17.296   1.361  0.3382 -0.2041 -0.0344
 4304W        W21152  15.949  16.540   2.417 -0.1830  0.1508 -0.1201
 4305W        W21153  11.317   6.979  14.212  0.1078 -0.1500  0.0540
 4306W        W21154  10.486  12.527   1.510  0.0006 -0.2275  0.1894
 4307W        W21155  15.055  10.023   4.708  0.3823  0.0467  0.2106
 4308W        W21156   0.548   2.772  14.292 -0.0592 -0.1790  0.0465
 4309W        W21157  11.187  12.421  14.052  0.0895  0.0852  0.2305
 4310W        W21158  17.765  16.450  12.000  0.0722 -0.2110 -0.0616
 4311W        W21159   4.119   1.686  14.363 -0.2212  0.2700 -0.0641
 4312W        W21160   2.267  11.956   2.394 -0.1367 -0.1138 -0.1286
 4313W        W21161   0.398  11.654   1.148 -0.0209  0.1362 -0.2393
 4314W        W21162   8.681   3.599   1.577  0.0132  0.2446 -0.0512
 4315W        W21163  16.682   5.539  13.431  0.0906  0.0012  0.2600
 4316W        W21164   1.035   6.230  12.907 -0.1915 -0.0552 -0.2469
 4317W        W21165   6.448   4.893  15.980  0.0840 -0.0646 -0.0977
 4318W        W21166  11.310   5.450   1.270 -0.0555  0.1181 -0.3151
 4319W        W21167  11.597  12.195  15.874  0.0634 -0.2960 -0.2800
 4320W        W21168   0.830  10.550  14.807  0.0349 -0.0926  0.1792
 4321W        W21169  13.949   3.016   1.906 -0.1196  0.1255 -0.1080
 4322W        W21170  14.793   9.546  13.465  0.2588 -0.1881 -0.1252
 4323W        W21171   8.805   4.230   3.668 -0.2368  0.0358 -0.1360
 4324W        W21172  13.999   9.568  11.549 -0.1673 -0.1434  0.0621
 4325W        W21173   9.362   0.432  14.520 -0.3034 -0.1187 -0.2587
 4326W        W21174   4.646   8.682   0.290  0.1425 -0.3017  0.0016
 4327W        W21175  10.442   8.152  12.810  0.0458  0.1428  0.0621
 4328W        W21176   3.899   3.384   4.982 -0.0375 -0.0159 -0.1921
 4329W        W21177  12.158   4.145   1.911  0.1633  0.1257 -0.3103
 4330W        W21178  11.289  13.988  11.305 -0.2675  0.1169  0.0346
 4331W        W21179   5.105   2.581   1.201 -0.0949 -0.1775  0.0907
 4332W        W21180  10.052   2.391   3.356  0.2093  0.3916 -0.0672
 4333W        W21181   7.502   0.231  13.250  0.2855 -0.0567 -0.0290
 4334W        W21182  16.875   1.427  11.359 -0.3165  0.1599 -0.3607
 4335W        W21183   2.404  13.031   1.011  0.3889  0.2703 -0.2088
 4336W        W21184   5.348   8.235  15.768 -0.1562 -0.0088 -0.1016
 4337W        W21185  11.759   5.606  12.164  0.0089  0.2887 -0.0862
 4338W        W21186   6.663  17.502  10.654  0.2087 -0.1652  0.1860
 4339W        W21187  16.383  13.113  10.296 -0.1900 -0.0654  0.0187
 4340W        W21188   9.545   5.109   1.457 -0.3827  0.2022 -0.1891
 4341W        W21189   5.159   9.922   0.919  0.0556 -0.2463 -0.0673
 4342W        W21190  16.421  13.145   1.261  0.0068 -0.0873 -0.0692
 4343W        W21191   6.957  15.540  11.455  0.0626 -0.1615  0.1352
 4344W        W21192  10.715   0.385   2.008 -0.1221  0.0614  0.4015
 4345W        W21193  16.809   3.389  12.943  0.1202 -0.1076 -0.1697
 4346W        W21194  14.293   7.145  15.858  0.0563 -0.1481 -0.0362
 4347W        W21195   7.697  16.968   3.839  0.0821 -0.1417 -0.1448
 4348W        W21196  13.936  13.421  13.717  0.2730 -0.2450 -0.5114
 4349W        W21197  13.435  10.379   2.395  0.2303 -0.1710 -0.2068
 4350W        W21198   4.693  11.972  10.904 -0.1397  0.1036 -0.1682
 4351W        W21199  14.743   7.234   1.509  0.2540  0.1295  0.2518
 4352W        W21200   7.338  11.431   4.261 -0.1847 -0.1019 -0.1524
 4353W        W21201  15.135  16.151  15.870  0.0238  0.1858 -0.0893
 4354W        W21202   9.655  16.718  15.025  0.1421  0.1470 -0.4107
 4355W        W21203   9.658   2.769  12.827 -0.2688  0.0394  0.0168
 4356W        W21204   9.839  12.774   0.772 -0.0077  0.4668  0.0982
 4357W        W21205  10.216  13.739  14.391 -0.3112  0.1955  0.1998
 4358W        W21206  12.876   7.196   0.031  0.1042  0.2699 -0.1002
 4359W        W21207  10.120   3.909  13.469  0.2651 -0.3068  0.2344
 4360W        W21208   0.616   5.623   5.139 -0.2086  0.2602  0.1085
 4361W        W21209  10.722   5.709  13.851  0.1804  0.0343 -0.1870
 4362W        W21210   0.742   6.428   4.238 -0.0634 -0.2004 -0.0812
 4363W        W21211  15.478  15.098  11.845  0.0448 -0.1405 -0.1403
 4364W        W21212   7.834   4.483   1.797  0.0316  0.2131  0.0763
 4365W        W21213   3.467  13.643  11.962  0.0404 -0.3214 -0.1498
 4366W        W21214  10.059   0.229  11.012  0.0974 -0.1333  0.2528
 4367W        W21215  17.846   2.029  12.133  0.0895 -0.0352 -0.1855
 4368W        W21216  15.036  12.515  14.200 -0.2445  0.0727  0.3292
 4369W        W21217   6.829   8.810  14.767  0.0580  0.1359 -0.1179
 4370W        W21218   8.283  17.316  11.596 -0.1683 -0.0551  0.0790
 4371W        W21219   6.765   3.934   3.638  0.0671  0.1850 -0.2595
 4372W        W21220   3.197   4.409  12.590 -0.0403 -0.1977  0.1896
 4373W        W21221   5.515  16.811   4.573  0.3343 -0.0113  0.0340
 4374W        W21222   4.015  11.919   2.012  0.1340 -0.2366 -0.1459
 4375W        W21223   0.515  14.583   0.410 -0.0575  0.2902  0.0038
 4376W        W21224  17.367  12.983   2.877 -0.0630 -0.1009  0.1909
 4377W        W21225  16.421  10.623   6.450  0.4909  0.1576 -0.0152
 4378W        W21226   7.503   0.225  11.478  0.0553 -0.1741 -0.0183
 4379W        W21227  13.500   8.341  12.306 -0.0498 -0.0852  0.1500
 4380W        W21228   3.712  13.612  12.501 -0.0905 -0.4803  0.1247
 4381W        W21229   5.957  17.540  11.969 -0.0845  0.0465  0.0139
 4382W        W21230   6.378  15.174  10.128  0.1544  0.2652  0.1667
 4383W        W21231   7.173   4.406   0.907  0.2504  0.3071 -0.0278
 4384W        W21232   0.846  14.362  11.532  0.1194 -0.1376  0.0534
 4385W        W21233   6.836   1.803  12.554 -0.1582  0.0860 -0.2051
 4386W        W21234   6.790  14.750  11.876  0.0367 -0.0259  0.1998
 4387W        W21235  15.420  12.750   5.658 -0.4114  0.0956  0.1493
 4388W        W21236  14.898  11.204  15.517  0.1035  0.0880  0.0178
 4389W        W21237  11.101  10.189   1.533 -0.2211 -0.1220  0.1923
 4390W        W21238  13.068   1.553  15.947  0.2884  0.2904 -0.1577
 4391W        W21239  17.954   6.806   5.170  0.0308  0.0131 -0.0236
 4392W        W21240  16.474  13.176  14.117 -0.0361 -0.1519 -0.1149
 4393W        W21241  10.863  10.578  12.655  0.2322  0.0884 -0.0923
 4394W        W21242   6.928   1.225   5.185  0.4349  0.0813  0.0146
 4395W        W21243  12.875  16.862  13.920  0.2665 -0.3306  0.4481
 4396W        W21244   0.349   5.748   2.325  0.2880 -0.1521 -0.1382
 4397W        W21245   5.903   7.976  14.129  0.1692  0.2768  0.2758
 4398W        W21246  15.925   1.674  11.084  0.1521 -0.1094  0.0055
 4399W        W21247   0.366   5.989  12.427  0.0925  0.1079  0.0925
 4400W        W21248  16.065   7.452  14.956 -0.0805  0.1714 -0.1328
 4401W        W21249  14.705   5.972   2.550  0.2710  0.0278  0.3525
 4402W        W21250  15.814   2.050   0.760 -0.2514 -0.1180 -0.0749
 4403W        W21251   9.896  15.059   3.056  0.0283 -0.1053  0.2972
 4404W        W21252   1.499  16.176   2.065  0.2618 -0.1144  0.0944
 4405W        W21253  12.167  12.835  11.503  0.2489  0.2850  0.0086
 4406W        W21254   7.232  12.379  11.102 -0.2481  0.0439 -0.1353
 4407W        W21255  16.667   5.007   3.610 -0.0952  0.0530  0.1260
 4408W        W21256  10.300   8.733   5.035 -0.1086  0.0228  0.4441
 4409W        W21257  15.353   4.624   0.819 -0.0182  0.3325  0.2599
 4410W        W21258   3.942  10.215  13.267 -0.0976  0.1313  0.0403
 4411W        W21259   2.014  10.570  13.485  0.2387  0.0041 -0.2704
 4412W        W21260  12.647  16.838  15.227  0.0478  0.1806 -0.4458
 4413W        W21261  10.042  17.708   2.738  0.3417 -0.0485 -0.2240
 4414W        W21262   7.487   3.434   3.273 -0.1800 -0.0852 -0.5197
 4415W        W21263  13.380   7.808  13.462  0.1132  0.0596  0.1394
 4416W        W21264  16.700  14.892  12.593 -0.1674 -0.1011  0.2204
 4417W        W21265   6.795   2.821  15.311  0.2000 -0.2047  0.0348
 4418W        W21266   0.248  15.407  13.381  0.1408 -0.2256  0.0564
 4419W        W21267   4.654   4.830   1.659 -0.0014  0.2783  0.1985
 4420W        W21268   7.843  12.973  12.368 -0.2452 -0.3168  0.3391
 4421W        W21269  16.205  16.867  14.728 -0.0112  0.1211 -0.0627
 4422W        W21270   5.666  15.603  15.021 -0.2165 -0.1303  0.0090
 4423W        W21271  14.925  12.496  12.617 -0.0763 -0.1750 -0.2010
 4424W        W21272  13.833  11.408   1.020  0.0273  0.1611  0.1068
 4425W        W21273   0.217   1.370  13.533  0.0059 -0.1426  0.1717
 4426W        W21274  10.843  14.900  12.508 -0.1484  0.2959  0.0459
 4427W        W21275   5.208   7.046   0.983  0.0633 -0.1415  0.1508
 4428W        W21276   7.672   1.182   0.367  0.0890 -0.3498 -0.0440
 4429W        W21277  14.116   1.944  11.267  0.2087  0.1646  0.1740
 4430W        W21278  13.586  16.420   2.464 -0.0035  0.2668  0.0707
 4431W        W21279  12.479   0.723  12.426  0.0077  0.0636  0.2198
 4432W        W21280   3.510   4.000  15.481 -0.0190 -0.0371  0.1611
 4433W        W21281  12.407  10.590  12.154  0.0716  0.1911 -0.1011
 4434W        W21282   3.002  12.958  15.294 -0.1915 -0.0838 -0.0484
 4435W        W21283  11.787   6.511  12.725 -0.0952  0.2588 -0.1670
 4436W        W21284   8.874   5.110   2.304  0.0362 -0.1624 -0.0087
 4437W        W21285   2.945   2.283   1.433  0.1302 -0.0624 -0.0137
 4438W        W21286   8.103   3.600   2.778  0.0924 -0.2993  0.4353
 4439W        W21287   8.823   4.239  14.237 -0.1674 -0.2784  0.0349
 4440W        W21288   2.516   3.125  12.985  0.1369  0.0672  0.0120
 4441W        W21289  16.925   8.110  11.597  0.1177  0.2212 -0.2893
 4442W        W21290  17.287  16.249  13.528  0.3955 -0.4540 -0.2162
 4443W        W21291  12.437  10.417   2.811  0.0501 -0.0831 -0.1672
 4444W        W21292  15.822   0.274   4.360  0.1329  0.0869 -0.2683
 4445W        W21293   6.070  17.943   1.981  0.0625  0.0939  0.0165
 4446W        W21294   9.220   2.995   4.216 -0.0199 -0.2433  0.1070
 4447W        W21295  14.530   4.982   4.006 -0.1558  0.3423 -0.0316
 4448W        W21296  10.034   9.263   0.791  0.0836 -0.2951 -0.1599
 4449W        W21297   1.081   2.378  11.258 -0.2148  0.0007  0.0213
 4450W        W21298  10.478   8.579   4.595  0.0865 -0.0688  0.1556
 4451W        W21299   3.449  16.274   4.448 -0.3526 -0.3276  0.1007
 4452W        W21300   0.391  10.597   5.225  0.2091  0.0209 -0.0976
 4453W        W21301  11.174   8.674   2.592  0.1954 -0.2102 -0.0634
 4454W        W21302  16.938   7.380  14.517 -0.0753  0.1867 -0.0432
 4455W        W21303   2.803   4.760  14.042  0.0572  0.0560 -0.0905
 4456W        W21304   3.771  10.261   5.286 -0.1665 -0.2960 -0.1656
 4457W        W21305   5.445  13.441  15.908  0.0284 -0.1059 -0.0334
 4458W        W21306   3.536   1.567   3.480  0.1482  0.0210  0.1399
 4459W        W21307   4.427  10.756  13.145  0.3978  0.0850  0.2204
 4460W        W21308   7.894   3.174  12.098 -0.1550 -0.0088 -0.1306
 4461W        W21309   7.730   8.390   0.975 -0.2610 -0.0697 -0.5306
 4462W        W21310  14.967   9.835   3.725  0.3951  0.0208 -0.1134
 4463W        W21311  15.486   4.495  13.896 -0.1133 -0.0250  0.1382
 4464W        W21312   9.870   3.100  13.125 -0.1340  0.1455  0.2142
 4465W        W21313  10.551  15.650  16.071  0.0414 -0.1010 -0.4395
 4466W        W21314   9.329   5.276  12.300  0.1783 -0.6091 -0.2123
 4467W        W21315   5.549  15.908  15.331  0.3614  0.0441 -0.2057
 4468W        W21316   5.056   3.127  11.770  0.1968 -0.2123 -0.2175
 4469W        W21317   6.949   3.013  12.134 -0.1541  0.0401 -0.1516
 4470W        W21318  15.285   5.679  14.970 -0.0278 -0.0981  0.0582
 4471W        W21319  16.432   5.069  13.421 -0.1088  0.2510  0.2697
 4472W        W21320   0.357  16.084   3.415 -0.0645  0.1438 -0.1477
 4473W        W21321  11.888   9.365   0.728 -0.1285  0.1502  0.0263
 4474W        W21322   7.701  11.329  11.795  0.2284  0.0241  0.2186
 4475W        W21323   7.292  13.252  14.943  0.0790 -0.0212 -0.1291
 4476W        W21324  16.638   1.546   1.531 -0.1425 -0.0046 -0.2340
 4477W        W21325  15.424   9.094  13.407  0.2418 -0.1848 -0.2285
 4478W        W21326   6.859  17.777  11.044  0.2832  0.2588  0.2884
 4479W        W21327  17.991  15.437   1.427  0.1159 -0.1293  0.1304
 4480W        W21328   9.348   8.874   2.576  0.0502 -0.3126  0.0803
 4481W        W21329  18.052   2.392   1.237  0.2146 -0.0374 -0.2008
 4482W        W21330  17.792  10.652   4.771 -0.0936 -0.2888 -0.1367
 4483W        W21331  17.634  11.652   3.936  0.0036  0.2318 -0.0329
 4484W        W21332   2.872  16.059  10.475  0.3255 -0.0561 -0.1770
 4485W        W21333  12.343   8.234  15.268  0.2254  0.0033  0.0622
 4486W        W21334  17.974   2.916   3.009 -0.2436  0.0432 -0.0799
 4487W        W21335  15.864  14.881  15.900 -0.1439  0.1375 -0.1424
 4488W        W21336   9.392  13.190  10.040  0.1084  0.2131 -0.1320
 4489W        W21337  10.655  14.824   0.371 -0.4097  0.2124  0.1191
 4490W        W21338   7.226   6.983   4.042 -0.0045 -0.1518  0.2891
 4491W        W21339  17.938  11.461   1.704 -0.1413 -0.0115  0.1047
 4492W        W21340  10.579  11.617   3.827 -0.4500 -0.2304  0.2280
 4493W        W21341   8.775   6.108   2.117  0.2890 -0.3501  0.5944
 4494W        W21342   8.454  11.411  14.630  0.1649 -0.1925 -0.0103
 4495W        W21343   1.126  16.808  15.238 -0.0831  0.0374  0.1796
 4496W        W21344   3.419   6.599  15.512  0.2766 -0.0181  0.0413
 4497W        W21345   0.456   3.502  15.987 -0.1365 -0.2469  0.0288
 4498W        W21346  11.246  15.048   1.831 -0.1671  0.0442 -0.0157
 4499W        W21347   4.717   6.626  13.184  0.4061  0.3590 -0.0429
 4500W        W21348   8.685   9.553   0.644 -0.2211  0.1601 -0.2226
 4501W        W21349  17.959  15.249   0.487 -0.1372  0.4528 -0.0018
 4502W        W21350  12.358  10.188  14.698  0.0167  0.0871  0.0156
 4503W        W21351  10.927   3.640   4.258 -0.0221 -0.3681  0.0660
 4504W        W21352  16.780   4.256  12.504 -0.3330 -0.2540  0.0990
 4505W        W21353  13.326   2.080   4.688 -0.0489 -0.2087 -0.1228
 4506W        W21354  10.642  10.199   5.707  0.0844 -0.1998 -0.3138
 4507W        W21355  10.893   6.348   3.813 -0.1088 -0.1292  0.3832
 4508W        W21356  13.021   1.457  13.341 -0.0184 -0.4982  0.0361
 4509W        W21357  16.541  16.294   4.349 -0.2289 -0.2543  0.0866
 4510W        W21358   4.360  17.232   1.253  0.0601  0.0816 -0.0819
 4511W        W21359   5.796  16.804   5.069 -0.2874 -0.0757 -0.3488
 4512W        W21360   6.341  10.311  13.302  0.0035 -0.0804  0.0407
 4513W        W21361  16.802   9.879   2.754  0.4702  0.0318 -0.2169
 4514W        W21362  10.637   8.082  11.835 -0.1194  0.0015  0.1638
 4515W        W21363  11.529  14.927  14.620  0.0923 -0.0529 -0.0478
 4516W        W21364   6.268   6.312  14.115  0.2702 -0.3271  0.1320
 4517W        W21365  13.040   3.956   0.433 -0.1587 -0.1537  0.0422
 4518W        W21366   1.690   0.863  13.458  0.2068  0.0590  0.0872
 4519W        W21367   0.469  16.506  10.915  0.0338 -0.1438 -0.1180
 4520W        W21368  15.669   5.252   5.272  0.0620  0.1508 -0.2474
 4521W        W21369  11.779   5.869  15.140 -0.1952 -0.1554 -0.6113
 4522W        W21370   4.284   9.828  13.415  0.0630 -0.1790  0.0008
 4523W        W21371  13.013  13.588  10.566  0.1677  0.0165  0.0633
 4524W        W21372   7.093   0.422   4.899  0.4526 -0.1907 -0.1623
 4525W        W21373   4.175  10.254   5.027 -0.1505 -0.2203 -0.1547
 4526W        W21374   9.190   3.931   1.116 -0.2581 -0.1371 -0.1473
 4527W        W21375   3.943  15.567  12.814 -0.2635  0.2602 -0.0471
 4528W        W21376  13.658  17.835   3.387  0.1711 -0.2678  0.0090
 4529W        W21377   9.397   6.757   1.934 -0.1051 -0.0230 -0.2558
 4530W        W21378   8.716  12.805  13.605  0.1360  0.2417 -0.0600
 4531W        W21379   4.431   4.871   0.663  0.1607 -0.0453 -0.0833
 4532W        W21380   4.545  10.434   4.763  0.1374 -0.3332 -0.2132
 4533W        W21381   4.897  11.360  15.621 -0.0305  0.0688  0.1258
 4534W        W21382   0.230   4.446  12.972 -0.0044 -0.1983  0.2742
 4535W        W21383  17.455   7.039   3.329  0.1460  0.0500 -0.1752
 4536W        W21384  11.452  10.514   1.284  0.2664 -0.0534  0.3786
 4537W        W21385   5.958  17.034   2.256 -0.1539 -0.0856  0.0963
 4538W        W21386  17.781   9.465   4.242 -0.2060  0.2116  0.0018
 4539W        W21387   7.151  13.871   0.528 -0.2248 -0.2672  0.3264
 4540W        W21388   3.230  13.978   0.833  0.0858  0.1478 -0.0574
 4541W        W21389  14.421  16.237   3.961  0.1638  0.2493 -0.5606
 4542W        W21390  13.926   6.611   1.710  0.0990 -0.0157 -0.0347
 4543W        W21391  15.374  10.779   0.157  0.0253 -0.1219  0.0090
 4544W        W21392   8.552   4.703  13.121  0.4191 -0.0113  0.2332
 4545W        W21393   7.480   5.014   2.448  0.0512  0.2376  0.3178
 4546W        W21394  12.018   8.594   1.410  0.0478  0.0391  0.1040
 4547W        W21395   2.192  18.194   0.089  0.0295 -0.2251  0.1498
 4548W        W21396   1.521   7.770  11.929  0.1797  0.1247 -0.1145
 4549W        W21397   5.295  16.828   3.173  0.1438  0.1658  0.0353
 4550W        W21398   4.269  13.629   3.170  0.3598  0.1075  0.1769
 4551W        W21399   5.358   0.725  14.605 -0.2099  0.0978 -0.1141
 4552W        W21400  15.183   5.305   5.073  0.1811  0.2056 -0.3457
 4553W        W21401   4.653   1.921   3.654  0.1866 -0.0634  0.1693
 4554W        W21402   2.174  15.660  10.881  0.1659  0.0818  0.2802
 4555W        W21403   2.257   0.996  14.522 -0.3989 -0.1656  0.0762
 4556W        W21404  16.339  14.214  11.029  0.0578 -0.1723 -0.0436
 4557W        W21405   8.221   3.512  15.926  0.0986 -0.1290 -0.1572
 4558W        W21406  15.218   4.379  13.403 -0.2115  0.0719 -0.0802
 4559W        W21407   7.898  10.392   4.175 -0.0070 -0.1307 -0.3110
 4560W        W21408  14.508  11.920  12.177  0.0598 -0.2183  0.1278
 4561W        W21409   0.863   7.478  15.024 -0.2781  0.1634 -0.1322
 4562W        W21410   4.807   1.694  13.808 -0.0104  0.0092  0.0354
 4563W        W21411   7.001   3.013  11.225 -0.0961 -0.0820  0.1872
 4564W        W21412  10.633  16.832   3.327 -0.1027  0.1166  0.0588
 4565W        W21413   7.153   0.636  14.668  0.0965 -0.1361 -0.0395
 4566W        W21414  13.450  14.772   4.130 -0.3376 -0.3591  0.2226
 4567W        W21415   5.202   1.739  16.107  0.0663 -0.3276  0.0181
 4568W        W21416   1.566  10.228   0.737  0.0423 -0.3498  0.2148
 4569W        W21417   5.456  10.699   0.594  0.2211 -0.1981  0.1023
 4570W        W21418  13.979  16.481   4.058  0.0782  0.0162  0.0214
 4571W        W21419  16.608   7.861  15.704  0.1918  0.0806 -0.1857
 4572W        W21420  13.609   7.352  13.685 -0.0336 -0.1390 -0.0232
 4573W        W21421   0.207  16.911   1.389  0.2171 -0.3544 -0.1809
 4574W        W21422   2.719  12.362  14.539  0.0488  0.3165  0.1745
 4575W        W21423   7.381   1.746  15.343  0.1367  0.0747 -0.0632
 4576W        W21424   0.488  12.666  11.050  0.2746 -0.3414 -0.0161
 4577W        W21425  14.132  18.112   1.152 -0.1288 -0.2845  0.0795
 4578W        W21426   8.481   5.458  13.710 -0.0869 -0.0522  0.0177
 4579W        W21427   9.791   1.832   4.786  0.0588 -0.0361 -0.1752
 4580W        W21428  10.742   5.487   0.958 -0.1019  0.4262  0.1771
 4581W        W21429  13.289  17.456  14.538 -0.0618 -0.0455 -0.0228
 4582W        W21430   1.184   5.343  14.505 -0.2992 -0.3741  0.1825
 4583W        W21431  17.527   8.303  15.043  0.1140 -0.2772  0.1662
 4584W        W21432  12.505   3.074  11.320 -0.1333 -0.0753  0.1205
 4585W        W21433  15.430   4.279  14.831  0.0123  0.1087  0.0052
 4586W        W21434   3.039   5.794   3.616  0.1685  0.1385  0.1198
 4587W        W21435   5.082  16.250  10.991  0.3442 -0.1972 -0.0458
 4588W        W21436  11.450   8.943   4.607 -0.2589  0.2150 -0.1365
 4589W        W21437   5.824  16.677  12.509  0.0080 -0.4931 -0.0097
 4590W        W21438   2.819   2.324   0.030 -0.3617  0.3160  0.0883
 4591W        W21439  17.663  15.521  11.704 -0.0828  0.1144  0.1674
 4592W        W21440  15.100  14.846   4.521 -0.2497 -0.1133 -0.3236
 4593W        W21441   9.268  12.881  14.510  0.1013 -0.0603  0.0514
 4594W        W21442   4.047  11.646  13.480  0.0889 -0.3163 -0.3564
 4595W        W21443   9.759  17.702  11.581 -0.2687 -0.3804  0.4815
 4596W        W21444  12.628   6.589   0.863  0.0957 -0.1020 -0.1084
 4597W        W21445  17.099   3.206   0.904  0.0914  0.0796  0.0112
 4598W        W21446   2.414  12.973   2.589 -0.1177 -0.1541 -0.1330
 4599W        W21447   5.636   0.294  13.601 -0.1647  0.0916  0.0232
 4600W        W21448   6.911  17.660  11.730  0.1245  0.0311  0.2734
 4601W        W21449   5.230  15.268  12.702 -0.0120 -0.2227 -0.3717
 4602W        W21450   8.268   2.753   4.889  0.0095 -0.0542 -0.0013
 4603W        W21451  10.245  17.573   3.353 -0.2112  0.2034  0.1303
 4604W        W21452  17.405   2.128   1.707 -0.4158  0.0173  0.3508
 4605W        W21453   6.185  17.165  14.638 -0.0662 -0.2720 -0.0444
 4606W        W21454   7.149   3.919  13.885  0.0448  0.1157  0.4319
 4607W        W21455   0.575   1.429   3.255  0.0905  0.1274  0.0733
 4608W        W21456   2.446  13.081  15.117 -0.0835 -0.0679 -0.1902
 4609W        W21457  11.333   2.198  12.764  0.0558 -0.1311  0.2011
 4610W        W21458  13.132  14.426   3.255  0.0702 -0.0197  0.1150
 4611W        W21459  17.086   3.130  14.165  0.2522 -0.0906 -0.2307
 4612W        W21460  11.649   1.922  12.442  0.0748 -0.1371 -0.0317
 4613W        W21461   0.949   8.825   2.492  0.1471  0.0917 -0.1619
 4614W        W21462   3.807   8.617   4.970  0.0493 -0.0782  0.2580
 4615W        W21463  14.433   0.295   2.457 -0.1514  0.1372 -0.1721
 4616W        W21464   9.515   0.884  15.334  0.0843 -0.0507 -0.0567
 4617W        W21465  13.551   1.283   3.310  0.2568  0.2387 -0.1311
 4618W        W21466   7.635   2.744  14.167  0.1139  0.2639 -0.0079
 4619W        W21467   5.569   5.972  14.814 -0.2334  0.2735  0.1623
 4620W        W21468  10.668  10.525   3.747 -0.0084 -0.0288  0.1546
 4621W        W21469  15.682   2.709   1.369  0.1639  0.0181 -0.0616
 4622W        W21470  11.309   6.948   2.406 -0.0378 -0.3653 -0.0926
 4623W        W21471   0.981  16.853   5.671  0.0036 -0.3143 -0.2910
 4624W        W21472   0.467   5.203  14.105  0.2602  0.0097 -0.2554
 4625W        W21473  10.096   2.903  11.374 -0.1874 -0.5114  0.2535
 4626W        W21474  14.753   8.699   1.999  0.1734 -0.1261  0.0088
 4627W        W21475  15.807   5.393  11.561 -0.0552  0.1511 -0.1531
 4628W        W21476  13.586   3.265   0.808  0.0513  0.1506 -0.0956
 4629W        W21477  13.380   6.486  10.732 -0.0340 -0.3387 -0.1155
 4630W        W21478  16.004  13.337  15.140 -0.0767  0.0302  0.1816
 4631W        W21479   5.533   4.363  15.178 -0.1586 -0.0080  0.0383
 4632W        W21480   3.246   3.188  11.996 -0.1351  0.2821  0.0693
 4633W        W21481   4.783   9.095   4.927 -0.0287 -0.1106 -0.0613
 4634W        W21482   4.492   3.422   4.968  0.0390 -0.1198 -0.0262
 4635W        W21483   8.360   2.426  11.820 -0.0400  0.2171  0.3319
 4636W        W21484  13.795   4.518  15.842  0.4533 -0.0166 -0.3385
 4637W        W21485  16.318   8.498   4.116  0.1484 -0.0887  0.0595
 4638W        W21486   3.854   2.659  13.432  0.1550 -0.1591  0.1982
 4639W        W21487  12.091  16.644  15.116 -0.2223  0.0126 -0.0533
 4640W        W21488   2.720   3.660   3.514  0.0705  0.0669  0.0022
 4641W        W21489  17.505  10.274   1.492  0.0101  0.0303  0.1149
 4642W        W21490   6.233   2.851  14.988 -0.1024  0.0888 -0.0809
 4643W        W21491  10.991   5.937  12.868  0.0250  0.0495  0.4743
 4644W        W21492  15.215  12.976  14.269  0.1859 -0.0448  0.3465
 4645W        W21493   0.989  11.570   1.188  0.0352  0.2152  0.0421
 4646W        W21494   5.657   5.207   2.569  0.3500 -0.0167  0.2977
 4647W        W21495   9.128  16.879   1.387 -0.0948  0.0118 -0.0011
 4648W        W21496  17.104   9.927  10.886 -0.2112 -0.1047 -0.3090
 4649W        W21497  16.174   0.713  14.367  0.1874 -0.1083 -0.4642
 4650W        W21498  13.952  14.462  12.005  0.6471 -0.1100 -0.2210
 4651W        W21499  10.870   9.940   0.566  0.1618  0.1072 -0.2841
 4652W        W21500   7.710   3.702  11.448 -0.0005  0.4215 -0.0348
 4653W        W21501   1.740  15.331   6.010  0.1275  0.2386  0.2627
 4654W        W21502   1.977   4.315   4.925  0.0709 -0.3202  0.0576
 4655W        W21503   9.131   8.772   1.575 -0.0832 -0.0693  0.2456
 4656W        W21504  14.732   9.079   0.905 -0.1293  0.0048  0.0020
 4657W        W21505   0.316   0.876   3.869 -0.1720 -0.0187 -0.1805
 4658W        W21506  17.279  11.076  11.062 -0.0860 -0.1916  0.2115
 4659W        W21507   1.487   9.124   0.243  0.0284  0.3089  0.0642
 4660W        W21508  13.673  12.181   0.553  0.2593 -0.1538  0.0038
 4661W        W21509  10.891   7.091  14.964  0.2048  0.1318 -0.2045
 4662W        W21510   9.404  13.645  11.308 -0.0631 -0.0642  0.1132
 4663W        W21511   8.709  16.342   5.664  0.4199 -0.1999  0.0857
 4664W        W21512  10.027   5.317  15.991 -0.0905 -0.0401 -0.1861
 4665W        W21513   9.895   2.836  13.727 -0.1149  0.1271 -0.2672
 4666W        W21514   6.176  10.099   1.448 -0.1004 -0.0950 -0.5869
 4667W        W21515   3.966   8.131   3.665 -0.1539 -0.4091  0.2083
 4668W        W21516  16.349   3.918   3.388  0.0341 -0.3169 -0.3324
 4669W        W21517   1.056  13.119   0.389  0.2187  0.2026  0.1098
 4670W        W21518  15.100   2.950  15.240 -0.0624 -0.1136 -0.1297
 4671W        W21519  16.782  17.957   0.275 -0.1391 -0.1895  0.1428
 4672W        W21520   0.221   5.577   0.227  0.2217  0.5559 -0.1186
 4673W        W21521   9.868  16.963  14.419  0.0086 -0.3676 -0.1869
 4674W        W21522   8.815   8.477  13.482  0.4082 -0.0869  0.1884
 4675W        W21523   0.874  11.638  15.868  0.0798 -0.1191  0.0062
 4676W        W21524  12.190  13.908  12.449  0.1632 -0.0122 -0.1337
 4677W        W21525   2.351  10.244   4.281  0.0131  0.0898  0.2439
 4678W        W21526   5.728   0.908  11.986  0.1112  0.0391 -0.1491
 4679W        W21527  12.028  15.946  13.532 -0.2398 -0.0458  0.2987
 4680W        W21528  14.273  12.136  15.861 -0.2408  0.1466 -0.0332
 4681W        W21529  16.880  11.935   0.061 -0.2058 -0.2769 -0.0625
 4682W        W21530  12.660   3.799   1.346  0.2998  0.1175  0.0586
 4683W        W21531   2.178  15.754   0.754 -0.0183 -0.0797 -0.0412
 4684W        W21532   9.068  15.795  12.833 -0.0611 -0.0480  0.2909
 4685W        W21533   9.017  11.709  15.791  0.3427  0.0082  0.0952
 4686W        W21534   7.333   6.872   2.773  0.1263 -0.2132 -0.1884
 4687W        W21535   7.495  12.289   3.586  0.1260  0.2577  0.1210
 4688W        W21536   0.443   3.359   1.656 -0.3399  0.1295  0.0009
 4689W        W21537  10.995   3.612   2.207 -0.1143 -0.0087  0.0827
 4690W        W21538   3.024   6.514  15.870 -0.0651 -0.0619  0.1503
 4691W        W21539  15.230  16.586   3.768 -0.0407 -0.1027  0.1635
 4692W        W21540  14.773   6.690   1.368  0.0409 -0.1087  0.1475
 4693W        W21541   4.091  12.135  11.832 -0.1468 -0.0246  0.1825
 4694W        W21542  16.238   3.395  14.028 -0.3045 -0.0652  0.0581
 4695W        W21543  13.898  11.354  11.881  0.0157 -0.1128  0.1372
 4696W        W21544  16.198  15.448  12.130 -0.0051  0.3937 -0.1481
 4697W        W21545  16.222   2.805  13.608 -0.1019 -0.0553 -0.2089
 4698W        W21546   3.921  16.679  14.192 -0.0718  0.0920  0.1746
 4699W        W21547  16.953  15.645   2.527 -0.1873 -0.2940 -0.2147
 4700W        W21548   8.281  10.788  15.884  0.0388 -0.1367 -0.2179
 4701W        W21549  12.560   5.303  14.634 -0.1986 -0.0133  0.3425
 4702W        W21550   4.194  11.629  14.948 -0.1228  0.1896  0.0242
 4703W        W21551   3.332  12.573   1.941 -0.1187 -0.0859  0.1358
 4704W        W21552   8.924   4.436  11.880 -0.0293  0.0199  0.2221
 4705W        W21553   4.267  12.925  14.604  0.0231 -0.3101  0.0157
 4706W        W21554  17.310   0.013   2.391  0.1067 -0.2465 -0.1296
 4707W        W21555  12.414  16.751  12.890 -0.0890 -0.1850  0.1031
 4708W        W21556   9.250   6.741   4.742 -0.0558 -0.1524  0.0267
 4709W        W21557   5.710  15.868   1.854  0.0092  0.0475  0.2065
 4710W        W21558   9.076  18.062   1.782  0.2934 -0.5153 -0.0427
 4711W        W21559  10.420  11.577   0.139  0.1625 -0.2368 -0.0766
 4712W        W21560  11.745  16.694  14.185  0.0224 -0.0935  0.0152
 4713W        W21561   3.165  16.067   0.595  0.1904  0.2762  0.2550
 4714W        W21562  14.870   7.349  14.921 -0.0517  0.2385  0.0401
 4715W        W21563   3.485   3.281   0.210  0.1987  0.0975  0.0350
 4716W        W21564   4.897   4.024   4.637 -0.2972 -0.1168  0.1204
 4717W        W21565   5.744  12.109   0.402 -0.1523  0.0211 -0.0510
 4718W        W21566   4.990  12.454  14.260 -0.0627 -0.0531  0.1826
 4719W        W21567  13.100   1.336   1.950  0.0752 -0.0048 -0.3140
 4720W        W21568   4.048   0.051   2.267 -0.2061  0.0133  0.1565
 4721W        W21569  17.030  18.130  13.788 -0.2530 -0.0106 -0.0100
 4722W        W21570   6.339   2.741  14.477 -0.1481  0.1126  0.3727
 4723W        W21571   2.750   8.296   4.394 -0.1122  0.1704  0.1405
 4724W        W21572   9.687   6.375  14.602 -0.2908 -0.1577  0.1313
 4725W        W21573  15.938  12.419   4.830 -0.0911 -0.1933 -0.0151
 4726W        W21574   3.136   5.942  16.117  0.2028  0.0441  0.0754
 4727W        W21575   0.775  15.982   4.651  0.0683 -0.0569  0.0316
 4728W        W21576  18.093  13.231  13.899  0.2137 -0.1507 -0.0885
 4729W        W21577   4.398  10.532   0.410  0.1389 -0.0089 -0.2334
 4730W        W21578  12.623   1.047   0.556 -0.0040 -0.0988  0.0576
 4731W        W21579   8.453   3.121   3.408 -0.0124 -0.2953 -0.0106
 4732W        W21580   8.046   6.728   0.310 -0.0668  0.0480 -0.0347
 4733W        W21581  16.360   8.547  11.778 -0.0812 -0.1017  0.2163
 4734W        W21582   0.993   0.545  12.653  0.1916 -0.2851  0.1816
 4735W        W21583  16.854   5.786  13.959  0.1184 -0.2283 -0.0926
 4736W        W21584  18.179  14.334   1.236 -0.2021  0.0276  0.1629
 4737W        W21585  11.176  13.426  11.230 -0.1357 -0.2442 -0.1270
 4738W        W21586   0.402   2.893   4.719  0.0788  0.0741 -0.3109
 4739W        W21587   5.318   2.777  12.068 -0.2788  0.0164 -0.4737
 4740W        W21588  10.771  17.883   4.848  0.3095  0.3236 -0.1962
 4741W        W21589  13.032   8.425  14.440 -0.1003  0.0655 -0.1802
 4742W        W21590   8.579  10.039   3.534  0.0602 -0.0797  0.2822
 4743W        W21591  14.479  13.040   5.841 -0.1121 -0.2461 -0.0589
 4744W        W21592   7.958   3.199   2.580 -0.0385  0.1537 -0.0430
 4745W        W21593  17.711   3.199  10.617  0.1070  0.1895 -0.1485
 4746W        W21594  15.532  11.404   1.590 -0.1052  0.1205  0.1317
 4747W        W21595   1.775   4.167  13.787  0.3610 -0.3447  0.2707
 4748W        W21596   4.091   6.467   4.777 -0.2478  0.3957 -0.0529
 4749W        W21597   5.703   8.919  12.669  0.0392  0.0203 -0.0350
 4750W        W21598   9.216   2.552   4.397  0.2179  0.1249 -0.0874
 4751W        W21599  17.370  16.392   4.988  0.0009 -0.1279 -0.3761
 4752W        W21600  14.193   4.557  15.450  0.1049 -0.4058 -0.2800
 4753W        W21601   8.554   2.392   4.596 -0.0475 -0.0679  0.0391
 4754W        W21602   1.725  10.852  12.600 -0.3488  0.0388 -0.2134
 4755W        W21603   6.599  17.829   4.572  0.4236  0.1142 -0.4390
 4756W        W21604  10.581  15.486   0.940 -0.1388 -0.0494 -0.1634
 4757W        W21605   2.745  17.072  13.412 -0.2007 -0.2833  0.1245
 4758W        W21606   9.870   2.038   0.801  0.0998  0.0945 -0.0261
 4759W        W21607  17.435   0.067  13.505 -0.2443  0.2793  0.0139
 4760W        W21608  17.144   3.482   0.006  0.2146  0.1432  0.1380
 4761W        W21609   9.173  13.340  15.106  0.0263 -0.4181  0.0902
 4762W        W21610   6.438   3.162   3.959  0.0795 -0.0629 -0.1676
 4763W        W21611  14.516  15.178  14.088 -0.2499 -0.1664  0.2273
 4764W        W21612  15.988   6.277  11.320 -0.1406 -0.2683  0.3151
 4765W        W21613   0.556  10.297  15.181 -0.1791 -0.2509  0.2115
 4766W        W21614  16.643  11.161  12.148 -0.2276  0.3619 -0.0854
 4767W        W21615   9.248  11.170   4.397  0.1267 -0.0912  0.3545
 4768W        W21616   4.921   5.289   4.710  0.0523  0.0567 -0.0145
 4769W        W21617   6.345   0.328   4.083 -0.3011  0.3056  0.1590
 4770W        W21618  10.360   8.510  11.925 -0.3432  0.1082 -0.0857
 4771W        W21619  16.147  10.711  15.971 -0.2035 -0.0993 -0.2112
 4772W        W21620  11.926   2.203  15.467 -0.2269  0.0345 -0.1881
 4773W        W21621   4.658  13.528   0.826 -0.0396 -0.0583 -0.2524
 4774W        W21622  13.867   1.948  16.072  0.0020 -0.1520  0.0917
 4775W        W21623  13.103  13.531  14.728  0.0091  0.0284  0.1254
 4776W        W21624  10.030   3.648  14.227 -0.1866 -0.3854 -0.1596
 4777W        W21625  15.857  12.828  10.408 -0.1321  0.0805 -0.1098
 4778W        W21626   6.254   0.765  15.336  0.0539 -0.1338  0.2901
 4779W        W21627   8.228  14.844   2.482  0.2582 -0.2060 -0.0657
 4780W        W21628   6.913   4.463  15.253  0.0986  0.2773 -0.0165
 4781W        W21629  14.319  13.582  11.914  0.0145 -0.0395  0.1297
 4782W        W21630   2.192  11.528  14.663  0.1508  0.0458  0.1417
 4783W        W21631   2.859  14.366   2.663  0.2398  0.0138 -0.0924
 4784W        W21632   0.544   5.855  12.022  0.0181 -0.2169  0.2897
 4785W        W21633   1.125   6.220  14.808 -0.0250  0.2996 -0.1894
 4786W        W21634  10.462   7.301   4.653 -0.0976  0.2420  0.4009
 4787W        W21635   9.339   9.554  11.955  0.0472  0.2019  0.2342
 4788W        W21636   5.647  16.040   2.824  0.1223  0.0568 -0.1036
 4789W        W21637   4.770   1.321  11.202  0.0339 -0.2239 -0.1420
 4790W        W21638   9.305   3.426   0.736  0.3657 -0.1877  0.0501
 4791W        W21639  12.428  17.860  15.700 -0.1369 -0.2685  0.0568
 4792W        W21640   5.287   0.204   4.921 -0.0779  0.0706 -0.0926
 4793W        W21641   5.834   2.892   1.376 -0.0345  0.3613  0.0104
 4794W        W21642  14.891  10.205  12.987 -0.1770 -0.3845 -0.4232
 4795W        W21643  10.657  15.880   1.417  0.4861  0.0263 -0.1883
 4796W        W21644   4.156  16.555   1.485  0.3709 -0.1002  0.1965
 4797W        W21645  16.312   7.565   2.513  0.1900 -0.0080  0.0727
 4798W        W21646  14.034   4.115  12.098  0.1960  0.1687 -0.0065
 4799W        W21647  17.267   0.905   0.291  0.2086 -0.4045 -0.0990
 4800W        W21648   2.317   6.178   4.988  0.2417 -0.3009  0.3003
 4801W        W21649  16.471   4.663   1.242 -0.1201 -0.1175  0.2527
 4802W        W21650  12.695   8.170   0.587  0.1502 -0.3327 -0.0625
 4803W        W21651   3.622   8.389  11.232  0.1195  0.0727 -0.0359
 4804W        W21652   1.523  12.890  12.745  0.2690  0.2715 -0.2399
 4805W        W21653   2.134   7.420   3.743 -0.3384  0.1669  0.0844
 4806W        W21654  10.082  10.614   3.799 -0.0063  0.1663 -0.0409
 4807W        W21655   7.401   1.175  16.098  0.2548  0.1864  0.0548
 4808W        W21656  14.269   0.813   0.552 -0.0246 -0.2235  0.0428
 4809W        W21657  15.576   0.932  11.486 -0.0333  0.0206  0.2220
 4810W        W21658   3.281   4.652  16.046  0.0607 -0.0932  0.0408
 4811W        W21659   9.821   2.482   0.624  0.2203  0.0382  0.1830
 4812W        W21660   3.960   3.184   1.398  0.1157  0.0305 -0.1437
 4813W        W21661   9.838  10.803  11.292 -0.0349  0.0705 -0.3272
 4814W        W21662   2.231   4.134   4.584 -0.3417 -0.1598 -0.1786
 4815W        W21663   2.862  10.859  11.908 -0.2974  0.0473 -0.4143
 4816W        W21664   9.797   6.449   2.098  0.1345  0.0670  0.3031
 4817W        W21665  14.188   7.144  14.404 -0.1692  0.0837 -0.0469
 4818W        W21666   0.829  15.148  15.354 -0.0557  0.0073  0.0111
 4819W        W21667  17.589   1.808  10.985  0.0365  0.3465  0.0039
 4820W        W21668  17.255  15.080   1.865  0.1157  0.1042 -0.1064
 4821W        W21669   6.806   6.478  15.276 -0.1016 -0.0599 -0.2200
 4822W        W21670  12.657  12.792  11.367  0.0834  0.4097 -0.0061
 4823W        W21671  10.612   0.720   4.489  0.0496  0.1196 -0.1019
 4824W        W21672   2.268   5.322  12.728  0.0597  0.0152 -0.4396
 4825W        W21673  15.154  16.911  13.061 -0.2090  0.1989  0.1681
 4826W        W21674   8.304  11.675  15.969 -0.0427 -0.1495 -0.1618
 4827W        W21675  14.393  12.875  15.246  0.1817  0.1350 -0.0991
 4828W        W21676   4.774  18.208   4.211 -0.1155 -0.1375  0.1025
 4829W        W21677  15.633   4.223   4.707 -0.1911 -0.0195 -0.0848
 4830W        W21678   2.461  10.006   1.114  0.1732  0.0651  0.1899
 4831W        W21679   7.851  15.916   2.058  0.1517 -0.3379  0.0309
 4832W        W21680   8.830   7.705   1.443 -0.0425  0.1008 -0.0937
 4833W        W21681  10.090  15.920   0.172  0.1096 -0.1899 -0.0451
 4834W        W21682  10.453   6.781  15.697 -0.2812 -0.2137  0.0393
 4835W        W21683   1.305  15.274  11.594  0.2050 -0.0192 -0.2006
 4836W        W21684  17.082   1.353   3.706 -0.1858 -0.0676  0.2075
 4837W        W21685   9.887  12.038  12.931 -0.1555 -0.2664 -0.2879
 4838W        W21686  10.222   7.911   2.094 -0.1076 -0.1039 -0.2219
 4839W        W21687  11.277  13.147   0.168  0.0861 -0.0805 -0.5254
 4840W        W21688  10.744  10.962  12.941  0.0297  0.0812  0.0256
 4841W        W21689   4.637   0.924   2.494 -0.0014 -0.0726  0.0650
 4842W        W21690   1.650   3.643  16.073  0.1889  0.2503  0.0889
 4843W        W21691  16.129  14.302   4.207 -0.0606 -0.0301 -0.1045
 4844W        W21692  15.497  17.229  14.477 -0.1739 -0.1997  0.2963
 4845W        W21693  15.973   2.351   2.737 -0.0611  0.3518 -0.0419
 4846W        W21694  10.427  17.970   1.941  0.1639  0.0659  0.0110
 4847W        W21695  10.755   3.912   0.046  0.3573 -0.0808 -0.2945
 4848W        W21696  16.660  17.698  10.913  0.1623  0.2026 -0.4935
 4849W        W21697   1.869  11.235   3.749  0.1416  0.2474  0.1256
 4850W        W21698  10.065  11.874  15.980 -0.0531  0.0861  0.5037
 4851W        W21699   1.391  14.987  14.912 -0.0835 -0.2554  0.1865
 4852W        W21700  13.980  11.726   5.530  0.1272  0.1205 -0.0068
 4853W        W21701   6.907   1.780  15.115 -0.4415 -0.0605  0.1757
 4854W        W21702   1.467  11.644  13.507 -0.0131 -0.0966  0.2187
 4855W        W21703   8.460   5.092  12.349  0.1583  0.0087  0.0983
 4856W        W21704   4.816   8.150   3.341 -0.1199  0.0913  0.1438
 4857W        W21705   9.159  15.846  16.071  0.2232  0.0483  0.3651
 4858W        W21706   6.521  10.319  15.711 -0.3335  0.3186  0.2859
 4859W        W21707  10.826  18.173   2.221 -0.0357  0.2684 -0.0347
 4860W        W21708   4.226   4.197  12.500 -0.1727 -0.0580  0.0949
 4861W        W21709  11.016   2.342   1.602 -0.3253  0.1628 -0.1517
 4862W        W21710   9.203   9.343  14.644 -0.3013  0.1590 -0.4553
 4863W        W21711  14.459  13.544   0.915 -0.0136  0.0618 -0.1693
 4864W        W21712  15.683  12.413  11.391 -0.2251  0.0975  0.0515
 4865W        W21713  14.313   6.792  12.081  0.1381 -0.0219  0.2506
 4866W        W21714  12.181   2.314  11.435 -0.1614  0.0427 -0.2356
 4867W        W21715  17.932   2.362  11.729 -0.0930  0.1623  0.0084
 4868W        W21716   1.687   1.795   4.278  0.2588  0.2840  0.3159
 4869W        W21717   4.977   1.998   1.193 -0.1781 -0.0738  0.0056
 4870W        W21718  12.721  13.707   3.991  0.0168 -0.2445  0.1584
 4871W        W21719  13.454   7.460   0.029  0.0917  0.0348  0.1999
 4872W        W21720   7.663  12.005  14.034  0.2577  0.0833 -0.1774
 4873W        W21721   1.905   5.489   4.161 -0.1713  0.3324  0.0262
 4874W        W21722  16.784  15.958  15.876  0.2216 -0.0182  0.0822
 4875W        W21723   7.861  14.783   3.726  0.1136  0.2818  0.0304
 4876W        W21724  17.527   5.894  12.735 -0.1603 -0.2424  0.2288
 4877W        W21725   1.736  17.703   1.882 -0.2214 -0.0570  0.0766
 4878W        W21726   8.114   2.392  15.824 -0.2033  0.2791 -0.0557
 4879W        W21727   5.919  11.003  14.847 -0.1417  0.0471  0.1300
 4880W        W21728   3.219   7.752   2.243  0.0910 -0.1392 -0.1500
 4881W        W21729  11.088  12.665   3.185  0.2741  0.0640 -0.0800
 4882W        W21730   4.802   8.189   0.326  0.1044  0.1177  0.1349
 4883W        W21731   1.049   7.155   4.017 -0.2892 -0.1142  0.3086
 4884W        W21732  15.584   2.601   4.339 -0.3093  0.1896 -0.0873
 4885W        W21733  14.662   8.807  14.999 -0.0281  0.0688 -0.0404
 4886W        W21734   6.256   9.773   0.698 -0.0851  0.1719  0.3075
 4887W        W21735  13.131  11.850   2.802  0.1804  0.1931 -0.1114
 4888W        W21736  11.678   8.511  13.323 -0.1766  0.1571 -0.0903
 4889W        W21737   8.542  16.983  11.809  0.0060 -0.0357 -0.0186
 4890W        W21738  16.054   3.998  11.586  0.0615 -0.1352 -0.0321
 4891W        W21739   9.347   8.159  14.416 -0.2903 -0.3714  0.0162
 4892W        W21740  15.614   1.392   4.112  0.1891  0.3456 -0.0754
 4893W        W21741  12.583   0.583   0.371  0.1056  0.0245 -0.0317
 4894W        W21742   1.679   4.940  11.520  0.0600 -0.0810  0.0134
 4895W        W21743   4.817   6.824   0.802  0.1166  0.0826  0.2179
 4896W        W21744   3.795  14.256   5.193 -0.2074 -0.2961  0.0947
 4897W        W21745   0.652  13.402  10.819  0.0788 -0.0027 -0.0092
 4898W        W21746  17.192  17.680   1.483 -0.3667 -0.0548  0.1520
 4899W        W21747   0.071   2.598   2.796  0.0276 -0.1040  0.0937
 4900W        W21748  12.969   5.777  12.129 -0.0535  0.1012 -0.0539
 4901W        W21749   7.752  10.877   0.474 -0.2214  0.0009 -0.2179
 4902W        W21750   9.393  11.150   4.931 -0.3901 -0.3496  0.0377
 4903W        W21751   7.903   4.408  14.443 -0.0961  0.0415 -0.2901
 4904W        W21752   5.513  16.751  12.101 -0.1898  0.1281  0.0989
 4905W        W21753   6.734   8.058   0.450  0.1288  0.1596  0.0553
 4906W        W21754   3.368   5.871  12.854  0.0823  0.1184  0.2481
 4907W        W21755  17.520   5.610   1.493 -0.1446 -0.3121 -0.2067
 4908W        W21756  16.935   5.166   5.364  0.2107  0.0997 -0.0905
 4909W        W21757   7.075  15.857   2.839  0.0876 -0.0838  0.2019
 4910W        W21758   9.737   4.283   3.514 -0.0050 -0.2024 -0.0216
 4911W        W21759   1.278   5.722   1.412  0.2361  0.0683 -0.0981
 4912W        W21760   7.576  16.354   3.690 -0.1234  0.0940  0.0791
 4913W        W21761  11.062  11.451   5.174 -0.0683  0.0753 -0.3030
 4914W        W21762   3.924   6.515  14.109  0.3802  0.0692 -0.1996
 4915W        W21763   3.788  10.693  13.570  0.4189  0.0993  0.0994
 4916W        W21764   0.374   3.727  14.154  0.1632  0.0246 -0.0862
 4917W        W21765  10.322  12.850   1.102 -0.3973 -0.3057  0.1598
 4918W        W21766  10.488   3.743   1.059  0.1562 -0.2553 -0.3136
 4919W        W21767   6.448  17.987   1.291  0.0864  0.1301  0.0603
 4920W        W21768   3.866   5.991   2.020  0.3440  0.2055  0.1474
 4921W        W21769  16.560   5.247  14.752 -0.1772 -0.0600 -0.5280
 4922W        W21770  12.678   8.074  14.850 -0.0022  0.0721 -0.1712
 4923W        W21771  17.054  11.906   0.969 -0.1897  0.0267  0.0234
 4924W        W21772   7.581   1.440  14.225  0.0680  0.1387 -0.0531
 4925W        W21773   8.659  14.718  15.981  0.2805 -0.1826  0.0885
 4926W        W21774  14.257   0.565   1.400 -0.0293  0.1006  0.1372
 4927W        W21775   0.399  10.233   1.379  0.2665  0.3762 -0.0292
 4928W        W21776   2.766  15.742  11.936  0.2718  0.4347 -0.0384
 4929W        W21777   2.742  15.038   2.007  0.1955 -0.0609  0.1129
 4930W        W21778  15.177  14.464   2.323  0.2696 -0.1172  0.2348
 4931W        W21779  15.177   4.530  15.892  0.1414 -0.0551 -0.0808
 4932W        W21780   2.118   4.079   4.016 -0.0263  0.3825  0.0157
 4933W        W21781   0.185   2.966   1.942 -0.0271  0.0025  0.0203
 4934W        W21782   4.925  13.038  13.127 -0.2883  0.0799  0.3690
 4935W        W21783  17.588  11.525  12.358 -0.2819  0.3212  0.2944
 4936W        W21784   3.891  13.875  10.347 -0.0632 -0.1786  0.2668
 4937W        W21785   6.141   9.555   2.690 -0.4277  0.1290 -0.1972
 4938W        W21786   1.148  10.219   2.686 -0.2899  0.0235 -0.2507
 4939W        W21787  10.003  16.848   4.392  0.0355  0.1998  0.0516
 4940W        W21788   9.886  13.251   2.528  0.2257 -0.1356  0.2482
 4941W        W21789   2.743  10.919  16.062  0.1743 -0.0759  0.2079
 4942W        W21790   6.882   0.702  11.553  0.3108 -0.0456  0.1981
 4943W        W21791   7.867  16.084   2.857 -0.2043  0.1520  0.3614
 4944W        W21792  15.429   9.260  12.835  0.0064  0.1050 -0.0844
 4945W        W21793   9.127   7.696  14.354 -0.1774 -0.1820  0.0497
 4946W        W21794   3.735   1.573  13.403  0.1194 -0.0450 -0.0780
 4947W        W21795  10.893   3.279  15.908 -0.0060 -0.2010  0.1600
 4948W        W21796  13.716   3.649   1.047 -0.1501 -0.0931  0.0812
 4949W        W21797  11.844  17.316   3.914 -0.1889  0.0427 -0.2313
 4950W        W21798  10.835   3.512   0.860  0.3469  0.2406 -0.1228
 4951W        W21799  13.492  11.530   2.726 -0.0501 -0.0941 -0.0326
 4952W        W21800  15.802  12.723  11.740 -0.1137  0.1931 -0.2229
 4953W        W21801  14.284  13.865  11.399 -0.1058 -0.0735 -0.3820
 4954W        W21802   5.360   5.164   4.968  0.0365  0.0157  0.1180
 4955W        W21803  17.112   7.351   3.149  0.1510  0.1139 -0.1009
 4956W        W21804   6.137   7.085   0.155 -0.1951 -0.0492 -0.1212
 4957W        W21805   1.501   4.578   2.793  0.1447  0.2410  0.1942
 4958W        W21806   5.514  16.221  10.332  0.0254  0.2184 -0.0391
 4959W        W21807   7.311   1.021   4.091 -0.3179  0.0932  0.3952
 4960W        W21808   4.106   8.071  15.275 -0.2413 -0.1274 -0.0470
 4961W        W21809  10.816  17.660  14.118 -0.0658  0.2662  0.0025
 4962W        W21810   8.611   1.601   0.422 -0.1009  0.3132  0.1290
 4963W        W21811   8.427  16.493   0.622 -0.0479  0.0287  0.1565
 4964W        W21812   2.467   5.695  14.094 -0.1090  0.0351 -0.3409
 4965W        W21813   7.498   6.548   0.381  0.1099  0.0516 -0.2408
 4966W        W21814  11.801   7.892   0.960  0.0798  0.0958 -0.2266
 4967W        W21815  15.667  11.685   1.990  0.0332  0.0517  0.0152
 4968W        W21816   4.184   2.719   0.285  0.1558 -0.1098  0.0383
 4969W        W21817  13.100   8.801   3.495  0.1117  0.3175 -0.0381
 4970W        W21818   8.681   9.307  14.924 -0.0190 -0.2232 -0.0044
 4971W        W21819   9.834  15.867   4.166 -0.0946 -0.5146 -0.0549
 4972W        W21820  15.238   3.550   5.250  0.2875  0.2400  0.1556
 4973W        W21821   2.297  10.832   2.253  0.2927  0.2253  0.2780
 4974W        W21822  17.232   9.072  15.879 -0.1287 -0.3466 -0.2382
 4975W        W21823  12.649  10.796  12.562  0.2054  0.0274 -0.0648
 4976W        W21824   5.357  13.133  11.336 -0.0054 -0.2066 -0.3935
 4977W        W21825  18.056   0.791   3.259 -0.1307  0.2932  0.1532
 4978W        W21826  17.690   9.389  15.310  0.2465  0.3600 -0.0263
 4979W        W21827  15.338   5.152  14.385  0.1152  0.1457  0.2414
 4980W        W21828   4.209  10.667  15.071 -0.1717 -0.1871  0.4331
 4981W        W21829   6.317  11.441  11.860  0.0979  0.2521  0.0254
 4982W        W21830  11.370  16.629   2.589 -0.1604 -0.0114 -0.2046
 4983W        W21831   2.840  15.555   0.251 -0.3077  0.0688 -0.1320
 4984W        W21832   8.761  16.821  15.288  0.0187  0.3821  0.1626
 4985W        W21833   1.265   5.943  15.226 -0.0704 -0.1481  0.0096
 4986W        W21834   5.799   8.140   2.051 -0.1448  0.2890  0.3233
 4987W        W21835  17.886  11.483   2.646  0.0862 -0.0446  0.2736
 4988W        W21836  13.233  14.777  15.245 -0.1024  0.3832  0.2909
 4989W        W21837   1.121  10.351  14.476  0.2568 -0.2930 -0.1312
 4990W        W21838   4.726   9.744  12.240 -0.1663  0.0583  0.2740
 4991W        W21839   6.807   2.312  15.275  0.3095  0.2390  0.1147
 4992W        W21840  14.601  17.818  11.916 -0.0356 -0.0466 -0.2194
 4993W        W21841   1.075   9.753  11.833 -0.0905 -0.1416 -0.4165
 4994W        W21842   7.763   4.047  11.912  0.1843 -0.1769 -0.1077
 4995W        W21843  11.831  12.320  14.803  0.2040 -0.2008  0.2768
 4996W        W21844   9.662   9.285   3.550  0.1714 -0.0273 -0.4498
 4997W        W21845  10.411  10.786   2.911  0.1894  0.0384  0.0231
 4998W        W21846   9.519   3.806   2.006  0.1944 -0.1146 -0.2875
 4999W        W21847   0.002   4.546   4.953  0.0793 -0.4092  0.1555
 5000W        W21848  13.956  14.960   3.519 -0.0237 -0.0744  0.2812
 5001W        W21849   5.059  16.517  16.114 -0.4195 -0.0521 -0.1686
 5002W        W21850   7.486   6.941  15.323  0.1982 -0.0497  0.1252
 5003W        W21851   5.250  15.924   1.607 -0.0009 -0.2700 -0.2927
 5004W        W21852   2.447   7.769  13.607  0.2275  0.3086 -0.2728
 5005W        W21853  14.889   3.279  11.462 -0.0880 -0.1973  0.3720
 5006W        W21854  16.849   9.710   4.210  0.0202 -0.1032  0.0713
 5007W        W21855  10.330   9.784  12.090 -0.0791  0.0069 -0.1239
 5008W        W21856  17.044  10.520   2.092 -0.2046  0.2759  0.0212
 5009W        W21857   9.185   3.751   1.571 -0.0365  0.0994  0.2436
 5010W        W21858  11.798  10.972  13.606  0.0167 -0.2044  0.1422
 5011W        W21859  10.107   1.367   4.075  0.0391  0.0889 -0.0376
 5012W        W21860  16.378   9.689   1.252 -0.0622 -0.3140 -0.1661
 5013W        W21861   4.730   0.290  11.379 -0.0317  0.3528  0.3015
 5014W        W21862  17.712   6.917  14.187  0.2493 -0.5608 -0.4279
 5015W        W21863  14.678  13.016  14.336  0.0656  0.3086 -0.2975
 5016W        W21864   7.080  16.053  11.288  0.1787  0.0912  0.1802
 5017W        W21865   5.614   9.665   3.534 -0.0812 -0.1601 -0.2432
 5018W        W21866   0.349   9.685  10.652 -0.2520  0.1999  0.1136
 5019W        W21867   9.284   8.908   3.476 -0.3135 -0.0422 -0.0173
 5020W        W21868   4.255  18.212  14.418  0.0512 -0.2014 -0.0082
 5021W        W21869  17.150  14.352  12.759 -0.0930 -0.3693 -0.0236
 5022W        W21870   1.338  10.083  12.928 -0.0026 -0.3436  0.0473
 5023W        W21871  13.198   3.758   0.911 -0.3887 -0.1315 -0.0237
 5024W        W21872   9.939  14.896   2.532  0.2731 -0.1347  0.0394
 5025W        W21873  13.665  10.341   0.149  0.1805  0.2459 -0.1053
 5026W        W21874   3.019  12.076   3.170 -0.1421  0.0860 -0.0875
 5027W        W21875   4.529   7.859  11.252  0.1225  0.1140  0.0011
 5028W        W21876   3.768  14.943  12.050 -0.4975  0.0783 -0.0432
 5029W        W21877   2.355  10.639  11.785  0.1310  0.0822 -0.0699
 5030W        W21878   2.364   3.726   4.354  0.0992  0.2009  0.1039
 5031W        W21879  14.307  13.670  14.723  0.1139 -0.1419  0.2067
 5032W        W21880  10.248  12.890   2.610  0.0831  0.1481  0.1268
 5033W        W21881   2.057   2.182   3.437  0.1440 -0.2140 -0.2922
 5034W        W21882   5.379   2.768  13.850 -0.1638 -0.0523 -0.3256
 5035W        W21883   3.572  12.648   4.454 -0.1498  0.0038 -0.1054
 5036W        W21884   9.760   9.857   1.991  0.0274 -0.2286 -0.1132
 5037W        W21885  18.212  17.410   3.716 -0.0376 -0.0860 -0.1418
 5038W        W21886  18.206   3.913   1.489 -0.0411  0.0813  0.3775
 5039W        W21887  11.642   2.966  13.930  0.0266 -0.2161  0.1473
 5040W        W21888   7.065  12.993   4.263 -0.2378 -0.1089  0.1652
 5041W        W21889   8.375  10.873  11.300  0.0384  0.1460  0.1680
 5042W        W21890  17.112   6.105  14.170 -0.1838 -0.0031  0.0003
 5043W        W21891  14.306  12.888   2.634 -0.2957  0.3306 -0.4153
 5044W        W21892  14.296  18.144   0.323  0.1695 -0.1916  0.0573
 5045W        W21893   9.057   6.060   2.513 -0.1465 -0.0460  0.1133
 5046W        W21894   7.254   8.025   2.512  0.0991 -0.3016 -0.0435
 5047W        W21895   1.177  13.871  14.331 -0.0705  0.0354 -0.1894
 5048W        W21896   6.923   7.992   1.195 -0.2090  0.2720  0.1466
 5049W        W21897  13.128   0.428  11.269  0.0534 -0.1279  0.0325
 5050W        W21898  13.968  12.550  11.102 -0.1579 -0.0232 -0.2862
 5051W        W21899  11.760  16.759  11.179  0.1450 -0.2630  0.2176
 5052W        W21900  15.598   7.792   1.470  0.0611 -0.0669  0.1906
 5053W        W21901  10.513  13.863  16.102  0.2494  0.0723 -0.1689
 5054W        W21902  17.176  12.731   1.897 -0.1059 -0.1451 -0.0553
 5055W        W21903   7.159   3.733   4.827 -0.1628 -0.2146  0.0410
 5056W        W21904   9.903   7.588   1.846  0.1206  0.0797 -0.1008
 5057W        W21905  11.008   0.389   4.593  0.1332  0.1666  0.4632
 5058W        W21906   8.716  14.603  13.206 -0.0136  0.4462 -0.1552
 5059W        W21907  16.572  11.454   2.989  0.0615  0.1670 -0.2219
 5060W        W21908   7.582   7.689   2.021 -0.3264  0.0013  0.1767
 5061W        W21909   8.493   0.807  10.876  0.0383  0.4106  0.2132
 5062W        W21910  13.607  11.610  12.896 -0.0494 -0.1197  0.2077
 5063W        W21911  10.603   7.603  11.562  0.1822  0.2607  0.0183
 5064W        W21912  17.954  16.415   3.525  0.3724 -0.1423  0.0744
 5065W        W21913  11.677  14.023   1.967  0.3623  0.0603 -0.3367
 5066W        W21914   5.480  11.375  15.474  0.2264 -0.0821  0.0114
 5067W        W21915  14.192   3.234  12.053  0.0453  0.0267  0.0945
 5068W        W21916   5.094   1.134   5.086  0.0064 -0.0571 -0.1253
 5069W        W21917  11.141   7.940  12.065  0.2455 -0.1641  0.1090
 5070W        W21918  13.610  15.749  15.699  0.0750  0.0503  0.3886
 5071W        W21919   5.592  18.198   2.797 -0.0331  0.0318 -0.0381
 5072W        W21920  17.402  15.635   1.025 -0.1871 -0.1466 -0.2511
 5073W        W21921  14.288   4.643  12.304  0.1674 -0.2278  0.3190
 5074W        W21922   4.531  17.178   4.603 -0.0078  0.1140 -0.2032
 5075W        W21923  17.817  12.269  15.813  0.1150  0.1577 -0.0909
 5076W        W21924  10.521  17.619   0.314 -0.0485  0.0751  0.0668
 5077W        W21925   6.976  13.823   0.030 -0.0546  0.1660 -0.1698
 5078W        W21926   5.482   5.165  12.958 -0.0458 -0.3706  0.0315
 5079W        W21927  12.050  14.356  11.351 -0.0125  0.1227 -0.2548
 5080W        W21928   6.899  15.576  12.064 -0.0229 -0.1398 -0.2210
 5081W        W21929  17.992  14.172   3.214  0.0289  0.1498 -0.0833
 5082W        W21930   8.291   0.121  12.606  0.0437  0.0258  0.3999
 5083W        W21931   3.221   1.948  15.513  0.2467  0.0311 -0.0201
 5084W        W21932   1.119  17.923  11.801 -0.0788  0.1612 -0.1009
 5085W        W21933   9.281  15.760  15.576 -0.1886  0.0412  0.2624
 5086W        W21934   0.365  11.637   2.313 -0.3594  0.0643  0.0027
 5087W        W21935   0.754  14.588  15.485  0.0950 -0.0519  0.2525
 5088W        W21936   6.332  11.460   4.065 -0.0741  0.0274  0.1783
 5089W        W21937   7.485   0.815   1.883 -0.3470  0.2342 -0.3040
 5090W        W21938  17.306   0.581  13.457  0.0559  0.0230  0.1185
 5091W        W21939  10.803  15.466   3.014 -0.0823  0.0236 -0.1859
 5092W        W21940  11.392  14.282   4.906 -0.0191  0.0844  0.1228
 5093W        W21941   4.915   7.613   0.023 -0.0193  0.3611  0.0982
 5094W        W21942   0.326   4.993   1.093 -0.0621  0.0473 -0.0683
 5095W        W21943  12.523   4.038  13.176  0.0689 -0.1764 -0.4151
 5096W        W21944   0.490  16.046  15.919 -0.1035  0.1964  0.2428
 5097W        W21945  14.765   6.805   5.156  0.2125 -0.2336  0.0420
 5098W        W21946   0.938   5.329  13.382 -0.2425  0.0828  0.0924
 5099W        W21947  10.901  11.940  14.047  0.2209  0.0044 -0.1179
 5100W        W21948   6.614   2.615   4.073  0.0350  0.0071  0.0179
 5101W        W21949  14.960   3.047   0.811  0.2365 -0.0997  0.2497
 5102W        W21950  10.834  16.351  13.498  0.0462 -0.2850  0.0437
 5103W        W21951  18.208  10.230   2.935  0.0049 -0.1809  0.0669
 5104W        W21952  15.212   1.556   2.062  0.1348  0.1898  0.0382
 5105W        W21953  17.272  11.012   0.659 -0.1184  0.0561 -0.0744
 5106W        W21954  14.920   5.117  15.749 -0.3145 -0.2019  0.2495
 5107W        W21955  14.337  17.143   2.922  0.0518 -0.1346  0.1247
 5108W        W21956   9.771   4.988   1.028  0.1672  0.2454 -0.0529
 5109W        W21957   2.290   2.233  13.017  0.1610  0.0433  0.2190
 5110W        W21958   0.616   1.070   4.655  0.0032 -0.0090  0.0361
 5111W        W21959   0.246   6.095   5.105 -0.2418  0.0057 -0.0576
 5112W        W21960   3.447   3.576   1.804 -0.1944 -0.1467 -0.1463
 5113W        W21961  15.012   6.876  12.586 -0.1426 -0.2726 -0.1141
 5114W        W21962   3.075  17.463   3.219  0.1990  0.0673 -0.0093
 5115W        W21963   0.080  16.237   2.577  0.0085 -0.1101 -0.0231
 5116W        W21964  10.303  12.982   3.282  0.1923  0.0473 -0.0078
 5117W        W21965  18.047   0.680   0.974 -0.0192 -0.0073  0.1199
 5118W        W21966  13.620  14.107  12.976  0.0153  0.1686 -0.0443
 5119W        W21967   3.814   7.959  13.564 -0.0874  0.0797 -0.1212
 5120W        W21968  17.596   1.982   2.078  0.0057  0.2786  0.0330
 5121W        W21969   5.198   4.274   3.848 -0.1523 -0.0237  0.2398
 5122W        W21970   1.734  11.773  15.023 -0.0736 -0.2091  0.3170
 5123W        W21971  15.968   2.486  11.573 -0.0455 -0.1101  0.0438
 5124W        W21972  13.265   9.573  13.612  0.1377  0.2382 -0.0756
 5125W        W21973   5.162  15.022  15.482  0.3325 -0.1343  0.1801
 5126W        W21974   9.537  12.923  13.230  0.2305  0.2229  0.5083
 5127W        W21975   3.495  18.040  12.709  0.3355  0.1119 -0.3171
 5128W        W21976  12.805   5.755  13.620  0.0411  0.0586 -0.1842
 5129W        W21977  17.255   0.557   2.403 -0.1075  0.0013  0.1983
 5130W        W21978  11.453  17.816   1.618 -0.2045  0.2761 -0.1075
 5131W        W21979  14.544   1.714   5.290  0.0055 -0.1180 -0.4143
 5132W        W21980   8.251  12.227   0.742 -0.3920  0.3808  0.1895
 5133W        W21981   7.352   5.805   2.005 -0.1988  0.0690 -0.1125
 5134W        W21982   2.018   2.064   1.657 -0.0530 -0.2779  0.1358
 5135W        W21983  11.095  11.619   2.263 -0.1746 -0.1642  0.1389
 5136W        W21984   4.865   7.117   2.347  0.3644 -0.3655 -0.2866
 5137W        W21985  15.459   6.904   4.360 -0.1175  0.1146 -0.1238
 5138W        W21986   8.700   5.957   4.409  0.1624 -0.1259  0.0938
 5139W        W21987   0.943  15.292   3.083  0.3517 -0.0440 -0.0012
 5140W        W21988  14.057   7.006   2.105  0.0796  0.1770  0.0646
 5141W        W21989   7.473   9.903   1.207  0.0766 -0.1160  0.3374
 5142W        W21990  12.349   0.309  12.940 -0.3598 -0.1588  0.2301
 5143W        W21991   4.795   3.505   4.592 -0.1349 -0.0045 -0.3993
 5144W        W21992   3.032   2.418  15.306  0.3046 -0.1385  0.0216
 5145W        W21993  15.226   4.612   0.278  0.1205  0.1053 -0.3767
 5146W        W21994   6.436   1.854  15.291 -0.0175  0.1538 -0.0774
 5147W        W21995  10.232   2.936  12.090  0.1399 -0.0217  0.0169
 5148W        W21996   3.873   7.630   2.968  0.0504 -0.1861 -0.4726
 5149W        W21997  14.047  12.051  13.681 -0.0453 -0.0609  0.0117
 5150W        W21998   7.438   1.017   0.947 -0.1579 -0.2624  0.3304
 5151W        W21999  17.886   1.054  13.632 -0.3185 -0.2252  0.2010
 5152W        W22000   1.690   3.137   0.139 -0.0927  0.0277 -0.0176
 5153W        W22001  13.428  10.747  14.111 -0.1475  0.1824  0.0169
 5154W        W22002  12.533   2.711  10.576  0.1892  0.0668  0.1546
 5155W        W22003   9.573   6.838  15.372  0.1261  0.1777  0.0304
 5156W        W22004   6.950  17.205   3.351 -0.0363 -0.0688 -0.3817
 5157W        W22005   1.809   5.250   3.217 -0.0078  0.0387 -0.1676
 5158W        W22006   8.943   0.660  14.496 -0.1177 -0.0237 -0.1837
 5159W        W22007   4.156   6.688  15.461  0.0346 -0.0018 -0.2891
 5160W        W22008   7.042  12.411   4.177  0.2212  0.3105 -0.1023
 5161W        W22009   5.024   6.846  12.840  0.1935 -0.0882  0.1575
 5162W        W22010  13.123   0.423   3.111  0.1423 -0.2264 -0.1871
 5163W        W22011   5.436   5.320   4.469 -0.2889  0.1596  0.0588
 5164W        W22012  12.538  10.512  13.535 -0.0655 -0.2609  0.0772
 5165W        W22013   2.473  10.300  14.889  0.2640 -0.0850  0.1840
 5166W        W22014   3.878  17.314   6.177  0.1599 -0.1056  0.3531
 5167W        W22015  11.977   7.500   3.586 -0.0978  0.1082 -0.2846
 5168W        W22016  10.546   6.834  13.536 -0.0822 -0.1906 -0.3889
 5169W        W22017   9.243   9.861   5.218 -0.2000  0.2327 -0.3089
 5170W        W22018  17.069  12.707  12.347 -0.0517 -0.4344  0.1561
 5171W        W22019   6.765   3.219   2.197 -0.1491 -0.0992 -0.0557
 5172W        W22020   5.887  12.739  13.731 -0.0343  0.0850  0.2979
 5173W        W22021   7.604  10.055  11.821  0.1707 -0.2835  0.0359
 5174W        W22022   8.384  11.820   3.977  0.3392 -0.0723  0.1863
 5175W        W22023   1.504   2.301   3.159  0.2253  0.1884  0.2995
 5176W        W22024  17.654   8.581   1.434  0.0491  0.0125 -0.0847
 5177W        W22025  16.717   6.271  13.859 -0.1391  0.1918 -0.1370
 5178W        W22026  14.605   0.291  13.695  0.0823  0.1907 -0.1816
 5179W        W22027  14.127   7.283  13.944 -0.1186 -0.2856 -0.1050
 5180W        W22028  10.853   0.681   5.054  0.2497 -0.2305 -0.0380
 5181W        W22029   9.083   0.079  14.712  0.2681 -0.3558  0.1882
 5182W        W22030   5.317  14.980  10.966  0.1507  0.1812 -0.1393
 5183W        W22031   1.906  16.917   0.400  0.0707  0.1352  0.2578
 5184W        W22032  13.082   0.227   1.275  0.0845  0.4216  0.0826
 5185W        W22033  14.992   2.031   2.918 -0.0203  0.0092  0.0077
 5186W        W22034  10.120  13.878   4.238  0.0667 -0.2510 -0.1812
 5187W        W22035  14.337   0.228   4.212 -0.0406 -0.2690  0.0518
 5188W        W22036   4.781  14.001   3.167  0.0847 -0.1677 -0.0655
 5189W        W22037  16.435  10.049  15.348 -0.4411 -0.1692 -0.1940
 5190W        W22038  10.343  11.266   3.136 -0.1058 -0.2929  0.2344
 5191W        W22039  13.146   3.501   2.562  0.0070 -0.3566 -0.2858
 5192W        W22040   7.360   1.924   2.447 -0.0876 -0.2406 -0.1603
 5193W        W22041   3.173  12.255  14.706  0.2179  0.3671  0.2301
 5194W        W22042   6.758  14.858   3.700 -0.2564 -0.0558 -0.1788
 5195W        W22043  10.527  17.205  15.680  0.2063  0.0587 -0.1998
 5196W        W22044  13.968  15.753  11.313 -0.4388  0.0297 -0.0514
 5197W        W22045  10.248  13.290   2.891  0.5192 -0.0997 -0.3660
 5198W        W22046  16.114   9.974  12.275 -0.0776 -0.0071 -0.0471
 5199W        W22047  11.101   8.287  12.488  0.1074  0.0538 -0.2262
 5200W        W22048  17.377  13.257  13.504  0.0388  0.2946  0.0613
 5201W        W22049   9.709  12.679  15.753  0.0028 -0.0702  0.2761
 5202W        W22050   4.117  10.423  11.782 -0.0875 -0.0210 -0.2757
 5203W        W22051   3.360  13.167   4.460  0.2573 -0.2777 -0.1935
 5204W        W22052   5.747  10.101  13.794  0.0976  0.2156 -0.2441
 5205W        W22053   5.502   0.421   2.460 -0.2261  0.1433 -0.4709
 5206W        W22054   3.183   8.964  13.607  0.0328 -0.3796  0.1384
 5207W        W22055   1.856   3.980  11.951 -0.1433  0.2207  0.2189
 5208W        W22056   2.450   3.409  13.755 -0.2206  0.1878  0.1747
 5209W        W22057   8.000  18.204   0.742  0.0885 -0.0092  0.0815
 5210W        W22058   3.184  11.123   3.165 -0.1452 -0.0484 -0.1004
 5211W        W22059  16.924  11.849  11.932  0.0713  0.2075  0.2072
 5212W        W22060   6.768  10.290  14.012 -0.1606 -0.2285 -0.0154
 5213W        W22061  17.565   8.836  14.461  0.2317  0.1890 -0.2335
 5214W        W22062  10.870   5.854  14.524 -0.2801 -0.0958  0.0310
 5215W        W22063  11.344   2.690  12.907  0.1408 -0.2927 -0.0774
 5216W        W22064   9.863  11.471   0.542  0.1263 -0.1404  0.0578
 5217W        W22065  12.200   7.889   3.959  0.1055  0.0462 -0.2520
 5218W        W22066  14.726   9.962  15.957 -0.1810  0.1531 -0.0492
 5219W        W22067  14.907  10.854  16.043  0.4398 -0.0513 -0.1148
 5220W        W22068   0.125   5.637  15.401 -0.2553 -0.0730  0.0071
 5221W        W22069  15.530  17.783  13.549 -0.0225  0.1081 -0.2603
 5222W        W22070   9.545   8.961   0.854  0.0752 -0.0589  0.0797
 5223W        W22071   8.943   5.543   4.226  0.0861  0.1344  0.0656
 5224W        W22072   0.702  15.929  15.449 -0.2073  0.1988 -0.1769
 5225W        W22073   1.618  17.460  14.152  0.1384 -0.2140 -0.3147
 5226W        W22074   2.240   8.675  12.180  0.2000 -0.1730  0.3552
 5227W        W22075   8.351   2.622   3.208  0.2092  0.2880 -0.1201
 5228W        W22076  15.165  16.155  13.862 -0.0804  0.1742 -0.0700
 5229W        W22077  15.158  16.467  13.461 -0.1712  0.0941 -0.1345
 5230W        W22078  11.480   2.977   0.449  0.1423 -0.1510 -0.3008
 5231W        W22079   7.736   3.465   0.090 -0.1617 -0.2903 -0.0860
 5232W        W22080   8.781   4.101   1.413  0.4123  0.1979  0.1320
 5233W        W22081  11.154   5.094  11.678  0.1419 -0.0871 -0.0344
 5234W        W22082   5.447   6.531  11.060  0.2096 -0.0397 -0.0566
 5235W        W22083  13.941   4.906   2.950 -0.3121 -0.0798 -0.0145
 5236W        W22084  17.543  18.207   3.491  0.1786 -0.2724  0.1416
 5237W        W22085   4.587   1.737  11.515  0.2812  0.2262 -0.0330
 5238W        W22086   4.083   2.209   2.986 -0.3250 -0.1132 -0.2277
 5239W        W22087   9.388  16.317  15.798  0.4019  0.0124  0.0985
 5240W        W22088   8.102  12.634  11.966 -0.0517  0.1944 -0.0809
 5241W        W22089  14.817  12.893  15.509  0.0026 -0.4095  0.0306
 5242W        W22090   7.931  17.860  15.602 -0.0315 -0.0690  0.1646
 5243W        W22091  15.261   9.042  10.532 -0.0662  0.0874 -0.1961
 5244W        W22092  16.742   9.550   3.754 -0.1941  0.1425  0.4250
 5245W        W22093  16.080   3.265  11.924 -0.3928 -0.1375 -0.0351
 5246W        W22094  14.145   3.936   1.736  0.2091 -0.2892 -0.1451
 5247W        W22095   3.500   0.059   4.224 -0.0852 -0.1486 -0.1077
 5248W        W22096   5.865   8.407  15.360 -0.0710  0.0938 -0.0669
 5249W        W22097  11.175  12.284  11.542  0.1893  0.0433  0.2271
 5250W        W22098   1.338  10.870  14.709 -0.2054 -0.1204  0.0065
 5251W        W22099  17.384   4.042   1.374  0.1199  0.0353  0.3197
 5252W        W22100   0.577   4.181   4.048  0.1451 -0.1927 -0.2120
 5253W        W22101   2.141  14.886   2.620 -0.1191  0.1197 -0.0042
 5254W        W22102   8.596   3.360  12.714  0.0611 -0.0207 -0.0294
 5255W        W22103  16.344  11.138  15.768 -0.2522 -0.2464  0.3893
 5256W        W22104  12.797   9.851   3.497  0.1682  0.2988  0.1016
 5257W        W22105   6.598   8.773  10.473 -0.1673  0.2175  0.3350
 5258W        W22106   1.791   5.443   1.670 -0.0547  0.0057  0.0624
 5259W        W22107   0.914   3.311  11.124  0.0503 -0.3132  0.1018
 5260W        W22108   1.961  14.414  13.744  0.1603  0.1403 -0.0298
 5261W        W22109  13.003  16.347  15.527 -0.2073 -0.0719 -0.0891
 5262W        W22110  17.393   9.496   5.251 -0.1393 -0.3673  0.3111
 5263W        W22111  15.330   7.906  12.142  0.0634  0.3452 -0.1119
 5264W        W22112  12.548  15.070   2.082  0.3103 -0.0901 -0.1977
 5265W        W22113  13.457   1.214  10.047  0.1043  0.7334  0.0943
 5266W        W22114   7.864   3.165   1.057  0.0446  0.0215  0.2305
 5267W        W22115   0.355  14.030  14.700 -0.0702 -0.1317  0.1330
 5268W        W22116   0.847   0.345  13.545 -0.2033 -0.2529  0.3277
 5269W        W22117   7.633  14.602  13.893 -0.0939  0.0104 -0.2423
 5270W        W22118  17.865  13.829   1.204  0.1219 -0.0236 -0.1428
 5271W        W22119   1.533   7.857  14.285 -0.0024 -0.1398 -0.2774
 5272W        W22120  10.870   3.623  11.844  0.0484 -0.1710  0.1529
 5273W        W22121   9.841  17.784  15.249 -0.2607 -0.1272  0.1480
 5274W        W22122   2.956  16.316  15.337  0.2295  0.3711 -0.2103
 5275W        W22123   2.267  17.361   2.729 -0.1598  0.3636  0.1894
 5276W        W22124  11.064   1.797   0.597  0.2568  0.0345  0.1507
 5277W        W22125  13.362  17.113   0.260 -0.0561  0.0924 -0.1535
 5278W        W22126   8.465  10.985   3.821 -0.0071  0.2942  0.0202
 5279W        W22127  10.502   4.084  14.902 -0.1096 -0.1029  0.1133
 5280W        W22128  15.994  16.663   9.880 -0.0904 -0.2360 -0.0974
 5281W        W22129  13.235  13.136  12.864 -0.0666 -0.0363  0.1340
 5282W        W22130   6.993  13.820  11.797  0.2012 -0.1840 -0.2987
 5283W        W22131   0.027   3.745   1.994  0.4559  0.1816 -0.0979
 5284W        W22132   4.087  15.592  11.868  0.3276  0.0671 -0.1638
 5285W        W22133   6.100   1.661   0.784  0.2667 -0.0003 -0.0316
 5286W        W22134   6.724  15.632  13.452 -0.1685  0.1713  0.0519
 5287W        W22135   4.451  14.182  12.938  0.1029 -0.0003 -0.0654
 5288W        W22136  18.011  17.616   2.571  0.2501  0.0351  0.2499
 5289W        W22137  11.432   4.952  12.592 -0.0944  0.4352 -0.3293
 5290W        W22138   2.372   2.009   2.145  0.0002  0.2546  0.0646
 5291W        W22139  16.673  18.205  13.050 -0.0957 -0.0244  0.1656
 5292W        W22140  13.457   2.394  12.202  0.1206 -0.0587 -0.2100
 5293W        W22141   0.444   0.554   1.215 -0.0653  0.1618  0.2776
 5294W        W22142   3.789   5.627  14.049  0.1182  0.3293  0.2964
 5295W        W22143   4.511   5.963   4.008  0.0510 -0.1620 -0.2465
 5296W        W22144   5.003   0.622  13.078 -0.1893  0.2230  0.4304
 5297W        W22145  10.093   8.996   2.187  0.3047  0.1411  0.0157
 5298W        W22146   3.059   7.322   3.250  0.1726  0.1447 -0.1977
 5299W        W22147  12.273  14.601   3.119  0.2576  0.0698 -0.4485
 5300W        W22148  18.174  18.111  11.493 -0.0678 -0.0693 -0.0732
 5301W        W22149  16.422  10.855   2.794  0.1682 -0.0904  0.1513
 5302W        W22150  10.562  17.792   3.800  0.0156 -0.0623 -0.1048
 5303W        W22151  13.762   1.683  13.841 -0.6307  0.1783  0.1392
 5304W        W22152  14.575   8.811   1.263 -0.2398  0.1365  0.2680
 5305W        W22153   1.935   1.620   5.207  0.0717 -0.1144  0.2583
 5306W        W22154  11.372   4.789   4.061  0.0627  0.1250  0.0967
 5307W        W22155   7.916   1.852  12.417  0.2733  0.2612  0.0466
 5308W        W22156  18.106   9.176   3.429 -0.0144  0.0417 -0.1074
 5309W        W22157   9.984  16.090  14.438 -0.1440 -0.1359  0.0754
 5310W        W22158   4.210  11.745   4.637  0.0260  0.1581  0.2979
 5311W        W22159   3.253  14.945   2.187 -0.1185 -0.1417  0.0878
 5312W        W22160  11.358   6.826   1.110  0.3394  0.1436  0.1753
 5313W        W22161   2.183  17.001   1.417  0.0152 -0.1530  0.0154
 5314W        W22162   5.711   0.500  12.847 -0.0633  0.3008  0.2935
 5315W        W22163   6.871  13.455  11.064  0.0904  0.0614  0.0779
 5316W        W22164  10.728  14.596   5.115 -0.0088 -0.0430  0.3340
 5317W        W22165  13.149  11.856  14.234  0.0233 -0.0210  0.0482
 5318W        W22166   8.003  11.968  12.401  0.0750 -0.1238 -0.2819
 5319W        W22167   0.292  15.089   3.556 -0.2471  0.0760  0.0962
 5320W        W22168   2.125   2.991   0.476 -0.0280  0.0021  0.3283
 5321W        W22169   3.062  14.458  12.653  0.0082  0.1000 -0.2559
 5322W        W22170  17.184  17.380   2.004 -0.0132 -0.0772  0.4311
 5323W        W22171  13.787   0.313  15.273 -0.0621  0.3972 -0.0479
 5324W        W22172  11.732  15.817   4.232 -0.0392  0.3138 -0.3037
 5325W        W22173   5.317  14.262   1.241  0.3523 -0.1162  0.1006
 5326W        W22174   6.973   8.874  13.691 -0.0570  0.1470  0.0066
 5327W        W22175   9.553   7.373   2.633  0.5027 -0.2363 -0.0543
 5328W        W22176   0.870   8.555   3.718  0.1821  0.2929  0.1378
 5329W        W22177  10.622  16.347  12.087  0.0461  0.0491  0.0668
 5330W        W22178  12.445   9.746  13.897 -0.2057  0.0090 -0.2155
 5331W        W22179   1.528   6.797  14.351  0.0564 -0.0345 -0.1987
 5332W        W22180   6.011   8.417   0.191  0.2920 -0.0544  0.1704
 5333W        W22181   5.791   4.177   5.302  0.0819 -0.0885 -0.2412
 5334W        W22182  10.150   5.943  11.503  0.2085 -0.0964  0.0246
 5335W        W22183  10.299  17.883  13.843  0.2258 -0.0776  0.5563
 5336W        W22184  15.906   5.809  12.397 -0.0078  0.0300 -0.0974
 5337W        W22185   3.100  11.839   1.306  0.0898 -0.0417  0.0980
 5338W        W22186   8.488   7.394  11.200 -0.4042  0.0119  0.0435
 5339W        W22187   5.805   0.346  11.034 -0.0487 -0.1499 -0.1587
 5340W        W22188   5.460  10.909  11.848 -0.1148 -0.1528  0.5612
 5341W        W22189   9.602   2.875  15.645 -0.1931 -0.0385  0.0795
 5342W        W22190   4.837   2.781   6.426 -0.1575  0.1458 -0.3297
 5343W        W22191  16.414  15.793   2.177  0.2941  0.0213  0.2551
 5344W        W22192   2.190   9.434   1.750 -0.0797  0.0882 -0.3108
 5345W        W22193   8.280  14.842   1.728 -0.2066 -0.1588  0.0553
 5346W        W22194  13.886  10.477   4.974 -0.2040  0.1977  0.0039
 5347W        W22195  11.379   8.760   6.144 -0.1162 -0.1038  0.2224
 5348W        W22196  11.136  14.017   4.425  0.0171 -0.3334 -0.0167
 5349W        W22197  11.209  17.332  14.217  0.0917  0.1981  0.1097
 5350W        W22198   1.941   9.436   3.307 -0.5217  0.3446 -0.0025
 5351W        W22199   5.677   3.019  14.353  0.1679 -0.0180 -0.0991
 5352W        W22200  16.338   7.400   1.965 -0.1347  0.2550 -0.0393
 5353W        W22201   9.178  13.192   2.941 -0.2916 -0.1287  0.3102
 5354W        W22202   9.835   3.357  13.580  0.1127  0.0131  0.0772
 5355W        W22203  16.638  18.042  14.058 -0.1039 -0.3791 -0.0631
 5356W        W22204   2.189  12.984  14.045 -0.4458  0.0075 -0.2003
 5357W        W22205  17.115   1.859   2.935 -0.2274 -0.1435 -0.0115
 5358W        W22206   6.530   0.614   1.631 -0.2169 -0.2232  0.1818
 5359W        W22207  16.488  16.153   3.127 -0.1551 -0.2926 -0.0751
 5360W        W22208   3.962  16.091  13.989  0.0932  0.3408 -0.0717
 5361W        W22209  17.718  17.231  12.543 -0.1095 -0.0140  0.0626
 5362W        W22210  13.549   9.693  14.030  0.1836 -0.2388 -0.1216
 5363W        W22211  15.661   5.025  12.185 -0.0800 -0.3157  0.0382
 5364W        W22212  16.798  10.834  11.195  0.0295  0.1695  0.1404
 5365W        W22213   5.511   5.788  13.291  0.1992  0.0434 -0.3340
 5366W        W22214   9.739   6.343  13.462  0.1306 -0.2451  0.1181
 5367W        W22215  17.302  11.249  15.444 -0.0596  0.1743 -0.0473
 5368W        W22216  13.949   0.793  15.355  0.0755  0.2216 -0.0088
 5369W        W22217  12.857   2.050  12.241  0.1982  0.0316  0.2589
 5370W        W22218  11.501   4.485   5.414  0.1387  0.1827  0.0420
 5371W        W22219  10.476   9.361   4.178  0.0315  0.2176 -0.0591
 5372W        W22220  17.198   0.855   3.487  0.1607  0.0216 -0.2749
 5373W        W22221  15.114   6.591  13.789  0.0538  0.1599  0.0238
 5374W        W22222   1.803   1.184   0.701  0.0699  0.0083 -0.0098
 5375W        W22223   5.869  17.215   0.740  0.1297  0.0971 -0.3301
 5376W        W22224   9.503  13.704  15.856 -0.0301 -0.5025 -0.0677
 5377W        W22225   2.975  14.820   1.124 -0.1452  0.2031 -0.0555
 5378W        W22226   2.935   1.286  11.223  0.0092 -0.1441  0.0798
 5379W        W22227   8.481   7.427   4.597  0.0603 -0.0581  0.0550
 5380W        W22228  16.775  13.145   2.929  0.0415 -0.1090 -0.2336
 5381W        W22229   4.788  12.938   2.363  0.0642  0.2048 -0.0440
 5382W        W22230   5.738  10.338   2.771  0.0637  0.2242  0.5891
 5383W        W22231  12.553   4.228   4.006  0.1471  0.0646  0.1389
 5384W        W22232  14.836   1.817  14.292 -0.1524  0.0369  0.2158
 5385W        W22233   9.449   0.188   0.790 -0.0874 -0.1908 -0.1806
 5386W        W22234  14.589  11.283  13.426  0.1277 -0.2780  0.0395
 5387W        W22235   1.968   4.810   2.402 -0.2689  0.2746 -0.1725
 5388W        W22236   9.012  18.076  11.018 -0.0513  0.1769  0.2822
 5389W        W22237  11.228  14.077  14.989 -0.2961  0.0360 -0.1471
 5390W        W22238   1.487  16.902   0.143 -0.1950 -0.1301  0.3816
 5391W        W22239   5.828   3.950   1.277  0.0074  0.0477 -0.0198
 5392W        W22240   7.063  11.562   5.200 -0.1126  0.0677  0.0643
 5393W        W22241  17.068   4.439  11.550  0.0684  0.2333  0.4980
 5394W        W22242  12.327  13.291   4.312 -0.1420 -0.0802  0.2618
 5395W        W22243   8.923  12.837   2.369  0.0690  0.1634  0.1826
 5396W        W22244   8.368  13.448   0.004  0.0080 -0.1867  0.3316
 5397W        W22245  10.341  15.720  13.231 -0.2619  0.0253 -0.1993
 5398W        W22246   6.843  15.418   4.451 -0.0169  0.2632  0.0918
 5399W        W22247  16.346   2.170   1.081 -0.0739 -0.1504 -0.0247
 5400W        W22248  14.956   4.016   2.134 -0.2092 -0.1679 -0.1396
 5401W        W22249  16.754   2.813   3.401  0.1211  0.0432  0.0810
 5402W        W22250  11.439  13.630   3.361  0.0812 -0.0477 -0.0074
 5403W        W22251   6.112   5.468   3.362  0.1186 -0.3295 -0.2871
 5404W        W22252   4.113  15.375   0.822 -0.2050 -0.3478 -0.0549
 5405W        W22253   9.717   0.371   3.080 -0.1188  0.1024 -0.1143
 5406W        W22254  15.447   9.071  13.918  0.1625 -0.2867  0.1003
 5407W        W22255  14.154  15.858   4.954  0.1612  0.1869  0.0179
 5408W        W22256  10.766  12.288   5.210  0.1691  0.0994  0.0359
 5409W        W22257   0.701  12.548   2.863 -0.1505 -0.1077 -0.0900
 5410W        W22258   2.811  16.503   5.795 -0.1872  0.1777  0.0041
 5411W        W22259   2.918  14.674  14.497  0.0236  0.0335 -0.0238
 5412W        W22260   0.096  17.759   3.208  0.1057  0.0721 -0.1346
 5413W        W22261  11.187   0.295  11.413 -0.2233 -0.0465 -0.0762
 5414W        W22262  14.702   8.619  10.531 -0.0686  0.0648 -0.0518
 5415W        W22263   6.221   9.413   5.462 -0.1045  0.1116  0.2211
 5416W        W22264  17.985   0.217  13.450  0.0935  0.1966  0.2043
 5417W        W22265   9.301   3.769  14.494  0.2881 -0.2476 -0.0574
 5418W        W22266   4.116  12.698  11.913  0.3246 -0.2242  0.0548
 5419W        W22267   4.311  10.778  13.615 -0.0454  0.1448 -0.3881
 5420W        W22268  11.398  12.579  15.125 -0.4216 -0.1775  0.2740
 5421W        W22269  11.385   5.571  13.139 -0.0595  0.1265 -0.2695
 5422W        W22270   3.546  10.674   1.549  0.1194  0.2207  0.1182
 5423W        W22271  16.257  11.536   4.751 -0.1338 -0.0428  0.0257
 5424W        W22272   3.182   9.850  13.650 -0.1690  0.1184  0.0824
 5425W        W22273   7.575  11.076   2.180  0.3168  0.2169 -0.2520
 5426W        W22274   1.206   1.050   3.939 -0.2913 -0.0160  0.2474
 5427W        W22275   8.345  16.320  14.123 -0.0393  0.0423  0.3834
 5428W        W22276   3.022  15.534  15.026 -0.2343  0.2482 -0.0722
 5429W        W22277   8.895  13.901   3.571  0.1944  0.3970  0.0314
 5430W        W22278   8.319   5.001   2.781 -0.0778 -0.1349  0.2986
 5431W        W22279   5.021  10.849  14.096 -0.3721 -0.1883 -0.1119
 5432W        W22280   1.552  10.100   2.439 -0.1283  0.1126 -0.4016
 5433W        W22281   8.558  17.021  14.861  0.1373  0.0992  0.0151
 5434W        W22282   4.966  10.173   4.961 -0.0274  0.1019 -0.0436
 5435W        W22283  15.758  15.367   1.002 -0.0727  0.0960  0.1326
 5436W        W22284   5.337  15.113  11.988  0.0773 -0.0895  0.1040
 5437W        W22285  14.671   3.008  10.637 -0.0761 -0.1236 -0.0113
 5438W        W22286   5.131   1.800  12.397 -0.1850 -0.2134  0.1539
 5439W        W22287   1.354   0.801  13.000  0.2847 -0.0682 -0.2752
 5440W        W22288   3.879   8.251  10.825  0.0399 -0.0327 -0.0217
 5441W        W22289  14.702  17.301   0.628 -0.0364  0.0167  0.2230
 5442W        W22290   2.180  14.316   0.128 -0.0191 -0.0234 -0.0237
 5443W        W22291  12.814   2.118   4.903 -0.4214  0.0098  0.1510
 5444W        W22292   9.857  16.153  13.895  0.7221 -0.0686 -0.1546
 5445W        W22293  17.916  17.190  13.154  0.1111 -0.1079  0.0143
 5446W        W22294   9.139  15.672  13.353 -0.0632 -0.1432 -0.1487
 5447W        W22295  15.831   9.296   4.129  0.2394  0.2510  0.0096
 5448W        W22296  15.469  13.865  13.307  0.2310  0.0432 -0.1356
 5449W        W22297   9.377  14.412  14.396 -0.1008  0.2804  0.1642
 5450W        W22298   9.104  12.035   0.675 -0.0142 -0.2356 -0.0483
 5451W        W22299  14.538   4.218  15.930  0.0362  0.0907 -0.1848
 5452W        W22300  13.705  10.632   2.723 -0.1172 -0.3206 -0.4049
 5453W        W22301  17.742   2.059  14.159  0.0951  0.0753  0.1428
 5454W        W22302   5.162   4.960   4.254 -0.0080 -0.1107  0.0554
 5455W        W22303   6.172  15.783  15.100  0.0157 -0.2352  0.5333
 5456W        W22304   3.387   2.908  14.500 -0.0709  0.0341  0.0066
 5457W        W22305   8.625  10.763   1.588 -0.2037 -0.1450  0.0267
 5458W        W22306   8.863  12.463  11.558 -0.2450  0.0924 -0.0344
 5459W        W22307   3.076   7.758   6.140 -0.1662 -0.1516  0.2878
 5460W        W22308  17.386  12.060   3.183 -0.0457 -0.0033  0.0054
 5461W        W22309  16.069  12.573   1.879  0.1263  0.0086 -0.2348
 5462W        W22310   0.839  15.973   3.594  0.0681 -0.0527  0.1180
 5463W        W22311   4.823   1.322   2.753  0.2660  0.1670 -0.1915
 5464W        W22312   1.848  11.611   1.735  0.1781  0.2017  0.1512
 5465W        W22313  10.252   0.249   1.675 -0.2167 -0.0651  0.0319
 5466W        W22314   0.890  16.109  12.414 -0.1231 -0.1112  0.3205
 5467W        W22315  17.804  10.361   2.005 -0.1268  0.2771 -0.2537
 5468W        W22316   0.470  14.140  15.711  0.1608  0.0167 -0.1877
 5469W        W22317   0.492   5.396  11.896  0.1903 -0.4993 -0.0702
 5470W        W22318  15.167  10.423   0.953  0.0110 -0.0604  0.0839
 5471W        W22319   1.021  16.971   1.566  0.1368 -0.0173 -0.0546
 5472W        W22320  11.224   3.430   1.580  0.0203 -0.1543  0.0519
 5473W        W22321  10.480   3.699  12.713 -0.1787 -0.0821 -0.0550
 5474W        W22322  16.426   9.913  14.880 -0.0958  0.4065  0.0146
 5475W        W22323   2.031   9.670  12.112  0.0761  0.0100  0.0706
 5476W        W22324  12.043   9.205   1.999  0.1179  0.2047 -0.2500
 5477W        W22325   7.583  10.371  14.662 -0.3040  0.1657  0.0452
 5478W        W22326   1.666   6.903  10.867 -0.2989  0.1476 -0.1888
 5479W        W22327  13.830   8.374   5.094 -0.0646 -0.2104  0.0218
 5480W        W22328   7.365  17.043  12.271  0.0259 -0.0622 -0.1182
 5481W        W22329  11.772   2.344   9.923  0.1389 -0.1866 -0.0361
 5482W        W22330   3.136   5.800  11.221 -0.0192  0.1175 -0.1391
 5483W        W22331   2.214   6.233   5.967 -0.0870  0.1560 -0.0605
 5484W        W22332   0.832  15.466   1.184  0.0378  0.2650  0.1816
 5485W        W22333   4.978  13.365   2.266  0.1560 -0.5142  0.1040
 5486W        W22334  12.136   8.848  13.144  0.0927 -0.0832  0.1105
 5487W        W22335  15.673  10.217  14.058 -0.3705 -0.2785 -0.4741
 5488W        W22336  14.429   3.689  15.651 -0.1978  0.1304  0.2986
 5489W        W22337   1.357   5.097   5.421  0.0841 -0.1348 -0.2088
 5490W        W22338  11.373   2.901   2.796  0.1499 -0.1207  0.1913
 5491W        W22339   2.732  15.856   3.914 -0.0283  0.0230  0.2146
 5492W        W22340   3.182   9.932   4.789  0.1502  0.0480 -0.0110
 5493W        W22341   4.927  16.204   2.851  0.1224  0.3412  0.2450
 5494W        W22342   1.187   6.811   0.025  0.0049 -0.2702  0.2570
 5495W        W22343   6.840   3.854   2.641 -0.0858 -0.0784 -0.0843
 5496W        W22344   7.504   6.801  13.944 -0.0648  0.4698  0.1152
 5497W        W22345  17.843   5.091  10.738  0.0383 -0.1383 -0.0683
 5498W        W22346  13.719   5.224  13.400 -0.0807 -0.0217  0.0114
 5499W        W22347   6.075  12.197  10.633 -0.3279  0.0286 -0.3286
 5500W        W22348   9.123  12.120  13.954 -0.0165 -0.0169  0.1214
 5501W        W22349  10.577   9.432   1.868  0.0754  0.0942 -0.0373
 5502W        W22350   8.877  17.240  13.128 -0.1951 -0.0080 -0.0473
 5503W        W22351   2.428   2.436   2.489 -0.0076 -0.3578  0.1306
 5504W        W22352  10.196   2.100  14.967 -0.0390 -0.3765 -0.0893
 5505W        W22353   7.721  17.336   2.961  0.2535  0.1626 -0.2957
 5506W        W22354  11.296   3.599   3.376  0.0738 -0.1523  0.1551
 5507W        W22355   9.637   6.820   5.030 -0.2375 -0.1288  0.1783
 5508W        W22356   5.595  10.775  15.184  0.2758  0.0206 -0.0481
 5509W        W22357   6.136   1.779  14.003 -0.5405  0.2588 -0.2461
 5510W        W22358   6.089   6.652   0.468 -0.3077  0.0414 -0.0364
 5511W        W22359   7.609  15.485  15.075 -0.2866 -0.1338 -0.1080
 5512W        W22360  18.118  15.892  11.508 -0.1674  0.0538  0.2344
 5513W        W22361  11.991  12.210  13.189  0.3576  0.0056  0.1739
 5514W        W22362  12.974  16.665  14.872  0.2744 -0.1232  0.1506
 5515W        W22363  10.853   6.316  13.540  0.0444  0.2597 -0.0707
 5516W        W22364  10.480  15.482   1.884 -0.1869 -0.2621  0.2323
 5517W        W22365   8.785   9.835   5.877 -0.3114 -0.1102 -0.2789
 5518W        W22366  17.293  17.372  10.601  0.0340  0.0404 -0.0378
 5519W        W22367  15.778   3.017   4.099 -0.0535 -0.1428  0.1660
 5520W        W22368  17.553  15.200  10.887  0.3754  0.1541 -0.1122
 5521W        W22369  11.528  15.893   0.806  0.0408  0.2299 -0.0014
 5522W        W22370   8.301   8.731   0.653 -0.2118 -0.4011  0.2405
 5523W        W22371  16.789  10.589  12.164  0.2492 -0.1922  0.0018
 5524W        W22372   4.357   9.375  10.951  0.2285  0.1703 -0.0666
 5525W        W22373  12.877  16.821  11.598 -0.0305  0.1244 -0.1138
 5526W        W22374   5.980   1.822  11.848  0.0622  0.0605  0.0821
 5527W        W22375  12.220  14.190   4.672 -0.1893  0.1108 -0.0163
 5528W        W22376   5.728  14.640  14.908  0.3480 -0.0828 -0.0981
 5529W        W22377   7.362  15.978   4.101 -0.2173  0.4322  0.0008
 5530W        W22378   5.327  15.711  11.188 -0.0633  0.1260  0.0402
 5531W        W22379  16.204   3.290  15.208 -0.1050  0.1716  0.0307
 5532W        W22380  17.627   2.047   3.049 -0.3805 -0.3078 -0.0466
 5533W        W22381  13.464   5.412  10.764  0.3478  0.0099  0.2533
 5534W        W22382   3.981   3.138  16.109  0.1490  0.0756  0.3526
 5535W        W22383   4.316   0.009  11.559  0.0215 -0.2749  0.2027
 5536W        W22384  16.912  13.043  11.162  0.2898  0.0200 -0.1024
 5537W        W22385   2.486   9.880  11.136 -0.1011  0.1120  0.0543
 5538W        W22386  15.142   3.230  14.333 -0.1025 -0.0091 -0.0933
 5539W        W22387   8.608  15.545   3.886  0.1489 -0.2035  0.2698
 5540W        W22388   8.106  13.049   0.290 -0.0462  0.1794  0.2576
 5541W        W22389   2.468  10.965   9.742  0.1121  0.3874 -0.4014
 5542W        W22390   8.149   5.215   0.395 -0.1184  0.0735  0.1870
 5543W        W22391   1.689   7.895  12.476  0.0433  0.0884  0.1190
 5544W        W22392   4.914   3.946   0.828  0.1535 -0.0959  0.1707
 5545W        W22393  12.645  10.372   3.558  0.0729  0.2194  0.0389
 5546W        W22394   1.344   4.322  14.741  0.1699  0.2543  0.1099
 5547W        W22395  11.325   8.972   4.110 -0.2882 -0.2167 -0.0788
 5548W        W22396   1.784   4.521  14.528 -0.0041 -0.1380 -0.2592
 5549W        W22397   6.064  16.864  15.260  0.1837 -0.1617 -0.2963
 5550W        W22398   7.467  16.194   5.285 -0.1020  0.1713 -0.1953
 5551W        W22399  14.295  12.367   2.784  0.1441  0.1992  0.2862
 5552W        W22400  16.653   4.082   2.957  0.3673 -0.0801  0.2517
 5553W        W22401   0.408  10.343  12.738 -0.1948 -0.3816 -0.2267
 5554W        W22402   5.324   4.841   2.426 -0.1988  0.1076 -0.1646
 5555W        W22403  16.868   5.691  14.451  0.1485  0.0482  0.1896
 5556W        W22404   9.846   2.522   4.090 -0.3812 -0.0625  0.0861
 5557W        W22405  10.830  14.713   0.806  0.3829 -0.0744  0.0271
 5558W        W22406   1.774   4.232  15.021 -0.3171 -0.2455  0.2029
 5559W        W22407   7.415   4.684   2.888 -0.0842 -0.1353  0.0106
 5560W        W22408   2.115   5.966  15.013 -0.1457  0.0675 -0.0952
 5561W        W22409   3.947  13.228   6.091  0.0778  0.3015  0.1186
 5562W        W22410  17.376  11.199   3.925  0.2296  0.1483  0.0998
 5563W        W22411   2.883   5.179  15.441 -0.0339  0.0011  0.2740
 5564W        W22412  15.986   4.657   2.771 -0.2792 -0.0313 -0.0793
 5565W        W22413  15.120  16.124   2.228 -0.1284  0.3732  0.2682
 5566W        W22414   2.313   9.679   3.596  0.2031 -0.0812 -0.0012
 5567W        W22415   2.933  14.769  15.399  0.0622 -0.0952  0.1011
 5568W        W22416  10.988   1.214  12.023  0.3107  0.0862  0.2142
 5569W        W22417   7.209   0.619  16.017 -0.0080  0.1766  0.1067
 5570W        W22418  12.321  12.083  12.812 -0.2496  0.0457  0.0474
 5571W        W22419  14.668   2.055  13.462 -0.2388 -0.2601  0.4448
 5572W        W22420   0.557  11.429  10.809 -0.1621  0.1210  0.0534
 5573W        W22421  17.363  14.269  13.189 -0.0633 -0.0511 -0.1036
 5574W        W22422  12.531  10.755  13.116  0.1676 -0.3222  0.0332
 5575W        W22423   1.948  14.725  14.927 -0.0748  0.1138 -0.2670
 5576W        W22424   4.299   5.224  14.087  0.1849  0.2193 -0.0148
 5577W        W22425  12.751  15.113   2.599  0.1911 -0.0717  0.2040
 5578W        W22426   5.096  18.138   3.731  0.3637  0.2135 -0.3469
 5579W        W22427  12.968   4.141  14.494 -0.0254  0.1194  0.0705
 5580W        W22428  15.064   5.736   1.588 -0.1437  0.0734 -0.0775
 5581W        W22429  10.018  12.213   2.101  0.4639 -0.0590 -0.1320
 5582W        W22430  11.131   9.832  13.493 -0.0351  0.1307  0.2401
 5583W        W22431  18.022  12.063  12.957 -0.0328 -0.0543 -0.4702
 5584W        W22432  16.902   7.800   0.010 -0.2299 -0.0570  0.1380
 5585W        W22433  15.521  11.963  11.932  0.1435  0.0947 -0.2127
 5586W        W22434   2.039  12.950   3.534  0.0613 -0.1669 -0.0519
 5587W        W22435  16.289   8.544   3.666 -0.1424 -0.4675 -0.0859
 5588W        W22436   0.285  16.635  12.782 -0.1896  0.1212 -0.3001
 5589W        W22437   6.854   7.067   1.620  0.1648 -0.1250  0.0913
 5590W        W22438  16.928  11.338  15.031 -0.1134 -0.2549 -0.6788
 5591W        W22439   2.331   1.444  14.805 -0.0363 -0.0395  0.0527
 5592W        W22440   7.644   8.217   3.765 -0.1132 -0.0069 -0.3287
 5593W        W22441  16.137   5.581   0.422 -0.2924  0.2412 -0.1670
 5594W        W22442  17.756  15.447  15.471 -0.2147 -0.0433  0.2147
 5595W        W22443   4.114   1.178  15.281  0.0789  0.1164  0.2742
 5596W        W22444  10.674  10.827   2.288 -0.1849 -0.1144  0.1076
 5597W        W22445  11.585   5.539  12.634  0.3092 -0.0766  0.0399
 5598W        W22446   3.574  10.601   4.175  0.0866 -0.0458  0.0320
 5599W        W22447   2.187   3.965   1.747  0.0675 -0.0261  0.0047
 5600W        W22448  15.056   1.189  15.357  0.1892 -0.3215  0.0884
 5601W        W22449  13.239   4.218  13.491  0.3044  0.0742  0.2304
 5602W        W22450  10.642  17.312  11.492  0.1112  0.2980 -0.0212
 5603W        W22451   5.770   9.821   5.469  0.2357 -0.1706 -0.1850
 5604W        W22452   3.932  12.704  16.018 -0.0697 -0.6426  0.0242
 5605W        W22453  12.810   5.830   2.940  0.0483 -0.0287  0.1422
 5606W        W22454   3.409  13.261  12.344 -0.0479  0.1509  0.1583
 5607W        W22455   5.534  14.713   4.517  0.2990  0.0877 -0.2152
 5608W        W22456   5.458   2.749  15.451  0.1265 -0.2058 -0.1376
 5609W        W22457   0.277  17.183   4.743  0.2252 -0.0382  0.3693
 5610W        W22458  12.703   8.448  11.770  0.1403 -0.1701  0.3874
 5611W        W22459   1.495  17.297  12.488  0.4009  0.1111 -0.0679
 5612W        W22460   4.721  10.906  14.986  0.2805 -0.1314 -0.0046
 5613W        W22461   4.201   5.989   4.859 -0.0958  0.1098 -0.1149
 5614W        W22462  15.980   1.779   1.168  0.3872  0.0625 -0.2542
 5615W        W22463   2.734   7.260   4.565 -0.1934 -0.1733  0.0709
 5616W        W22464   5.827   5.829   3.066  0.0913  0.2218  0.1682
 5617W        W22465   4.782  15.067  12.915 -0.0311  0.1597 -0.0260
 5618W        W22466   9.001   6.919   3.412 -0.3828 -0.1775  0.0609
 5619W        W22467  16.235   1.667   2.892 -0.2708  0.0070 -0.0863
 5620W        W22468   1.494  12.376  12.466  0.2942 -0.0719  0.0653
 5621W        W22469   1.230   9.525   1.329 -0.0965 -0.0273  0.1388
 5622W        W22470   9.793  14.809   4.672 -0.0607  0.1813 -0.3169
 5623W        W22471   2.375  15.134  11.786  0.4040  0.0783 -0.1724
 5624W        W22472   7.144  13.058   1.712  0.0549  0.1734 -0.0539
 5625W        W22473  11.260  14.520  14.470  0.0584  0.2573 -0.0437
 5626W        W22474   7.149   2.320   4.501  0.1397  0.1740 -0.1119
 5627W        W22475  17.790   5.905   3.429 -0.1970 -0.2057  0.0917
 5628W        W22476   6.994  15.197  13.521 -0.1332 -0.0095  0.1268
 5629W        W22477   3.196   7.611   4.413  0.0216 -0.1243 -0.0509
 5630W        W22478   5.843   1.946   0.350 -0.0956  0.0992 -0.1607
 5631W        W22479  17.525  10.110  13.685 -0.2310 -0.0027  0.2204
 5632W        W22480   8.655   9.554   3.163  0.0516 -0.1140  0.3624
 5633W        W22481   0.752   2.998   2.941 -0.0210 -0.0396 -0.1706
 5634W        W22482  15.708  11.331   4.934  0.3972  0.1819  0.0039
 5635W        W22483  11.688   2.155   0.741 -0.3178 -0.1083  0.1975
 5636W        W22484   8.475  14.661  14.193  0.2708 -0.3221  0.0127
 5637W        W22485  17.033  10.842  15.329 -0.2524 -0.0525  0.1415
 5638W        W22486   9.099  10.051  11.385  0.0192 -0.3088 -0.1194
 5639W        W22487  10.186  10.954   0.632 -0.0944  0.1061  0.1877
 5640W        W22488   3.466   1.118  12.772  0.1221  0.0707  0.1883
 5641W        W22489  18.040   6.409   5.437  0.1730  0.3927  0.2817
 5642W        W22490  13.349   4.112  15.082 -0.1311  0.3593  0.1673
 5643W        W22491  12.419  13.659   4.728 -0.2442  0.1037 -0.1589
 5644W        W22492  14.547   6.732  15.602  0.1175  0.0631 -0.2923
 5645W        W22493  10.025  12.008   2.754 -0.1887  0.1065  0.4331
 5646W        W22494  12.250  15.258  11.680 -0.3207 -0.3274 -0.1061
 5647W        W22495  16.497   6.337  12.935 -0.0865  0.2526 -0.0825
 5648W        W22496   0.512  13.142  11.266  0.2319  0.0989 -0.0545
 5649W        W22497   9.820   9.820  11.856 -0.2223  0.0738  0.4024
 5650W        W22498  10.919  14.164  15.961 -0.0858  0.0217 -0.1264
 5651W        W22499   0.002   4.915  11.503 -0.0345  0.0470 -0.3192
 5652W        W22500   4.229   8.484   3.438 -0.0223 -0.1628 -0.0189
 5653W        W22501   9.866   1.764  15.284 -0.1599  0.0693  0.2234
 5654W        W22502  11.779   8.469   5.030  0.1901  0.0259  0.2378
 5655W        W22503  17.971   8.030  13.264  0.2355  0.1268  0.0847
 5656W        W22504   0.437   5.688   3.531  0.3012 -0.0571  0.0240
 5657W        W22505   6.193   7.615   1.019  0.0834  0.0483  0.1584
 5658W        W22506  12.476  10.802   0.261  0.2228 -0.1048  0.0201
 5659W        W22507   5.072   9.618  11.884  0.0690 -0.3212  0.1569
 5660W        W22508  18.181  15.826   4.160  0.3573  0.0178 -0.0395
 5661W        W22509  17.824   3.095  14.208  0.4899  0.1100 -0.0139
 5662W        W22510   4.281   1.457   0.952  0.1285  0.3050  0.0149
 5663W        W22511  15.176   0.016  11.110  0.1403 -0.3420  0.1319
 5664W        W22512   0.878  15.170   0.801  0.2192 -0.0470 -0.0938
 5665W        W22513   4.039   7.380  14.213  0.0794 -0.0801  0.1030
 5666W        W22514   5.382   2.021   6.031 -0.3909  0.0342  0.2478
 5667W        W22515   6.630  12.481   2.864 -0.3327  0.1385 -0.2646
 5668W        W22516  17.688  10.165   3.332 -0.2617  0.0499 -0.1084
 5669W        W22517   5.821  14.231   1.419 -0.2127 -0.0431  0.0061
 5670W        W22518   8.427  16.165  15.495 -0.1558 -0.2831 -0.0215
 5671W        W22519   6.954   5.989   3.031 -0.3124 -0.0170 -0.2806
 5672W        W22520   5.746  13.597  10.299 -0.0115  0.1868 -0.0335
 5673W        W22521   6.875  10.817  15.107  0.0947 -0.2283  0.3516
 5674W        W22522   0.470  17.643  11.936  0.1251  0.0350  0.2176
 5675W        W22523   7.519  13.277   5.333  0.1776 -0.1565  0.0169
 5676W        W22524  14.376  14.908  15.657  0.3184 -0.0443  0.0912
 5677W        W22525  17.415  14.306   2.951 -0.2043 -0.0227 -0.2502
 5678W        W22526   8.862  17.667   1.738  0.1367  0.1072 -0.0735
 5679W        W22527  17.977   5.527  14.885 -0.0413  0.2639  0.0712
 5680W        W22528  15.290  11.099  12.549  0.1916 -0.1897  0.0769
 5681W        W22529   8.421  15.981   2.110  0.3518 -0.1411 -0.1553
 5682W        W22530   3.127   2.905  10.754 -0.2192 -0.2601 -0.1444
 5683W        W22531   1.997   8.397   0.040  0.3257  0.0807 -0.0251
 5684W        W22532  16.378  12.346  14.860 -0.2934 -0.0187  0.0268
 5685W        W22533   9.283  14.085  14.038  0.2310 -0.1203 -0.2745
 5686W        W22534   9.484   2.782  13.275 -0.0196  0.2725 -0.3313
 5687W        W22535   9.331  13.772  10.811 -0.0953 -0.2221 -0.2545
 5688W        W22536  12.994  17.436   3.008  0.0324  0.4161  0.1868
 5689W        W22537  17.913   8.684  13.676  0.1652  0.2488  0.3227
 5690W        W22538   4.010   9.353  12.614  0.0838 -0.2806  0.1653
 5691W        W22539   6.976   7.609   0.266  0.2058  0.1087  0.3207
 5692W        W22540   2.168  10.614   1.796  0.2134 -0.1343  0.3718
 5693W        W22541  15.772   9.971   1.930  0.0290  0.1690 -0.1731
 5694W        W22542   9.888  15.904  11.811  0.0715  0.2140 -0.1312
 5695W        W22543   6.919  14.699  11.306 -0.0130 -0.0870  0.3808
 5696W        W22544  13.619  18.175   2.302 -0.2357  0.1540  0.3661
 5697W        W22545   1.593   9.512   5.759 -0.2712  0.0848 -0.2027
 5698W        W22546   6.971  15.635  12.557  0.0729 -0.0171 -0.3388
 5699W        W22547   1.236  13.045  13.236 -0.0837  0.1088  0.2487
 5700W        W22548  17.081   0.719  14.774  0.1145 -0.2553  0.1923
 5701W        W22549  13.108  16.215   2.638  0.3822 -0.1832 -0.0547
 5702W        W22550   1.758   9.238  15.132  0.0811 -0.1914  0.0882
 5703W        W22551   1.789   5.234  12.473 -0.1595  0.0656 -0.0983
 5704W        W22552  18.067   1.175   2.893  0.4452  0.0366 -0.2127
 5705W        W22553   0.519   0.289   5.032  0.0784 -0.1518  0.2207
 5706W        W22554   3.868  10.557   0.179 -0.0109  0.1246 -0.0669
 5707W        W22555  15.579  14.327   1.588 -0.1345 -0.0817 -0.1651
 5708W        W22556   7.710   5.442  13.124 -0.0275 -0.1136 -0.1275
 5709W        W22557  10.089  10.177  15.777  0.2317  0.1531 -0.0555
 5710W        W22558  13.000   4.877   0.799 -0.1988 -0.1834 -0.1145
 5711W        W22559   8.095   9.940  11.445  0.1212  0.3583  0.0165
 5712W        W22560   7.905  16.396   0.631  0.0160  0.0645  0.0561
 5713W        W22561   9.592   8.093   3.035 -0.0503  0.0531  0.1002
 5714W        W22562  15.570  14.166   4.222 -0.0876  0.1008  0.2258
 5715W        W22563  16.114  15.989   2.484 -0.0421  0.0287 -0.0976
 5716W        W22564   3.879  14.173  13.652 -0.1517 -0.0091 -0.0166
 5717W        W22565   9.523  16.541  11.866  0.3632 -0.1144  0.0271
 5718W        W22566  13.541   6.298   1.698  0.0413 -0.2739  0.2232
 5719W        W22567   2.129  12.494  14.325 -0.2809 -0.3449 -0.1519
 5720W        W22568  16.940   2.020  14.495 -0.0427 -0.0279  0.2546
 5721W        W22569   1.545   2.623  12.571 -0.4883  0.0256  0.2245
 5722W        W22570   2.179  12.064   4.452 -0.1302  0.1603  0.0100
 5723W        W22571  12.774  15.486  13.239 -0.0327 -0.1546 -0.1792
 5724W        W22572  10.111   5.872   4.167 -0.1601  0.0928 -0.1676
 5725W        W22573  13.867  16.048   1.300 -0.0157 -0.0818 -0.0593
 5726W        W22574  18.119   1.078   3.714 -0.0618  0.1066  0.1948
 5727W        W22575   6.725   5.805  15.692 -0.1918 -0.0404 -0.0950
 5728W        W22576  11.719  12.255   5.350  0.1494  0.0914 -0.2183
 5729W        W22577   7.455   9.434  15.501  0.3464 -0.2227  0.3131
 5730W        W22578  13.620   8.562   0.395 -0.1774 -0.0998 -0.2268
 5731W        W22579  17.943   2.659  13.943 -0.2191 -0.2917 -0.0315
 5732W        W22580  14.125  13.626   1.985  0.1087  0.2039  0.0672
 5733W        W22581   1.263  11.257  11.703  0.2465  0.1041  0.0389
 5734W        W22582   7.466  17.029   5.338  0.1324  0.0300  0.0108
 5735W        W22583   6.098  11.578   5.185 -0.0803  0.3621 -0.1135
 5736W        W22584  10.610  11.358   2.379  0.0599 -0.1587 -0.1081
 5737W        W22585   0.415   1.647   5.016  0.1541  0.0136 -0.3303
 5738W        W22586   1.930   0.601   3.114  0.2821  0.4356  0.1796
 5739W        W22587   6.706  17.159  14.597 -0.1965 -0.1502  0.1165
 5740W        W22588  15.884  16.895  15.443 -0.2693  0.1082  0.2636
 5741W        W22589   2.511  10.557   1.174 -0.2690 -0.0905  0.2163
 5742W        W22590   8.208   6.824  13.730 -0.1430  0.0423  0.2717
 5743W        W22591   4.148  14.673  12.139  0.3637 -0.1603 -0.4298
 5744W        W22592  13.274   6.045   1.280 -0.0620 -0.0435 -0.0374
 5745W        W22593  16.052   5.738   4.907  0.2281  0.2072  0.0513
 5746W        W22594   3.263  12.172   4.756 -0.0475 -0.0365  0.0362
 5747W        W22595   6.216  11.440   4.662  0.2808 -0.0769  0.0101
 5748W        W22596   7.815   1.127  14.661 -0.0935  0.1389 -0.1943
 5749W        W22597   1.953  17.540  11.660  0.1330 -0.0821  0.1058
 5750W        W22598  14.665   1.528   1.107 -0.0581  0.1196  0.0482
 5751W        W22599   0.606   0.042  13.816  0.2156  0.2874  0.0514
 5752W        W22600   8.828  11.016  13.270 -0.0321 -0.0364 -0.0033
 5753W        W22601   8.512   5.841  13.335 -0.2638 -0.0180 -0.1930
 5754W        W22602  17.392   4.061   2.353 -0.1483 -0.2230  0.2595
 5755W        W22603   8.891   3.836  15.162 -0.2708  0.1751 -0.2067
 5756W        W22604   3.946  14.847  15.095 -0.1092  0.0088  0.0992
 5757W        W22605   7.163  14.402   4.929 -0.0415  0.1451 -0.0685
 5758W        W22606   5.735  10.797  12.859 -0.2283 -0.1172  0.1132
 5759W        W22607   6.345  16.576   0.529  0.2560  0.1457 -0.4823
 5760W        W22608   5.766   4.019   0.343 -0.0608  0.0995  0.2305
 5761W        W22609  11.904  12.872  15.004  0.1955  0.1366 -0.2263
 5762W        W22610   0.812  17.647   9.743 -0.3452  0.1384  0.0661
 5763W        W22611  15.978  17.714   3.755 -0.2311 -0.0936 -0.2639
 5764W        W22612  13.273   6.525   2.638 -0.1996 -0.0373 -0.0434
 5765W        W22613  10.233  11.907  14.892  0.1734 -0.0472 -0.1236
 5766W        W22614  16.750  11.220   3.528  0.1664 -0.2231  0.0975
 5767W        W22615   2.662  14.675   2.973 -0.0846  0.1887 -0.3591
 5768W        W22616   1.543  11.748  14.479  0.0705 -0.0339 -0.0431
 5769W        W22617  14.137   0.013  15.983 -0.1221  0.1598 -0.0926
 5770W        W22618   3.679   1.977   3.243  0.0795  0.1644  0.0133
 5771W        W22619  11.628  11.750  15.620 -0.0055  0.0551 -0.2806
 5772W        W22620   3.749  11.038   4.917 -0.1298 -0.0524 -0.0997
 5773W        W22621   3.340  16.241   4.939  0.1063 -0.1391  0.3066
 5774W        W22622   9.296  15.171  10.909 -0.2277  0.0675  0.1333
 5775W        W22623  13.886  17.889  11.188  0.0427  0.0670  0.0715
 5776W        W22624   5.724  13.952   2.357  0.0689  0.1524 -0.0321
 5777W        W22625  13.508   9.410   2.051  0.0516  0.2637  0.4006
 5778W        W22626   2.511  14.624   1.080  0.3071 -0.0211  0.0014
 5779W        W22627   5.469  15.491   0.782 -0.3437  0.0585 -0.1315
 5780W        W22628   7.388   1.645   4.029 -0.0329  0.1532  0.1317
 5781W        W22629   8.892   4.798   0.651  0.1116  0.2011  0.0409
 5782W        W22630   5.949   0.732  14.379  0.0461  0.1896  0.1924
 5783W        W22631  16.325   1.559  11.477 -0.0862  0.2951  0.1136
 5784W        W22632   3.174  11.892   5.155 -0.0658 -0.3836 -0.4255
 5785W        W22633   9.716   2.225   1.266 -0.1843  0.1705  0.1426
 5786W        W22634  13.114   3.928  15.551  0.2192 -0.0183 -0.4274
 5787W        W22635  11.762  13.038  13.721  0.2070 -0.2342  0.0171
 5788W        W22636   4.676   4.795   5.542  0.1218  0.0740 -0.2357
 5789W        W22637   4.908   0.405  13.981  0.2006 -0.1295  0.2457
 5790W        W22638   6.216   5.785  10.654  0.2932  0.0849 -0.0463
 5791W        W22639   8.158   5.499  15.631 -0.1704  0.3129  0.0667
 5792W        W22640   5.318   8.079   3.141  0.0034 -0.0370 -0.2438
 5793W        W22641  15.369  16.267   0.154  0.1066 -0.1765 -0.2623
 5794W        W22642   3.957  13.198  12.289 -0.4440  0.0866 -0.3216
 5795W        W22643  15.991   9.202  14.785  0.0244 -0.2666  0.3610
 5796W        W22644   9.641   5.141   2.535  0.0210 -0.1385  0.2528
 5797W        W22645   5.316   3.256   0.609 -0.2594 -0.0251 -0.0072
 5798W        W22646   1.924   9.995  15.568  0.0609  0.1311  0.3034
 5799W        W22647  11.478   2.796  11.939  0.0144 -0.0333  0.0141
 5800W        W22648   2.761   3.414  12.408 -0.0178  0.1224 -0.1331
 5801W        W22649  12.083  12.270  11.563  0.0077 -0.1814  0.5590
 5802W        W22650   2.399   4.742   1.619  0.0621 -0.3230  0.2844
 5803W        W22651   6.083  11.300  13.563  0.3192  0.2413 -0.1256
 5804W        W22652  11.637   1.362   5.000 -0.0109 -0.0673  0.3826
 5805W        W22653  17.265   3.658   3.607 -0.1873 -0.1314  0.1853
 5806W        W22654   7.425  14.954   4.433  0.0287  0.1530 -0.0504
 5807W        W22655   9.824  16.785  11.593  0.1671 -0.0925  0.1817
 5808W        W22656  17.597  11.589   1.279  0.0600 -0.3041  0.2677
 5809W        W22657   6.756   5.368  11.521  0.0654  0.0092  0.3731
 5810W        W22658  17.808   3.821  11.930  0.1660 -0.0649 -0.1295
 5811W        W22659   0.318   1.597  14.680 -0.3234  0.1563 -0.2243
 5812W        W22660  11.151   1.118   2.588 -0.0625 -0.0002  0.2512
 5813W        W22661   4.513  15.489   1.631  0.2806  0.0907 -0.0733
 5814W        W22662   3.778  11.497  10.726 -0.0724  0.2349 -0.1493
 5815W        W22663   4.095   8.872   4.509 -0.0421 -0.0583 -0.1836
 5816W        W22664  11.621   3.800  11.524  0.1150 -0.0390  0.0860
 5817W        W22665  17.534  14.844  15.951 -0.2449 -0.2841 -0.0635
 5818W        W22666  14.574   3.539   4.055  0.0152 -0.2769 -0.0048
 5819W        W22667   4.765   6.614   3.000  0.0648  0.0240 -0.1978
 5820W        W22668   1.965   6.107  11.212  0.1602  0.1870  0.0130
 5821W        W22669   8.983  12.277   4.487 -0.1472  0.0606  0.1422
 5822W        W22670  13.381   5.152   4.245 -0.4612 -0.4000 -0.1708
 5823W        W22671  10.345   2.760   4.026  0.3592 -0.2051 -0.0260
 5824W        W22672  15.053   7.783  12.920 -0.1873  0.0712 -0.3361
 5825W        W22673   6.701   8.924   2.992 -0.4972 -0.0021 -0.0665
 5826W        W22674  12.325   2.134  10.469  0.0789  0.0094 -0.0693
 5827W        W22675   2.099  10.246  14.053  0.1114  0.0355 -0.0617
 5828W        W22676  11.893  12.608  13.547 -0.0474 -0.0083 -0.0421
 5829W        W22677  13.747   7.028  14.963 -0.0307  0.0646 -0.2883
 5830W        W22678  13.606   0.218   3.062  0.0353 -0.0208 -0.0178
 5831W        W22679   0.121  11.619   0.302 -0.0397  0.1700 -0.0173
 5832W        W22680  14.946   9.496  16.104 -0.0354  0.0047  0.0378
 5833W        W22681   2.090   8.704   2.261 -0.0194  0.0838 -0.0611
 5834W        W22682   7.108  15.504  13.071 -0.3116  0.4562  0.3122
 5835W        W22683   0.639   2.558  11.109  0.0643  0.0860  0.1940
 5836W        W22684   7.202   9.738  11.723 -0.1065 -0.2326 -0.4660
 5837W        W22685   3.385  13.989   3.256 -0.1552 -0.1839 -0.2728
 5838W        W22686  13.268  15.154   4.690  0.0672 -0.2289  0.2237
 5839W        W22687  10.454  10.189   0.015 -0.0159 -0.0193 -0.0230
 5840W        W22688   3.916   6.927  11.973 -0.2754 -0.2798 -0.1351
 5841W        W22689  17.516   5.006   4.772 -0.0935  0.0700 -0.1754
 5842W        W22690   1.931   8.338  10.450 -0.1772 -0.1361 -0.2181
 5843W        W22691   9.773  14.060  13.966  0.1229  0.0015  0.4751
 5844W        W22692  13.502   8.605  15.024 -0.1565 -0.1333  0.2281
 5845W        W22693   9.436  15.327  15.100 -0.0555 -0.0897  0.2449
 5846W        W22694   9.511   0.725   0.596  0.0915  0.6206  0.0295
 5847W        W22695   6.916   1.774   0.692  0.1242  0.1844 -0.2361
 5848W        W22696   6.590   8.077  15.102  0.0828  0.2484  0.1347
 5849W        W22697   3.357   5.699  13.835  0.1047  0.1491 -0.0213
 5850W        W22698  10.465   9.428   5.311 -0.2103 -0.2924  0.4361
 5851W        W22699  12.654   9.928   2.363 -0.0613  0.1207 -0.1600
 5852W        W22700  10.738  17.220  10.357 -0.0062  0.0809 -0.2655
 5853W        W22701   3.248  10.846  12.700  0.0045 -0.0353 -0.2259
 5854W        W22702   8.909  10.212  14.782 -0.2092 -0.0240 -0.0689
 5855W        W22703  18.178   2.789  11.875  0.0654  0.0261  0.0383
 5856W        W22704   8.417  14.554   2.120 -0.0167  0.1698 -0.1283
 5857W        W22705  12.384  15.651  12.028  0.1480 -0.0115  0.1820
 5858W        W22706  11.779   0.834   4.243  0.2631 -0.2917 -0.1080
 5859W        W22707  11.598   7.228  15.555 -0.2135 -0.0838  0.0989
 5860W        W22708   8.217  13.332  11.873 -0.1356 -0.0666  0.0494
 5861W        W22709  15.338  16.952  15.287 -0.2165  0.0553 -0.4702
 5862W        W22710   1.654   5.007  13.712  0.5067 -0.2744 -0.0031
 5863W        W22711   6.947  17.525   0.999 -0.0259  0.0170  0.3431
 5864W        W22712   4.494  17.373  11.419  0.0582  0.1975 -0.3315
 5865W        W22713   8.380   9.340   1.803 -0.0963 -0.2175  0.0712
 5866W        W22714   5.430  11.844  13.437 -0.0064 -0.2186 -0.2925
 5867W        W22715   8.966   7.572   2.448 -0.0834  0.1595 -0.5302
 5868W        W22716  16.403   1.836   0.728  0.1618 -0.0914  0.0495
 5869W        W22717   7.515  12.311  14.898  0.1102  0.2285  0.1287
 5870W        W22718  15.178  16.805   1.907  0.2184 -0.2207  0.0174
 5871W        W22719  12.507   0.320  14.574  0.0412 -0.0038 -0.0342
 5872W        W22720  14.300   0.688   4.054 -0.0292 -0.4713 -0.1694
 5873W        W22721  12.599  11.228   1.901  0.0648  0.1642  0.0568
 5874W        W22722  12.948   3.298   2.940  0.0737  0.0024  0.0367
 5875W        W22723   5.583   4.750   2.894  0.2655 -0.0558  0.1342
 5876W        W22724   9.147   9.284   0.605 -0.1014 -0.1326  0.1344
 5877W        W22725   9.444  11.257   1.005  0.0994  0.0291 -0.0211
 5878W        W22726   9.095  13.318   0.509 -0.2549 -0.0447 -0.0729
 5879W        W22727   3.662  16.974   4.467  0.2239  0.1154  0.0040
 5880W        W22728   9.058  16.766   2.306  0.0223 -0.0261 -0.1727
 5881W        W22729   2.049  10.788  12.172 -0.3045  0.5802  0.1712
 5882W        W22730  14.395  17.654   1.013  0.3092  0.4091 -0.1111
 5883W        W22731   1.998   2.184  10.597 -0.0641 -0.1847 -0.2025
 5884W        W22732  11.775  12.232   2.841 -0.3458 -0.1075 -0.0728
 5885W        W22733   9.092  16.928   3.675  0.1589 -0.1036  0.0310
 5886W        W22734   5.260  13.759  12.568 -0.0710 -0.2249 -0.0280
 5887W        W22735  12.197   3.322   3.241 -0.1496 -0.0608 -0.2167
 5888W        W22736  12.586   7.937  14.392  0.1756  0.3694  0.0055
 5889W        W22737  10.154  13.089   0.557 -0.0373 -0.1255  0.1276
 5890W        W22738  17.529   2.679   1.585 -0.0159 -0.2078  0.1726
 5891W        W22739  12.501  18.043  14.391 -0.0551 -0.1105  0.0495
 5892W        W22740   3.099  17.316   2.322  0.1109  0.1606  0.0324
 5893W        W22741  12.879  10.751   2.139 -0.2482 -0.3342  0.1075
 5894W        W22742  12.705   4.979   0.173  0.0905 -0.2488  0.0573
 5895W        W22743   9.452  14.356   3.921  0.0374 -0.0668 -0.3327
 5896W        W22744  11.783   5.196  13.013 -0.2139 -0.0277 -0.1454
 5897W        W22745   3.088  13.801  10.949  0.0666  0.1579 -0.1551
 5898W        W22746  12.871  17.906   3.579  0.0857 -0.0149  0.4240
 5899W        W22747  16.144  13.025  12.098  0.0055  0.0716  0.2041
 5900W        W22748   5.003   8.260   2.318 -0.2325  0.2160  0.1913
 5901W        W22749   1.253  12.024   1.255 -0.2984  0.1376  0.2294
 5902W        W22750  17.543   6.756   4.929  0.3832 -0.0874  0.1235
 5903W        W22751  15.861  14.254  15.433 -0.1735 -0.0576  0.0221
 5904W        W22752   3.826  16.287   3.321 -0.0871  0.0329 -0.1614
 5905W        W22753   3.149  17.498  15.161 -0.0743 -0.3552 -0.2902
 5906W        W22754   9.811  12.565  11.894  0.2309  0.1361 -0.2303
 5907W        W22755  17.096   2.829   4.103 -0.1966  0.1962 -0.1336
 5908W        W22756   6.696  16.554   5.021  0.1639 -0.0746 -0.1133
 5909W        W22757  15.861   7.837  11.436 -0.0000 -0.2444 -0.0040
 5910W        W22758   6.059   7.417   5.230  0.0067 -0.0413  0.0470
 5911W        W22759  16.970   2.950  16.104  0.0132  0.2948 -0.1529
 5912W        W22760   0.754  16.695   3.082 -0.2950 -0.0008  0.0522
 5913W        W22761   4.415   5.695  14.167  0.1200  0.1006  0.1582
 5914W        W22762   7.520   0.820   2.988 -0.0909  0.0340 -0.2568
 5915W        W22763   3.412  11.388  14.516  0.3617  0.0017 -0.0204
 5916W        W22764   7.804   0.295   5.077  0.0436 -0.0585  0.2902
 5917W        W22765  12.649  14.325  14.105  0.0384  0.2409  0.0386
 5918W        W22766   0.522  10.181  10.732 -0.0052  0.2764 -0.1768
 5919W        W22767   5.956  17.800  11.292 -0.1335  0.3248 -0.4024
 5920W        W22768   9.636   0.257  12.584 -0.2537 -0.0357 -0.1105
 5921W        W22769   0.686  16.453  14.170  0.1864 -0.1862 -0.1763
 5922W        W22770   7.164  11.314   3.696 -0.1823 -0.0807 -0.1203
 5923W        W22771   7.134  13.244   0.924 -0.0474  0.0205  0.1220
 5924W        W22772  16.847  12.725   2.243 -0.2285 -0.3835  0.0440
 5925W        W22773   4.557   6.414   1.643 -0.0874  0.3079  0.3247
 5926W        W22774   5.746   0.611  15.900 -0.1794 -0.2405  0.2535
 5927W        W22775  11.956  16.139   1.786 -0.0163  0.2504  0.4404
 5928W        W22776   9.360   5.310  11.311  0.1967  0.0027 -0.1122
 5929W        W22777  14.874  11.959   2.605  0.0392  0.1663  0.0255
 5930W        W22778   1.239  10.712   0.711 -0.2060  0.1303 -0.2384
 5931W        W22779   2.897  17.631  10.450 -0.0362 -0.1666  0.2962
 5932W        W22780  15.065  18.108   3.276 -0.1797  0.0503 -0.1855
 5933W        W22781   4.118  12.868   4.555  0.0833 -0.2224  0.2357
 5934W        W22782   6.504  14.671   3.240 -0.1145  0.0140 -0.1896
 5935W        W22783  13.390  12.853  12.115 -0.2001 -0.1158  0.0813
 5936W        W22784   8.198  13.540  12.444  0.1531 -0.4035  0.0058
 5937W        W22785   5.304   0.635  15.181 -0.0156  0.2284  0.2250
 5938W        W22786   6.451   8.681   1.452 -0.1060  0.0526  0.1858
 5939W        W22787   0.547   5.207   3.730  0.0788  0.0866  0.4381
 5940W        W22788   5.942  12.985   2.141 -0.2491 -0.0756 -0.0137
 5941W        W22789  16.668   7.964  14.795 -0.0285  0.0090 -0.3907
 5942W        W22790   0.240  12.979  11.901  0.1379  0.1509 -0.1612
 5943W        W22791   9.535   6.082   5.422 -0.1489  0.0935 -0.0449
 5944W        W22792  14.834  16.900   0.332 -0.3526  0.2185  0.0692
 5945W        W22793   9.599   5.316   0.671  0.1919 -0.0750 -0.1953
 5946W        W22794   9.943   5.740   0.890 -0.0433  0.3871  0.1381
 5947W        W22795  12.538  11.150   0.722 -0.1099 -0.1240  0.0999
 5948W        W22796  12.289   0.517  15.649  0.2800  0.1602 -0.0508
 5949W        W22797   1.497   7.787   1.106 -0.1131 -0.2852 -0.1841
 5950W        W22798  13.581  10.821   1.678  0.1045  0.0745 -0.1888
 5951W        W22799   9.287  14.064  12.723 -0.0151 -0.0386  0.5291
 5952W        W22800   3.713   2.095   3.753  0.0588 -0.1727  0.3239
 5953W        W22801   5.992   4.093   3.799 -0.1096 -0.3077  0.1028
 5954W        W22802  13.931   2.067   3.270  0.4263  0.0172  0.0819
 5955W        W22803   1.736   9.831  14.192 -0.0979  0.2716  0.3410
 5956W        W22804  17.367   2.171   3.493  0.0412  0.0752  0.3048
 5957W        W22805  14.766   9.815  15.414  0.3275  0.2817 -0.0142
 5958W        W22806   7.565   4.200  14.736 -0.1870 -0.0778 -0.1169
 5959W        W22807   8.718   8.754   6.166  0.1214 -0.0880  0.2873
 5960W        W22808  10.506   2.798  11.663 -0.0542  0.1455 -0.0358
 5961W        W22809  12.516  11.846  15.433 -0.1835  0.1937  0.1333
 5962W        W22810  13.404  13.581   3.307 -0.0658 -0.3460  0.1415
 5963W        W22811   7.925   7.087  15.113 -0.1519  0.2065 -0.0805
 5964W        W22812  12.917   5.719  13.132 -0.2548  0.0762  0.0341
 5965W        W22813  12.714   6.554  12.560 -0.0757  0.3608  0.0639
 5966W        W22814   1.895  12.475   4.740  0.0864  0.3526 -0.1281
 5967W        W22815   2.727   3.290  15.013 -0.1617  0.0994  0.1786
 5968W        W22816  11.180  16.086   2.492 -0.1060  0.1149 -0.0446
 5969W        W22817  11.359   3.726   2.728 -0.0661 -0.0361  0.0400
 5970W        W22818  13.622  14.157   3.821  0.0878 -0.1567 -0.0691
 5971W        W22819  11.944  15.285   4.483 -0.0194 -0.2164 -0.1409
 5972W        W22820  13.055   2.373   3.171 -0.1894  0.0520 -0.0327
 5973W        W22821   8.901   2.986  14.895  0.0926 -0.0552  0.0009
 5974W        W22822  18.143  11.836  15.704  0.1462 -0.0871 -0.1017
 5975W        W22823   5.901  16.127  14.219  0.1085 -0.3341  0.0732
 5976W        W22824  11.286   1.007   3.050  0.1862  0.2049  0.1748
 5977W        W22825  12.564   6.599   4.377  0.1882  0.0556 -0.1939
 5978W        W22826  16.722   3.052   3.870 -0.1094  0.0308 -0.1064
 5979W        W22827   1.574   8.072  13.225 -0.1217 -0.1803  0.1103
 5980W        W22828  16.174   5.116  14.392  0.0356  0.2310  0.1078
 5981W        W22829  10.208   9.707   1.604  0.0087 -0.0547  0.4982
 5982W        W22830  16.967  17.286   1.476 -0.0451  0.0660  0.0010
 5983W        W22831  16.428   1.124  13.509  0.0719  0.5067  0.0207
 5984W        W22832   2.402   4.702   3.056 -0.0008  0.0837  0.1458
 5985W        W22833  14.107   9.827   5.068  0.1930  0.2742 -0.1664
 5986W        W22834   9.514   8.271  15.171 -0.0651 -0.1267  0.1934
 5987W        W22835   3.910   0.428  12.143  0.2214  0.1562 -0.0498
 5988W        W22836   1.206  18.181   1.199  0.0266  0.3273 -0.1501
 5989W        W22837   4.550  12.303   5.223 -0.1166  0.2985  0.2959
 5990W        W22838   6.669  10.120   4.239 -0.0000 -0.1045  0.2206
 5991W        W22839  15.319   1.836  10.215  0.0451 -0.1997 -0.1094
 5992W        W22840  13.472   4.321  12.889  0.1523 -0.0306 -0.0414
 5993W        W22841  13.908   5.292   3.308  0.1471 -0.4203  0.0887
 5994W        W22842   2.830   5.462  12.038 -0.1426  0.1870  0.0189
 5995W        W22843  16.727  10.196   5.587  0.6027 -0.0904 -0.6271
 5996W        W22844  17.229   9.555  11.374 -0.0501  0.0163 -0.1132
 5997W        W22845  10.710   8.040  14.631  0.1674 -0.0482  0.0579
 5998W        W22846  15.791   8.731   1.943  0.0248  0.2512 -0.3226
 5999W        W22847  10.551  16.871  12.706  0.1009  0.0571  0.1561
 6000W        W22848  15.824  17.934   1.236  0.2493  0.0254  0.0092
 6001W        W22849   5.781   5.969  15.904  0.0479  0.0331  0.0671
 6002W        W22850   2.058  11.721   9.902 -0.0258 -0.1577 -0.2198
 6003W        W22851  12.503   0.346  11.971 -0.0083 -0.1478 -0.0400
 6004W        W22852  10.228   5.319  10.661 -0.2252  0.2286  0.1923
 6005W        W22853   6.484   9.964  14.238  0.2501 -0.0833 -0.0096
 6006W        W22854   4.238   7.877   4.464 -0.1957 -0.0248  0.0091
 6007W        W22855  15.866  12.116  10.356 -0.0181  0.2284 -0.2025
 6008W        W22856   0.230   7.699  15.539 -0.1898 -0.1947 -0.0374
 6009W        W22857  13.432   6.400  14.056 -0.2431 -0.2524 -0.2726
 6010W        W22858  15.242   6.699  11.666 -0.2798 -0.3862  0.0815
 6011W        W22859  17.765   3.326  12.116  0.0437  0.1332  0.3895
 6012W        W22860   7.729  12.197   0.146  0.1133 -0.1566  0.2791
 6013W        W22861   9.452  16.836   1.006 -0.2089 -0.0628 -0.1933
 6014W        W22862   8.672  10.263   1.614 -0.0589  0.0573 -0.0020
 6015W        W22863   4.240   2.105  11.376  0.3703  0.0811  0.1770
 6016W        W22864  11.041  18.029  11.673  0.0345  0.1109 -0.3075
 6017W        W22865   9.326   2.889  12.386  0.1784  0.0364 -0.1405
 6018W        W22866  16.723   2.509   3.893  0.0127 -0.2060  0.3184
 6019W        W22867   8.195   1.523   4.527 -0.0585  0.0747  0.0077
 6020W        W22868   7.224  16.497   2.078 -0.3786 -0.1449  0.1053
 6021W        W22869   4.176   9.672  12.276  0.3634 -0.0337  0.1326
 6022W        W22870  17.513   8.501  12.580 -0.1390 -0.1087  0.0437
 6023W        W22871  16.953   6.699   0.177 -0.0437  0.1939  0.1216
 6024W        W22872   5.075   7.637   4.307  0.0228  0.1454  0.0571
 6025W        W22873  12.150  12.770  15.667  0.0323 -0.1877  0.0685
 6026W        W22874  14.141   9.609   0.674  0.1925  0.1512 -0.1493
 6027W        W22875   0.089  15.469   2.664  0.2017 -0.0747  0.0469
 6028W        W22876   6.966   7.821  14.978  0.0540  0.2266  0.1271
 6029W        W22877   9.858  14.173   0.576 -0.1185  0.0897 -0.0220
 6030W        W22878   9.786  17.251  15.239  0.3019 -0.1142 -0.1271
 6031W        W22879  11.802   0.803   0.300 -0.2404 -0.0276  0.0530
 6032W        W22880   0.485  14.528   3.454 -0.0861  0.1003 -0.2721
 6033W        W22881   9.847  17.871   3.198  0.2252  0.1382 -0.0143
 6034W        W22882   7.370   5.912  14.036  0.0395 -0.1033  0.1789
 6035W        W22883  11.730   5.772   2.186  0.1603 -0.0731 -0.1057
 6036W        W22884  14.824   3.971  12.547  0.2568  0.0995 -0.0188
 6037W        W22885  16.454  17.542   3.885 -0.1506 -0.1889 -0.1532
 6038W        W22886   8.250  14.546   2.927 -0.2922 -0.1763 -0.0882
 6039W        W22887   5.813  11.747  13.153  0.2049  0.0253 -0.0828
 6040W        W22888   3.919   8.079   4.726  0.1602 -0.2757 -0.1629
 6041W        W22889   1.795   2.955  15.817 -0.0895 -0.0831  0.2514
 6042W        W22890  15.299  13.129  13.290  0.1306  0.3661  0.4944
 6043W        W22891  13.504  17.119  12.306  0.2000  0.0094  0.2415
 6044W        W22892  13.211   6.449  15.423 -0.0717 -0.0677  0.1007
 6045W        W22893  11.932  15.456  13.202 -0.1738  0.0297  0.1143
 6046W        W22894  17.258   2.217  14.009 -0.2721  0.0939  0.1724
 6047W        W22895   0.740   7.796  15.508  0.1145  0.0795  0.1375
 6048W        W22896   2.060  10.851   4.050 -0.0640 -0.2436  0.2814
 6049W        W22897  13.773   8.112  11.912  0.0771  0.1296  0.0692
 6050W        W22898   2.508  10.586  13.240 -0.1727  0.2072 -0.1851
 6051W        W22899  12.574  16.194   0.280 -0.0866 -0.0216 -0.0405
 6052W        W22900   3.248   0.895   2.397  0.4219  0.1627  0.1753
 6053W        W22901  10.442   6.278   1.317 -0.1562  0.1289  0.2703
 6054W        W22902   4.505  13.758   2.194 -0.2318  0.0059 -0.0459
 6055W        W22903   9.219   1.205  12.760  0.2021 -0.2156  0.1135
 6056W        W22904   7.268   7.497   1.376 -0.4603  0.2740  0.1498
 6057W        W22905   6.511  16.135   2.165  0.0192  0.1880  0.2121
 6058W        W22906   7.705   1.414  12.271  0.3806 -0.0603 -0.0886
 6059W        W22907   9.316   3.062   1.049  0.2144 -0.1981 -0.2288
 6060W        W22908  11.597   5.167   0.353 -0.1236 -0.1588  0.1927
 6061W        W22909   7.701  13.072   1.119 -0.0605 -0.2693 -0.4508
 6062W        W22910  12.472  12.539   4.843  0.0782  0.0587 -0.0766
 6063W        W22911  17.870   8.313   3.242 -0.0286 -0.2018 -0.0731
 6064W        W22912  16.975   3.441  14.695 -0.3739  0.0524  0.0211
 6065W        W22913   9.029   8.230   1.549  0.0151  0.2449  0.2918
 6066W        W22914   9.926   4.699   3.625  0.0353  0.1831 -0.3267
 6067W        W22915  16.817   1.118   1.351  0.1024  0.2507  0.0387
 6068W        W22916   3.165  11.869   4.310 -0.2007  0.0247 -0.1768
 6069W        W22917  10.922   7.632   1.069  0.2250 -0.1264 -0.0224
 6070W        W22918   2.233   5.277   2.442 -0.3293  0.0987 -0.0415
 6071W        W22919  11.623   0.308   2.378  0.0947  0.1400 -0.1409
 6072W        W22920   1.813   3.955  14.578 -0.1087 -0.0334 -0.2485
 6073W        W22921   5.600   3.884  15.990 -0.2133 -0.2487  0.1018
 6074W        W22922  16.597  11.956   1.296 -0.1308  0.0185  0.0702
 6075W        W22923   2.137   4.765   1.036  0.0590  0.2198  0.2078
 6076W        W22924   2.743  16.823   0.147 -0.2928  0.0359 -0.0135
 6077W        W22925   1.675   0.915  15.620 -0.4147 -0.3433 -0.0332
 6078W        W22926  17.292   7.561  12.329 -0.1955  0.3858  0.0329
 6079W        W22927   4.748   3.569   2.502  0.0279  0.2311 -0.2751
 6080W        W22928  13.683  10.752  13.652  0.1073 -0.3455  0.1724
 6081W        W22929   2.575   0.442   5.243  0.1569  0.0961 -0.0639
 6082W        W22930  17.613   9.503   1.045  0.4157  0.0895  0.0765
 6083W        W22931   8.270   7.003  11.919 -0.2125 -0.1570 -0.1357
 6084W        W22932  10.507  17.608   1.380  0.3627  0.2003 -0.4618
 6085W        W22933   9.745   8.615   2.128  0.1333  0.1375  0.1357
 6086W        W22934  10.724  14.043  13.241  0.1304 -0.1213  0.0043
 6087W        W22935  14.498   1.438  14.183  0.0207 -0.1191  0.2260
 6088W        W22936   2.283  15.108  10.997  0.1403  0.2489 -0.2887
 6089W        W22937  10.279   1.390  15.189  0.0569 -0.0077 -0.2944
 6090W        W22938  16.044  10.401  12.658  0.1592  0.4310 -0.1391
 6091W        W22939   2.611   0.714  14.247  0.1179 -0.0208 -0.3350
 6092W        W22940  11.866   5.962  13.493 -0.3578  0.1988  0.0433
 6093W        W22941  11.292  13.093   4.300 -0.1670 -0.1943 -0.0814
 6094W        W22942   9.966  17.374  12.901  0.0876  0.0057  0.0156
 6095W        W22943  13.504   7.382   5.320  0.1171 -0.1589 -0.5414
 6096W        W22944  11.262   9.457   4.328  0.0281 -0.1022 -0.1115
 6097W        W22945   7.774  11.517   2.766 -0.1550 -0.0096  0.1716
 6098W        W22946   5.951   6.952  11.739  0.2809  0.2466 -0.4572
 6099W        W22947   7.106  13.345  16.061 -0.0024 -0.2625  0.0045
 6100W        W22948   5.649   5.207  10.722 -0.0778  0.2964 -0.1391
 6101W        W22949  15.037  11.332   3.305 -0.0887 -0.1183  0.0977
 6102W        W22950  15.519   1.331  13.784 -0.0997  0.0583  0.1418
 6103W        W22951  14.751   2.324   3.293 -0.0352 -0.1583  0.1458
 6104W        W22952   1.117   8.364   3.123 -0.0643 -0.1979 -0.0759
 6105W        W22953   9.880   2.172  14.063  0.0316  0.0829 -0.0876
 6106W        W22954   5.578   2.239  15.447  0.1042  0.0581  0.0053
 6107W        W22955  17.936  17.455   3.144  0.2502  0.1670 -0.0164
 6108W        W22956   9.861  15.510   3.266  0.1951 -0.0308 -0.0814
 6109W        W22957   0.033  10.100   4.027 -0.1229 -0.4295  0.0835
 6110W        W22958   4.598   4.877   0.042  0.0087 -0.2009  0.2036
 6111W        W22959   3.832  10.969  15.771 -0.2526  0.0828 -0.0017
 6112W        W22960  14.955   4.776  13.525 -0.0960 -0.1342 -0.0522
 6113W        W22961  13.648  13.741  10.626  0.1137  0.0459 -0.2437
 6114W        W22962  15.779  17.517  14.800 -0.2640  0.1800 -0.2489
 6115W        W22963   3.361  17.090  14.812  0.2042 -0.0451  0.1863
 6116W        W22964   0.868  11.150  14.882  0.1780 -0.1237  0.4069
 6117W        W22965   8.618   5.528  11.482 -0.2087  0.2880  0.0590
 6118W        W22966  17.693  15.451  12.599 -0.1829 -0.2239  0.0087
 6119W        W22967   1.313   3.056  12.494  0.0424 -0.2405 -0.2119
 6120W        W22968   8.748  11.823   2.296 -0.2732  0.1028  0.4025
 6121W        W22969   7.917  10.448  15.623 -0.2544  0.0596  0.5304
 6122W        W22970   7.073   3.222   3.183  0.0227 -0.1117  0.0539
 6123W        W22971   5.437   3.876  15.500  0.2425  0.0846 -0.0543
 6124W        W22972   9.985  11.381   5.600  0.2323  0.3378 -0.1121
 6125W        W22973  15.269   1.220  11.686  0.0952  0.0834  0.0928
 6126W        W22974   2.510   4.090  13.342  0.0655 -0.3322 -0.1060
 6127W        W22975   2.938   9.599   0.347  0.0082  0.2732  0.1327
 6128W        W22976  15.662  13.809  11.929  0.3215  0.3985 -0.4378
 6129W        W22977   9.575   4.323  13.915  0.3041 -0.0116  0.1175
 6130W        W22978   9.513  12.190  11.179 -0.0672 -0.1727 -0.0189
 6131W        W22979  15.324  11.041  15.827  0.1084 -0.1103  0.0524
 6132W        W22980  17.013   2.741   2.600 -0.0188  0.1015 -0.1554
 6133W        W22981  11.535  14.751  10.609 -0.2527  0.0502  0.2878
 6134W        W22982   2.430  10.403   2.131 -0.1127 -0.0987  0.2534
 6135W        W22983   9.338   6.162   3.566  0.2139 -0.0485 -0.3443
 6136W        W22984   9.583   3.249  15.955  0.0272 -0.1254 -0.0690
 6137W        W22985   6.777  15.834  12.996  0.0521  0.1713 -0.2178
 6138W        W22986   6.411  15.043   0.541 -0.1640 -0.1072  0.0447
 6139W        W22987  14.470   0.036  14.225  0.4492 -0.1573  0.1269
 6140W        W22988   1.398  16.223  12.441 -0.1833 -0.0188  0.0584
 6141W        W22989   3.944  15.154   3.124  0.1087  0.3714  0.1066
 6142W        W22990  13.010   1.594   2.671  0.2901  0.0899  0.0269
 6143W        W22991   6.086  17.200  13.418  0.0010  0.3594  0.1236
 6144W        W22992  14.885   2.436  15.028  0.1977  0.0286 -0.1451
 6145W        W22993  16.212  16.109   1.212  0.1129  0.1375 -0.1723
 6146W        W22994   4.649  11.323   0.044 -0.0001  0.0421 -0.1513
 6147W        W22995   0.888   4.654  11.094 -0.0066  0.6087  0.0300
 6148W        W22996   3.847  18.214   5.778  0.1845  0.1315  0.1141
 6149W        W22997   1.823   5.654  15.343  0.0458 -0.2871 -0.0982
 6150W        W22998  11.561  17.099  11.621 -0.1181 -0.1607  0.0687
 6151W        W22999  16.280   9.380  12.337 -0.1175  0.0104  0.0263
 6152W        W23000  14.110  12.223   1.448 -0.1949  0.1057  0.2741
 6153W        W23001   2.808  15.030   3.726 -0.1781  0.0012  0.2618
 6154W        W23002   6.728  13.337   4.092 -0.0808 -0.0638 -0.1748
 6155W        W23003   5.243  16.657   2.190  0.1787 -0.2522 -0.2013
 6156W        W23004   1.687  16.024  15.468  0.0268  0.2340 -0.0774
 6157W        W23005  12.335   7.704  14.858  0.1339 -0.0651  0.1545
 6158W        W23006   3.771   0.428   0.489 -0.2296  0.3299 -0.3497
 6159W        W23007  17.715  11.600  15.641 -0.1023  0.3275 -0.2450
 6160W        W23008   2.731   4.379  15.575  0.1696  0.1197 -0.1974
 6161W        W23009  13.738   7.263   6.295  0.2591  0.1660  0.1106
 6162W        W23010  14.820   8.720   3.921 -0.0304 -0.1710  0.2535
 6163W        W23011   0.376   2.583   0.834  0.0225  0.3495  0.0535
 6164W        W23012  13.350  10.827   2.189 -0.1532  0.0719 -0.0901
 6165W        W23013   9.730  11.057   1.454  0.2340 -0.0036  0.2442
 6166W        W23014  11.660  13.021   2.667  0.0531 -0.1615 -0.1741
 6167W        W23015   0.039  13.150  15.471 -0.1714 -0.1310  0.0830
 6168W        W23016  13.985   1.876  13.417  0.1042 -0.3900 -0.1352
 6169W        W23017  11.019   9.458  15.099  0.0483  0.0443 -0.1320
 6170W        W23018  14.279   7.495   2.846  0.0399 -0.2733 -0.4704
 6171W        W23019   8.236   4.722   1.727 -0.0482  0.1724 -0.0241
 6172W        W23020  12.197  17.303   3.488 -0.1102 -0.0234 -0.3346
 6173W        W23021   3.120   2.039  15.002 -0.0896 -0.2633  0.0454
 6174W        W23022  13.223   3.983  16.067 -0.2189  0.2202  0.2535
 6175W        W23023   0.570  15.852  13.302  0.3374  0.0565  0.1277
 6176W        W23024  17.909   3.881   2.863  0.0739  0.0229  0.0035
 6177W        W23025   7.461   7.556   2.530  0.0213  0.1435 -0.1346
 6178W        W23026  10.323  15.275  13.030 -0.2304 -0.1519  0.1611
 6179W        W23027  17.770   5.751   2.077 -0.0750 -0.2470  0.2178
 6180W        W23028  15.253   3.708  11.201  0.0137 -0.0324 -0.3150
 6181W        W23029  16.282   4.210   2.550  0.4559  0.1905 -0.1996
 6182W        W23030   6.365   2.053  11.534 -0.2944  0.1190 -0.0620
 6183W        W23031   1.976   3.272  14.369 -0.0467 -0.0592 -0.0570
 6184W        W23032   3.589   3.447  15.880  0.0952  0.2739 -0.0088
 6185W        W23033  14.056   1.474  11.507 -0.1413  0.0797  0.2428
 6186W        W23034   4.164  14.808   0.443  0.3165  0.1449 -0.3248
 6187W        W23035   7.988   2.794   0.676 -0.0798  0.1291  0.1391
 6188W        W23036  10.662   5.105   0.566 -0.4474  0.1917 -0.2366
 6189W        W23037   3.598  15.002   2.599  0.0302  0.4033  0.0425
 6190W        W23038  15.943   6.231   2.607 -0.0633 -0.0645 -0.1028
 6191W        W23039   5.914   1.832   2.980  0.2763  0.1909  0.2730
 6192W        W23040   6.689   2.772  10.800 -0.1504  0.0906 -0.0969
 6193W        W23041   4.119   4.981   4.810 -0.0560 -0.2675 -0.3925
 6194W        W23042  14.768  16.756   3.565  0.2663 -0.0478 -0.3374
 6195W        W23043  14.155   1.048  14.079  0.3955 -0.0255  0.0563
 6196W        W23044   6.393  10.224   0.457 -0.1212  0.0810  0.0376
 6197W        W23045  15.064   2.957  13.656  0.0490 -0.0324 -0.0051
 6198W        W23046   8.816   2.988   1.204 -0.1374  0.1265  0.4467
 6199W        W23047  10.576   7.621  12.068  0.0310  0.1109  0.1166
 6200W        W23048  10.344   9.583  13.070 -0.1370 -0.2616 -0.0339
 6201W        W23049   8.706   3.651   0.011 -0.1559  0.2513  0.1309
 6202W        W23050   6.125   4.947   3.285 -0.0681  0.3655 -0.1262
 6203W        W23051  16.595  18.133  13.519  0.3662  0.1235 -0.0698
 6204W        W23052  13.972   3.697  13.127 -0.1422  0.3411  0.0075
 6205W        W23053   6.276  16.491   3.523 -0.0749 -0.1381  0.1211
 6206W        W23054  12.759   2.095   2.857  0.0279 -0.2450  0.2492
 6207W        W23055   7.511  16.175   0.788  0.2354  0.0626  0.1363
 6208W        W23056   0.308  16.810  11.888 -0.0597 -0.0786 -0.1013
 6209W        W23057   8.816   0.954  13.790 -0.5292 -0.3447 -0.2151
 6210W        W23058   7.206   7.344  13.625  0.2372 -0.0207  0.3536
 6211W        W23059   3.162   5.248   2.975  0.0949 -0.1698 -0.3782
 6212W        W23060  12.645  14.591   2.431 -0.0866  0.0630  0.1131
 6213W        W23061  15.718  13.291  12.682  0.3442  0.3101  0.0607
 6214W        W23062  11.475  15.401  11.895  0.2910  0.1096 -0.1370
 6215W        W23063   2.022   0.765  16.064  0.3017  0.0488  0.0058
 6216W        W23064  16.316  16.457   2.700  0.2211 -0.2602 -0.2604
 6217W        W23065   3.127  13.072   2.161 -0.0188 -0.1365  0.0793
 6218W        W23066  15.766   5.828  11.204  0.4210  0.2432 -0.0794
 6219W        W23067   0.217   8.119   0.892 -0.2169  0.1946  0.3745
 6220W        W23068   7.949   3.946   1.946  0.0321  0.2205  0.2567
 6221W        W23069  16.104   6.119   4.471  0.1344 -0.0965 -0.0221
 6222W        W23070   8.471  12.099   1.226  0.2969 -0.1920  0.2445
 6223W        W23071  12.738  14.179   3.092  0.0646 -0.0140  0.0656
 6224W        W23072   9.954  11.272   1.020 -0.0260 -0.0825 -0.2469
 6225W        W23073   2.548   8.763   3.453  0.2346 -0.2588 -0.2612
 6226W        W23074   1.071  16.375   3.789 -0.0084  0.1739 -0.4639
 6227W        W23075   6.583  14.929   2.503  0.2778 -0.4057  0.1826
 6228W        W23076  10.469   6.322  13.979 -0.2760  0.1960 -0.0237
 6229W        W23077  14.492  12.994  13.209 -0.0984 -0.1866  0.1616
 6230W        W23078   6.816  11.374   1.839  0.0176  0.0274 -0.4265
 6231W        W23079  14.464  18.042  12.389  0.1987 -0.1671  0.1300
 6232W        W23080   7.594  11.382  10.688  0.2511  0.1827  0.1364
 6233W        W23081   5.807  16.882   4.132 -0.1762  0.2078  0.3102
 6234W        W23082   6.083   7.392   3.635  0.0347  0.1877  0.4034
 6235W        W23083   4.755  15.994   1.382  0.1603  0.1772 -0.2895
 6236W        W23084  12.503  15.087   3.712 -0.0734 -0.1065  0.2130
 6237W        W23085   3.791  16.633  13.697  0.0026 -0.2364 -0.0568
 6238W        W23086  16.080   1.902   0.261 -0.3654  0.0484 -0.1346
 6239W        W23087   7.140   1.166  15.578 -0.0266 -0.0017  0.3246
 6240W        W23088  12.557   8.051  13.747 -0.1583  0.3339 -0.2247
 6241W        W23089   6.329  16.051   4.074 -0.0576 -0.4057  0.2510
 6242W        W23090   6.432   4.355  11.711  0.0236 -0.1205 -0.1375
 6243W        W23091  15.782  14.104   2.622 -0.0731 -0.4338 -0.3231
 6244W        W23092   8.649   1.410   1.369 -0.1563 -0.0392  0.1311
 6245W        W23093  11.186   9.807  15.944  0.0304  0.2500 -0.0801
 6246W        W23094   3.514  11.939   3.182 -0.1366 -0.2380  0.3878
 6247W        W23095  17.866   4.563   0.077  0.2017 -0.3311  0.1258
 6248W        W23096   9.288   8.818  14.297  0.1304 -0.3007 -0.0318
 6249W        W23097   0.017   4.025   2.448 -0.1478 -0.2129  0.3991
 6250W        W23098   9.822  17.554   3.612 -0.1958  0.2647 -0.1832
 6251W        W23099  17.306  17.788   0.505  0.1187  0.0772  0.0561
 6252W        W23100   5.134   6.817  11.990 -0.2408 -0.3044  0.0201
 6253W        W23101  11.100   3.849  11.346 -0.0836 -0.0478 -0.1294
 6254W        W23102  15.803   7.620   4.636 -0.2440  0.2336 -0.0399
 6255W        W23103   2.590   7.917  14.588 -0.0802  0.2727  0.1638
 6256W        W23104  10.959   0.869   3.743 -0.2913  0.1659  0.0570
 6257W        W23105   2.101   2.530  15.811  0.1123 -0.1148 -0.1042
 6258W        W23106   8.039  10.912  11.837 -0.1107  0.0389 -0.1356
 6259W        W23107  12.039  15.034   3.972 -0.5381  0.0529 -0.1521
 6260W        W23108   9.564   6.848  13.531 -0.0325  0.3652 -0.2266
 6261W        W23109  10.988  17.499  15.145  0.0327 -0.3266 -0.1636
 6262W        W23110   0.633   6.641  12.931  0.1804  0.0061 -0.1248
 6263W        W23111   9.002   3.295  13.989  0.1161  0.1375  0.0040
 6264W        W23112   0.836   5.988   3.926 -0.2825  0.1560 -0.3340
 6265W        W23113  11.646  12.358  13.946 -0.2664 -0.1306 -0.2095
 6266W        W23114  13.444   3.114   1.697  0.3434  0.1483 -0.0126
 6267W        W23115   5.462  12.899  12.146  0.0440 -0.0429 -0.1256
 6268W        W23116  15.877   3.714  14.380  0.0274  0.1968  0.1024
 6269W        W23117   0.196  13.001  12.818  0.0384 -0.2222 -0.0353
 6270W        W23118  16.205   6.665  15.283 -0.1571  0.2793 -0.0944
 6271W        W23119   8.578   3.936   2.868 -0.0323 -0.3350  0.0107
 6272W        W23120  16.536  13.650  15.135  0.0765 -0.0053  0.1349
 6273W        W23121   8.617  17.012  15.806 -0.1301 -0.1582 -0.2080
 6274W        W23122   3.278   2.562   0.890 -0.1084 -0.2832 -0.0172
 6275W        W23123   0.708   6.534  14.743 -0.1224 -0.2034  0.1725
 6276W        W23124   7.777   3.784   2.410 -0.0371  0.1834  0.1770
 6277W        W23125   0.828   8.471  11.552 -0.0153  0.2994 -0.1678
 6278W        W23126   6.127  17.045   3.252  0.0232 -0.1300 -0.1967
 6279W        W23127   8.598   6.200  14.112  0.0394 -0.0418 -0.1951
 6280W        W23128  12.449   7.446  14.403 -0.0117  0.0698 -0.1515
 6281W        W23129  15.029   9.691   5.226  0.0788  0.1494  0.2264
 6282W        W23130   9.265  15.476  12.476  0.3032  0.1204 -0.0085
 6283W        W23131   3.404  11.526   2.223 -0.1551 -0.1777  0.1751
 6284W        W23132  13.370  14.616  12.962 -0.2284  0.0364  0.1070
 6285W        W23133  15.299  12.268  12.862  0.1007 -0.3004  0.1246
 6286W        W23134  10.925   0.330   4.088  0.5868  0.2828  0.2075
 6287W        W23135   7.391   3.940   0.944 -0.0517 -0.1453  0.0417
 6288W        W23136   3.506   3.741  10.950  0.0990  0.0113 -0.1741
 6289W        W23137   8.344  18.138   6.195 -0.3428  0.0683  0.3760
 6290W        W23138  15.896   1.723  12.029  0.1536  0.2852  0.1142
 6291W        W23139  15.685  11.983  13.048 -0.2460 -0.1679 -0.2555
 6292W        W23140   6.414  13.474  15.537 -0.0011  0.0747  0.2646
 6293W        W23141   5.116  15.485   4.668 -0.0516  0.0574  0.1870
 6294W        W23142  13.327   7.463   2.581  0.0062 -0.2459 -0.0899
 6295W        W23143  17.649   7.648   4.903 -0.1892 -0.2754 -0.1354
 6296W        W23144   7.863  15.347   1.807 -0.0158 -0.1997 -0.0595
 6297W        W23145  11.067  17.340  15.639  0.0487 -0.2472 -0.0335
 6298W        W23146  15.476   1.241  15.820  0.0599  0.1260  0.2752
 6299W        W23147   7.813   8.484  15.725 -0.0657 -0.0503 -0.0074
 6300W        W23148   9.422  18.134   3.116 -0.1146 -0.1403  0.0749
 6301W        W23149  18.062   9.446  13.208 -0.1094  0.0430  0.0610
 6302W        W23150   9.342   6.507   5.642 -0.0246 -0.0967  0.1876
 6303W        W23151   1.583   0.553   0.089  0.0115 -0.2238  0.1689
 6304W        W23152  11.130   2.596   4.717  0.1796 -0.0567 -0.0426
 6305W        W23153   4.382  14.955   3.506 -0.0437  0.0141 -0.1337
 6306W        W23154  17.839  15.087  12.968 -0.2088  0.3383  0.1361
 6307W        W23155  13.809   6.525   0.148 -0.1358 -0.2614  0.0524
 6308W        W23156   9.611   5.864   1.273  0.1552 -0.1604  0.1635
 6309W        W23157  18.043   9.505   2.387  0.0572 -0.2276 -0.2693
 6310W        W23158   8.830  10.468  13.959 -0.1018  0.5264 -0.0600
 6311W        W23159   8.931   1.622   1.000 -0.2682  0.0414  0.2098
 6312W        W23160  14.025  14.089   0.490  0.3053  0.2246  0.1006
 6313W        W23161   4.447  18.195  12.409  0.0669 -0.0658  0.1354
 6314W        W23162  14.604  11.204   3.526 -0.1160  0.1433  0.3423
 6315W        W23163   0.202  15.070  10.678  0.1086  0.2377  0.1089
 6316W        W23164  14.284   2.445   0.041 -0.4163 -0.2211  0.0585
 6317W        W23165   7.951   3.072   1.603  0.1423  0.0539  0.0466
 6318W        W23166  11.544   2.285  15.037 -0.1574  0.0476  0.1788
 6319W        W23167  10.998   6.146  14.078  0.0605  0.0657 -0.0078
 6320W        W23168   8.991  14.229  13.513 -0.0377 -0.2584  0.3018
 6321W        W23169  14.362   1.053   1.244 -0.0741 -0.2125 -0.0015
 6322W        W23170   5.313   4.185   4.960  0.0617 -0.1532  0.1289
 6323W        W23171   9.228  12.850  15.477 -0.1937  0.0288  0.0523
 6324W        W23172   4.109  11.732   3.250 -0.0475  0.1066  0.0755
 6325W        W23173   9.193   2.041   3.607  0.0652 -0.2132 -0.1340
 6326W        W23174   3.001  11.093  14.363 -0.0569  0.3039 -0.2365
 6327W        W23175   3.946   6.318   0.118 -0.0046  0.0540 -0.2619
 6328W        W23176  14.202   1.131   4.490 -0.1830  0.2111 -0.1960
 6329W        W23177  12.739   4.560   4.716  0.0819 -0.0004  0.0464
 6330W        W23178   2.353   4.263  12.151 -0.1691 -0.1904 -0.1574
 6331W        W23179   5.463   3.360   4.669 -0.0576  0.1870  0.3802
 6332W        W23180  14.499  10.968  15.669 -0.2453 -0.0253  0.0756
 6333W        W23181   3.810   2.101  12.695 -0.2361 -0.1432  0.0063
 6334W        W23182  15.778  10.088   1.326  0.4375  0.0182  0.1270
 6335W        W23183   9.764  14.229   5.973 -0.1628 -0.2245 -0.0402
 6336W        W23184   0.815   8.533   4.771  0.3720  0.1031  0.0417
 6337W        W23185   0.751   7.199   1.014  0.0588 -0.0703 -0.4721
 6338W        W23186  13.275  13.656  11.394  0.2505  0.1324  0.2382
 6339W        W23187  16.216  11.983   4.866 -0.1674  0.0337  0.4341
 6340W        W23188   0.980   5.557   5.485  0.1176 -0.0771  0.2368
 6341W        W23189   9.528  11.177   6.310  0.0858 -0.1075 -0.4787
 6342W        W23190   0.399  12.445   3.261 -0.0065  0.0765  0.0938
 6343W        W23191   1.563   8.171  13.715  0.0029  0.0072 -0.1392
 6344W        W23192  13.757   8.539  11.588  0.1136 -0.3289  0.2160
 6345W        W23193   9.009   6.620   0.512  0.1494 -0.0000 -0.1171
 6346W        W23194  16.922   9.488  13.486  0.1812  0.1720  0.0957
 6347W        W23195  13.853   2.926   4.267  0.0038  0.1138  0.0247
 6348W        W23196  12.896  14.494   4.937 -0.2015 -0.0926 -0.2107
 6349W        W23197   2.569   9.299   2.041  0.2061  0.1203 -0.0812
 6350W        W23198  11.671   9.572   2.174 -0.3092  0.0043 -0.1186
 6351W        W23199  13.118   7.656   5.137  0.2556 -0.3844  0.2154
 6352W        W23200  17.303   1.229  14.145 -0.1256  0.0723 -0.1880
 6353W        W23201  17.930   2.014  15.432  0.1973  0.2252 -0.1985
 6354W        W23202  17.858   1.581   2.044  0.0835  0.2357  0.2758
 6355W        W23203   6.670  14.167   4.817 -0.0649 -0.3539 -0.6221
 6356W        W23204   1.863  13.057  15.328  0.3736  0.0040 -0.0049
 6357W        W23205   6.260   7.204  12.533  0.0434 -0.3434  0.1697
 6358W        W23206   5.238  16.320  11.936 -0.1411  0.0757 -0.1439
 6359W        W23207   6.863   0.074   2.378 -0.1071  0.0396 -0.0487
 6360W        W23208  11.970   6.353  15.231 -0.3041  0.0667  0.0589
 6361W        W23209   3.085   3.543   3.137  0.4732  0.0099  0.0637
 6362W        W23210  13.853   9.299   3.663 -0.1969 -0.0306  0.0443
 6363W        W23211   4.330   6.710   4.362 -0.0309  0.0727 -0.1559
 6364W        W23212   6.244   4.634  13.482 -0.2411  0.0840  0.3061
 6365W        W23213   5.443  17.033  12.484  0.1109  0.0405 -0.1840
 6366W        W23214   1.782  11.917   3.500  0.0909 -0.1409  0.2102
 6367W        W23215   4.379  14.314   2.137 -0.1331 -0.0686  0.2776
 6368W        W23216  11.274  16.905   0.712 -0.1572 -0.3101  0.1432
 6369W        W23217  17.430  14.914   4.229  0.3263  0.0838  0.2044
 6370W        W23218  15.724   2.278   2.310  0.0001 -0.1482 -0.0350
 6371W        W23219  16.339  16.463  12.732  0.0752 -0.0097 -0.2198
 6372W        W23220  12.125  16.422  13.761 -0.0447 -0.0351  0.1427
 6373W        W23221   2.642   7.097  11.296 -0.1249  0.3535  0.5065
 6374W        W23222   1.625   9.490  12.321  0.0540 -0.1354 -0.2027
 6375W        W23223  14.382  16.390  12.956 -0.0143  0.1190  0.0773
 6376W        W23224   8.411   2.210  11.312  0.2929  0.4895  0.0508
 6377W        W23225   9.636   2.698   3.309  0.0883  0.0465 -0.1738
 6378W        W23226  11.149  12.488  14.657  0.1296 -0.3850  0.0943
 6379W        W23227   5.932   4.484   1.516 -0.0855 -0.0187  0.3599
 6380W        W23228  16.657   5.199   2.404 -0.2335  0.1393 -0.3122
 6381W        W23229   4.960   4.567  13.273  0.2594  0.0075 -0.1136
 6382W        W23230   4.818   3.918   3.393 -0.4578  0.0273  0.0833
 6383W        W23231   9.872   5.026  14.223  0.0844 -0.4046 -0.1034
 6384W        W23232   2.675   7.113  13.016 -0.2376 -0.1371 -0.0997
 6385W        W23233   0.770   2.908   2.429  0.2042  0.3973  0.2159
 6386W        W23234   9.972   3.973  15.827  0.2307  0.0517 -0.2278
 6387W        W23235   5.996   8.078   1.276  0.0216 -0.0979 -0.2689
 6388W        W23236  13.054   5.584  12.601 -0.1555  0.3296 -0.1109
 6389W        W23237  13.673   9.246  12.592  0.0212  0.0117 -0.1024
 6390W        W23238   4.199  10.006   4.572  0.0579  0.1916  0.1863
 6391W        W23239  12.777  10.526  14.947  0.2303  0.0790 -0.1016
 6392W        W23240   3.053  10.516  10.571 -0.0332 -0.1672 -0.0155
 6393W        W23241  17.849   2.785  11.432 -0.1166  0.1728  0.3492
 6394W        W23242  16.297  11.304   0.871 -0.3136  0.1541  0.4209
 6395W        W23243   4.276  16.496  11.669 -0.0201 -0.1100  0.1457
 6396W        W23244   3.641   7.733   1.426 -0.2407  0.1603  0.0778
 6397W        W23245  15.130   1.531  12.624  0.1369 -0.1215  0.0308
 6398W        W23246   0.258  12.993   0.357 -0.3258  0.2394  0.2390
 6399W        W23247  16.280  15.516  13.056 -0.0763  0.0598  0.4070
 6400W        W23248   4.614   0.662   1.349 -0.1200  0.0045  0.4274
 6401W        W23249   0.581   6.660   0.992  0.1046 -0.1688 -0.1822
 6402W        W23250   6.369   9.612   1.596 -0.0033  0.0119 -0.0878
 6403W        W23251   9.607  15.466   4.939 -0.1198  0.2565  0.0872
 6404W        W23252  14.824   8.384  13.772  0.3069 -0.1498 -0.1410
 6405W        W23253   0.717  13.216  13.097  0.0260  0.4845 -0.1327
 6406W        W23254  10.367  10.406   2.225 -0.1887 -0.2340  0.0650
 6407W        W23255  17.064   2.903   4.597 -0.4060 -0.0288 -0.0228
 6408W        W23256   0.386  14.327  10.877 -0.0352  0.1037 -0.2470
 6409W        W23257   2.017   0.030  14.381  0.0345 -0.2017  0.1992
 6410W        W23258   0.678  10.284   2.761  0.0405 -0.0263 -0.1974
 6411W        W23259   0.832   3.201   3.449 -0.1422 -0.0088  0.1799
 6412W        W23260  14.891  15.651  15.998  0.2167 -0.2136 -0.0707
 6413W        W23261  15.306   1.013  12.662  0.0150  0.0415  0.4383
 6414W        W23262   7.979   2.291   3.098  0.0804 -0.2009 -0.2128
 6415W        W23263   1.082   2.859  14.986  0.2657  0.1349  0.0657
 6416W        W23264   9.470  13.182  14.072 -0.0177  0.0779 -0.1469
 6417W        W23265  11.030   3.215   0.496  0.2186  0.2719  0.0937
 6418W        W23266   2.460  14.248  13.902 -0.0552  0.1508 -0.1679
 6419W        W23267  16.761   4.676  13.444  0.0078 -0.0235 -0.1349
 6420W        W23268  15.316   1.471   3.067 -0.1795  0.2859  0.0494
 6421W        W23269   9.971  18.099  12.490  0.1828 -0.1252 -0.2486
 6422W        W23270  11.871   7.741  15.622  0.0056 -0.1379 -0.0153
 6423W        W23271  16.609  14.645  14.453 -0.2592  0.0907 -0.0535
 6424W        W23272  11.054   6.800  12.297 -0.0433  0.1103 -0.3052
 6425W        W23273  15.506   6.643  15.941 -0.0584 -0.3013 -0.0600
 6426W        W23274   1.963   4.751  12.284  0.0816 -0.0503 -0.1735
 6427W        W23275   1.690  16.701  12.981  0.1445  0.3124 -0.0506
 6428W        W23276   9.140   8.631  12.023  0.1178 -0.1057 -0.0912
 6429W        W23277   1.670   6.294   5.622  0.2016  0.2137 -0.2358
 6430W        W23278  16.006  15.678  12.476  0.0820 -0.0765  0.0568
 6431W        W23279  13.846  17.220   2.867  0.0405  0.1690  0.0571
 6432W        W23280  11.856   0.225   4.315 -0.0007 -0.2221 -0.1530
 6433W        W23281   8.947  16.124  11.527  0.1486  0.3908  0.2264
 6434W        W23282   9.669  16.625  13.981 -0.6026 -0.1848  0.0410
 6435W        W23283   6.801  10.791   2.061 -0.0057 -0.3656 -0.3009
 6436W        W23284   6.930  10.883   2.680 -0.0726 -0.3679  0.2384
 6437W        W23285   2.109  16.207  11.676 -0.2157  0.0986 -0.2913
 6438W        W23286   5.370  13.262  14.253  0.0473 -0.3074  0.0987
 6439W        W23287  12.701  10.869   3.469 -0.1552 -0.0696 -0.0007
 6440W        W23288  17.706  10.439   2.909  0.1322 -0.2139  0.0988
 6441W        W23289   7.293  11.731  12.416 -0.1752 -0.2195  0.1020
 6442W        W23290   1.199  12.263  12.101  0.1904  0.1264  0.0893
 6443W        W23291   0.997  11.663   3.899 -0.2180  0.0375 -0.2538
 6444W        W23292  11.045  11.562  14.367 -0.0530  0.0501 -0.0757
 6445W        W23293  16.419   0.330  12.503  0.2763 -0.2205  0.0466
 6446W        W23294  13.785  13.006  15.404  0.0992 -0.1488  0.0240
 6447W        W23295  12.206  14.135  13.412  0.0269  0.0351 -0.1152
 6448W        W23296   4.160  11.933  12.653 -0.2357 -0.1794 -0.1215
 6449W        W23297  11.264  10.656   0.817 -0.2983  0.1946  0.0820
 6450W        W23298   0.328  16.459  13.260 -0.1677 -0.0085 -0.2189
 6451W        W23299   2.750  14.062  13.015  0.0704 -0.1206  0.2831
 6452W        W23300   2.140  12.185  11.808 -0.2127 -0.0401 -0.2389
 6453W        W23301   4.425  17.761  10.718 -0.1173 -0.0209 -0.2048
 6454W        W23302  15.990  14.743   0.234 -0.1069  0.0981  0.2043
 6455W        W23303   1.951  12.427   0.687 -0.1484 -0.4017  0.0920
 6456W        W23304  14.003  17.979   0.692 -0.0803  0.0599 -0.0135
 6457W        W23305   2.799   9.632   3.405  0.1165  0.0065 -0.0727
 6458W        W23306   2.115  13.365  11.732 -0.1671  0.1450 -0.2239
 6459W        W23307   5.590  18.020   2.313 -0.5161  0.2009 -0.2190
 6460W        W23308  15.362   4.863   2.062  0.1411 -0.3040 -0.0439
 6461W        W23309  15.068  10.040   4.179  0.2245 -0.1350  0.0463
 6462W        W23310  17.088   0.210  12.095 -0.0567  0.0050 -0.1772
 6463W        W23311  11.635  16.268   4.911  0.0627  0.0711  0.1047
 6464W        W23312  15.742   6.411   3.545  0.0907  0.3446 -0.2505
 6465W        W23313  12.297  15.083   2.784 -0.2189  0.0303  0.0408
 6466W        W23314   4.985  12.734  11.545 -0.1648 -0.2714  0.0405
 6467W        W23315  14.532   9.279   5.012 -0.1992  0.0271 -0.0667
 6468W        W23316  14.697  17.216  12.163 -0.0991  0.1710  0.0726
 6469W        W23317  12.165   1.103   0.369 -0.1424 -0.4388 -0.4445
 6470W        W23318   3.135  13.708  12.367  0.0655 -0.2549  0.0750
 6471W        W23319   6.424   5.829  14.346  0.2465 -0.0537 -0.0716
 6472W        W23320  14.207   6.910  11.578 -0.2609 -0.2419  0.2401
 6473W        W23321   1.638  15.701   1.570  0.1866  0.0163  0.2337
 6474W        W23322  15.610   5.993  15.118  0.0287  0.0731 -0.0398
 6475W        W23323   3.251   9.574  16.007  0.0272 -0.1374 -0.2329
 6476W        W23324  14.032  14.827  12.366 -0.0296  0.2389  0.0961
 6477W        W23325  10.432   8.187  11.326  0.2209 -0.1288 -0.1661
 6478W        W23326  12.437   9.426   3.628  0.1701 -0.1078 -0.3319
 6479W        W23327   6.227   6.881  14.102  0.0438 -0.1588  0.1054
 6480W        W23328  18.206  17.283  12.730  0.2047  0.1868 -0.5381
 6481W        W23329   6.489  16.661  11.940 -0.2896  0.0923 -0.1980
 6482W        W23330  15.489  10.306   4.346  0.3506 -0.0813  0.2991
 6483W        W23331   9.645   5.272  15.644 -0.0344  0.1499 -0.6510
 6484W        W23332  12.508   3.693  11.869 -0.1356 -0.0717 -0.0201
 6485W        W23333  15.259   8.094   2.397 -0.1007  0.1440  0.0608
 6486W        W23334   3.021   8.620   0.679  0.3658 -0.2023 -0.0886
 6487W        W23335  14.284   2.478  15.237 -0.1868  0.0313  0.0026
 6488W        W23336  14.682  18.009   1.315 -0.2844  0.1728  0.0171
 6489W        W23337  15.601   3.104   5.322  0.0236 -0.2605  0.0244
 6490W        W23338   3.028  17.661   0.300 -0.0488  0.0768 -0.0809
 6491W        W23339   0.715   1.622  12.372 -0.2399 -0.1173 -0.0483
 6492W        W23340  14.601  15.529   5.947  0.0699 -0.0779 -0.2318
 6493W        W23341   8.773   6.719  14.288 -0.2829 -0.0678 -0.0990
 6494W        W23342   3.942   4.365   5.447 -0.1361  0.0417 -0.0912
 6495W        W23343   4.130   3.445   4.518  0.2230 -0.0303  0.3858
 6496W        W23344  15.608  15.842  15.408  0.2997 -0.1907  0.2753
 6497W        W23345   4.327  12.864  12.335 -0.2319 -0.1078 -0.0884
 6498W        W23346   2.929   1.037  15.596 -0.0121 -0.0182 -0.2177
 6499W        W23347   7.369   3.225   4.813  0.1407  0.2309 -0.0939
 6500W        W23348   4.815   5.933  15.550  0.1497  0.0433 -0.1384
 6501W        W23349  14.655   3.044  11.867 -0.0006  0.1849 -0.1111
 6502W        W23350   5.071   1.827   5.692 -0.3846  0.0287  0.2377
 6503W        W23351   7.088   2.609   5.444  0.0011  0.4548 -0.0911
 6504W        W23352   3.180  12.768  14.524  0.0672 -0.5114 -0.1530
 6505W        W23353   5.878   9.322  12.502  0.2399 -0.3855  0.1067
 6506W        W23354  16.513   8.840  15.937  0.0234 -0.1628  0.1446
 6507W        W23355   9.266  14.082   3.058 -0.0577  0.1685 -0.2083
 6508W        W23356   4.964   9.402  12.544 -0.0067  0.0711  0.0062
 6509W        W23357  17.654  17.470   1.139 -0.0540 -0.1488 -0.0951
 6510W        W23358   7.239   1.240   2.760 -0.1832 -0.0251  0.1010
 6511W        W23359  10.268   9.701  15.088 -0.0626  0.0654 -0.2552
 6512W        W23360  11.352   6.037  14.452 -0.3058  0.3176  0.1966
 6513W        W23361  14.419   7.001   1.167 -0.1420  0.2772 -0.0226
 6514W        W23362   2.541   2.842   1.609 -0.0931  0.0482  0.0396
 6515W        W23363   2.691  18.073   4.933 -0.1688 -0.0520  0.1741
 6516W        W23364   9.978   8.815  11.823 -0.2261 -0.1251 -0.2219
 6517W        W23365   5.402  18.077  15.281 -0.0708 -0.0230  0.0218
 6518W        W23366   4.776  16.005   2.410 -0.0836  0.2163 -0.0116
 6519W        W23367  11.321  13.496   1.144  0.3310  0.0032  0.1831
 6520W        W23368   2.464   6.674  15.976  0.0816  0.0261 -0.1026
 6521W        W23369   2.842   7.476   4.098 -0.0252 -0.1395 -0.0110
 6522W        W23370  16.137   8.213   3.303  0.3209 -0.0242 -0.1580
 6523W        W23371  17.299  13.933   3.688 -0.1017 -0.1742  0.2116
 6524W        W23372   7.344   9.459  14.394 -0.1211  0.2352  0.1292
 6525W        W23373   6.934  15.158  15.414 -0.1202  0.3096  0.1753
 6526W        W23374   0.810  17.772  13.760  0.2028 -0.3976 -0.1557
 6527W        W23375  12.394   8.703   3.706 -0.0795 -0.0572 -0.2462
 6528W        W23376   6.763  13.662   3.157 -0.3216  0.1556 -0.2405
 6529W        W23377  16.968  16.273  13.940 -0.0992 -0.1105  0.0905
 6530W        W23378  12.788  10.846   5.347 -0.1268 -0.0472 -0.0051
 6531W        W23379  17.303  12.732  11.564  0.1325  0.0273 -0.1055
 6532W        W23380  13.856  14.240   4.820  0.0987 -0.1034  0.2021
 6533W        W23381  11.280  16.901  15.494 -0.3072  0.1509  0.0118
 6534W        W23382  11.964  15.073  14.323 -0.0582 -0.3648 -0.1552
 6535W        W23383  14.305   6.484   2.929 -0.1702 -0.4558  0.0478
 6536W        W23384  14.775   5.551  15.058 -0.0946 -0.2041 -0.1933
 6537W        W23385  12.963   7.248  15.609 -0.3926 -0.1150  0.2741
 6538W        W23386  14.313  14.050   0.903  0.0279 -0.1640 -0.2386
 6539W        W23387  17.988  12.499  15.311  0.1333 -0.0952  0.0618
 6540W        W23388  15.714  14.782  12.729  0.2121  0.0096 -0.0266
 6541W        W23389   5.436   6.017   4.492 -0.1848 -0.4736  0.1535
 6542W        W23390   6.260   5.646   2.210 -0.2349  0.0956  0.0633
 6543W        W23391  13.997   8.891  15.498 -0.2907 -0.1055 -0.0129
 6544W        W23392   6.045   7.754   1.765  0.2853 -0.4179  0.1321
 6545W        W23393  16.103  10.626  13.184 -0.0971 -0.0403  0.0271
 6546W        W23394   4.371  14.202  11.382  0.0044 -0.0266  0.1960
 6547W        W23395  17.807  10.848   4.123  0.1479  0.2806  0.2846
 6548W        W23396   5.005   6.813  14.057 -0.0401 -0.3363  0.1645
 6549W        W23397   9.279   4.305  14.516 -0.1880 -0.1692 -0.0358
 6550W        W23398   6.712   9.004   5.135 -0.1670 -0.0045  0.1426
 6551W        W23399  15.602   1.274  11.064  0.0979  0.1382  0.1134
 6552W        W23400  10.811  11.102   3.866  0.0530  0.0957  0.0186
 6553W        W23401  14.161   6.039  11.470 -0.1406 -0.0031 -0.1069
 6554W        W23402   4.398  10.176  12.335 -0.0329 -0.2270  0.2178
 6555W        W23403  10.872  17.926   4.211 -0.0952  0.4181  0.2787
 6556W        W23404  14.649   3.187  15.291 -0.2964  0.1813  0.1028
 6557W        W23405   0.449   1.643   4.544  0.0932  0.0979  0.0831
 6558W        W23406   8.240  10.410   4.722 -0.0538 -0.0690 -0.0761
 6559W        W23407   0.993  11.807  15.001 -0.0092 -0.3642 -0.1371
 6560W        W23408  11.560  12.702   3.069  0.2817  0.0822  0.2540
 6561W        W23409  11.169  16.441  13.932  0.3317  0.3148 -0.1706
 6562W        W23410   0.089   1.105   2.415  0.3403  0.5666 -0.1184
 6563W        W23411  10.598   0.422  10.952 -0.4202 -0.2570 -0.1300
 6564W        W23412  16.575   3.696   2.585  0.1183 -0.1713  0.2813
 6565W        W23413  13.189   4.831   2.534  0.0317 -0.1442 -0.2268
 6566W        W23414   1.340   5.492  12.389 -0.1674  0.1750  0.2600
 6567W        W23415  17.341  12.884  15.593  0.0767 -0.5775  0.0677
 6568W        W23416   0.712   5.924   3.163  0.1813  0.0205 -0.1840
 6569W        W23417  13.431   8.221  15.366  0.0463 -0.0325  0.2946
 6570W        W23418  14.369   9.424   2.364  0.1385  0.3614 -0.1627
 6571W        W23419  14.806   7.635   1.105  0.0269 -0.0805  0.0431
 6572W        W23420   1.932   4.301  12.573 -0.1323  0.0636  0.1118
 6573W        W23421   5.503   1.134   3.560 -0.2526  0.1056 -0.1609
 6574W        W23422   4.374   4.434  14.408 -0.1759  0.1804 -0.0948
 6575W        W23423   4.129  14.949   2.694  0.0092 -0.0547 -0.0248
 6576W        W23424   3.637   0.231  12.521 -0.1170  0.0416 -0.1043
 6577W        W23425   5.387  11.465  11.725  0.2105 -0.2391  0.0737
 6578W        W23426  15.041   9.373   0.500 -0.2231 -0.1942  0.0466
 6579W        W23427   8.794  12.983  14.130  0.1413 -0.0692  0.2209
 6580W        W23428   1.544   1.206   2.315 -0.0183 -0.1267  0.1806
 6581W        W23429   2.691   5.700  11.386 -0.0713  0.0661 -0.1076
 6582W        W23430   3.042   8.581  15.051  0.0630 -0.1256  0.2035
 6583W        W23431   7.871   8.900  14.795  0.1126 -0.1096 -0.2808
 6584W        W23432  12.276  11.712  12.300  0.1899 -0.1702  0.4643
 6585W        W23433  15.196   0.179  11.808  0.0514  0.1622  0.1718
 6586W        W23434   8.158   3.105  14.536 -0.1352  0.3400 -0.0667
 6587W        W23435  16.406  17.265   2.441  0.0770 -0.0012 -0.0031
 6588W        W23436  16.359  10.865  12.505 -0.0133  0.2789  0.0516
 6589W        W23437  14.186   8.428   2.095 -0.0292  0.0413 -0.0035
 6590W        W23438   9.780   8.068  13.666 -0.0394  0.1164 -0.1457
 6591W        W23439  17.107  17.537   2.963 -0.0051 -0.0394 -0.2881
 6592W        W23440   5.090   1.495  15.045  0.0273 -0.1676 -0.1981
 6593W        W23441   1.526   4.218  14.225 -0.0711  0.0367  0.0755
 6594W        W23442   9.050  15.164   4.130  0.3301 -0.0067 -0.1478
 6595W        W23443  17.388   5.602  14.315  0.0384 -0.2672 -0.0432
 6596W        W23444   9.046   1.682   1.572  0.3323  0.1541  0.0894
 6597W        W23445  16.920   4.163  11.992  0.1549 -0.2337 -0.1333
 6598W        W23446   2.563  16.402   2.489 -0.0592 -0.4029 -0.0090
 6599W        W23447   3.231   6.108   4.566  0.0940 -0.2362  0.1657
 6600W        W23448  11.056  15.271   3.961  0.0158 -0.2510 -0.2376
 6601W        W23449  12.165   6.034  12.600  0.2155  0.0572 -0.1058
 6602W        W23450   3.699  10.890  12.078  0.2677  0.0615  0.0298
 6603W        W23451  12.139   7.700  16.046  0.3180 -0.0833  0.1607
 6604W        W23452   0.733   0.502   1.791 -0.1129  0.0943  0.0026
 6605W        W23453   4.850  10.171  10.171 -0.3594 -0.1061 -0.1174
 6606W        W23454   4.509  15.210   2.652  0.1977  0.0047 -0.1171
 6607W        W23455   0.246  10.814   0.230 -0.2188 -0.1318 -0.2896
 6608W        W23456   0.253  11.505   6.058  0.2609  0.2551 -0.4441
 6609W        W23457   2.421  13.014   3.139  0.1455  0.1050  0.1081
 6610W        W23458   3.195   7.248  12.526 -0.1594  0.2689 -0.0131
 6611W        W23459   7.740   7.769   1.485  0.0032  0.1337 -0.4902
 6612W        W23460   1.440  16.706  12.535 -0.2115  0.0119 -0.3940
 6613W        W23461   2.695  10.792   4.410  0.3355 -0.1355  0.2321
 6614W        W23462   3.022   8.154   0.901 -0.3245 -0.0109 -0.2854
 6615W        W23463   6.308  14.822  12.150 -0.1150  0.4276 -0.0317
 6616W        W23464  16.624   6.656   1.114  0.0438 -0.0945 -0.2825
 6617W        W23465  15.566  17.746  12.873 -0.1314  0.0500  0.0456
 6618W        W23466   7.961  17.565   1.751  0.2001  0.3342 -0.0475
 6619W        W23467  13.211   5.982  13.397  0.1239  0.0651  0.2587
 6620W        W23468   8.894  13.845   4.426  0.2543 -0.1732  0.0130
 6621W        W23469  17.062   5.845   0.849  0.2197 -0.0627  0.0395
 6622W        W23470   8.234   7.540  12.646 -0.0205 -0.1997 -0.2152
 6623W        W23471   6.329   5.992   1.313 -0.0118  0.0463 -0.0641
 6624W        W23472   6.361   3.982   3.413  0.2249  0.2886 -0.0212
 6625W        W23473   9.702  16.140   1.418  0.0243  0.2056 -0.1736
 6626W        W23474   7.613   6.116   2.320  0.2512  0.0449  0.1236
 6627W        W23475   5.447   1.645   3.436  0.2915  0.0761  0.0568
 6628W        W23476   4.931   7.387   3.841 -0.0160 -0.0850 -0.1021
 6629W        W23477  16.984   8.679   3.152  0.1473 -0.1380 -0.0322
 6630W        W23478   6.071   8.513  12.812  0.1947 -0.1493  0.2859
 6631W        W23479  12.114  10.797   0.698  0.0070  0.0625 -0.0484
 6632W        W23480  16.763   4.770   3.188  0.3832 -0.1417 -0.2376
 6633W        W23481   5.923  14.324  11.073  0.0945  0.4319  0.3704
 6634W        W23482  11.324   1.821   5.010  0.2247  0.0922  0.1454
 6635W        W23483  13.760   6.572   5.008 -0.0118  0.1050  0.4379
 6636W        W23484   4.033   6.007  11.720  0.1899 -0.4293  0.1043
 6637W        W23485  14.347   0.497   2.025  0.0543 -0.0989 -0.4206
 6638W        W23486  17.855  11.920   3.440 -0.1812  0.0527  0.1681
 6639W        W23487   0.600  13.628   1.245  0.1904 -0.0899  0.3020
 6640W        W23488  15.415   8.519  13.151 -0.1081  0.1660  0.3290
 6641W        W23489   6.222  16.894   0.880  0.2064  0.2094 -0.0260
 6642W        W23490   0.456   8.791  11.750  0.0830 -0.2416 -0.0934
 6643W        W23491   2.962   7.359   0.073 -0.2570  0.2899  0.0961
 6644W        W23492   8.592   6.556  11.773 -0.0162 -0.1490  0.0800
 6645W        W23493  17.662  16.937  13.985 -0.0069 -0.0100  0.1780
 6646W        W23494  13.982   7.616  11.465  0.0130  0.1398 -0.1239
 6647W        W23495   0.555  10.526  12.310  0.0332 -0.1627 -0.1887
 6648W        W23496   2.528  11.399  14.303 -0.0056 -0.2569  0.4153
 6649W        W23497   7.246  14.083   4.235 -0.0507 -0.2032 -0.0423
 6650W        W23498   4.929   0.173   3.164 -0.2792  0.4320 -0.0438
 6651W        W23499   0.095   9.411  12.744 -0.0767 -0.0605  0.0686
 6652W        W23500   3.108   3.581  15.119 -0.0018 -0.4401 -0.1358
 6653W        W23501  17.311   0.998  13.699  0.2023  0.0846 -0.3116
 6654W        W23502  17.483   5.612  15.045  0.0885  0.2178 -0.0595
 6655W        W23503   2.644   3.230   3.863  0.1284 -0.1311  0.0889
 6656W        W23504   4.866   8.429  13.154 -0.0627 -0.0495 -0.2254
 6657W        W23505  17.962   4.390   2.747  0.1503 -0.1401 -0.1116
 6658W        W23506   4.675  12.745   0.642  0.4563  0.1077  0.3053
 6659W        W23507  11.255   0.303  12.025  0.1818  0.1513  0.2882
 6660W        W23508   7.862  10.771  11.265 -0.2205  0.1891 -0.0123
 6661W        W23509  17.085  15.942  15.121 -0.2460  0.1219 -0.1202
 6662W        W23510  18.101   6.245   2.743  0.3559  0.2776 -0.0263
 6663W        W23511  10.909   8.490  12.861  0.0247 -0.0986  0.1396
 6664W        W23512  15.862   4.046   3.294 -0.0068  0.0741  0.2901
 6665W        W23513  13.796   9.567  14.436  0.1698  0.0218  0.3392
 6666W        W23514   5.722   0.066   1.940 -0.0959  0.1323 -0.1152
 6667W        W23515   0.293  11.298   3.718  0.1184  0.1458  0.3220
 6668W        W23516  11.708   2.664  15.534  0.2900 -0.0944 -0.1033
 6669W        W23517  10.149  13.395   1.272  0.1088 -0.0765 -0.1890
 6670W        W23518   4.179  13.021  13.635 -0.1354 -0.3617  0.3283
 6671W        W23519  16.352  13.633   4.692  0.1864  0.0163 -0.0639
 6672W        W23520  12.124   4.081  11.956 -0.0767  0.0980  0.2730
 6673W        W23521   3.304  12.575  10.742 -0.2916  0.2484  0.0209
 6674W        W23522  14.441  16.273   1.265 -0.0075 -0.0186  0.0751
 6675W        W23523   7.911   5.700   0.340  0.0049  0.4586 -0.1268
 6676W        W23524  12.699   4.165   2.151  0.2141  0.3792 -0.0090
 6677W        W23525   1.209   2.637  10.827  0.2637  0.1165 -0.2609
 6678W        W23526  11.953   6.418  14.719 -0.2392  0.0470  0.0594
 6679W        W23527   0.501  15.007  13.360  0.2064 -0.0815 -0.0506
 6680W        W23528   2.228   1.705  10.872  0.1932 -0.0268 -0.1233
 6681W        W23529   0.760   6.699   3.783  0.0165 -0.1914 -0.0727
 6682W        W23530   4.150   6.165  15.528 -0.1215  0.1052 -0.2664
 6683W        W23531   5.437  14.191  13.904 -0.2839  0.0481 -0.1463
 6684W        W23532  14.755  13.617   3.954  0.2374 -0.1007  0.2254
 6685W        W23533  15.175   8.991   3.467 -0.3466  0.1031  0.2631
 6686W        W23534  16.296   2.268   0.544  0.3565  0.0819 -0.0692
 6687W        W23535   2.522   4.785   4.249 -0.0419  0.1400  0.0070
 6688W        W23536   4.840   4.552   0.318 -0.0571 -0.3896  0.3143
 6689W        W23537   4.122   4.926   2.880 -0.0671 -0.0786  0.2248
 6690W        W23538  14.803  14.410   1.985 -0.0457  0.1033 -0.0687
 6691W        W23539   2.349   6.281  13.103  0.3291 -0.1285 -0.1638
 6692W        W23540   0.542   8.318  11.920 -0.0366  0.0486 -0.0851
 6693W        W23541   3.400  15.249   3.124 -0.0513 -0.2247 -0.1697
 6694W        W23542   4.151  13.949   0.664 -0.6248 -0.4150 -0.0501
 6695W        W23543  11.902  17.518   2.426 -0.0539  0.0296  0.2280
 6696W        W23544  17.558   6.165  11.569 -0.1296  0.2697  0.2280
 6697W        W23545   5.149   6.639  11.500 -0.0639 -0.0250 -0.1495
 6698W        W23546   9.683   6.851   4.272  0.1784  0.1500 -0.0485
 6699W        W23547  12.769  10.604   0.709  0.1700  0.0851  0.1898
 6700W        W23548  12.329   3.669   0.751 -0.1204  0.1660 -0.4359
 6701W        W23549  17.607  13.642  13.311  0.0769  0.0472 -0.2569
 6702W        W23550   1.211   9.909   4.809 -0.2629  0.1454  0.1019
 6703W        W23551  11.350  13.818   3.931  0.0080  0.1247 -0.1387
 6704W        W23552  14.161  14.194  14.206  0.1204  0.0069 -0.1825
 6705W        W23553  17.558   2.890   4.401  0.0098  0.0047  0.4523
 6706W        W23554   9.175  12.684  11.231  0.0093  0.1900 -0.0070
 6707W        W23555  14.306   9.446  11.939 -0.1279  0.1971  0.1736
 6708W        W23556   4.445  13.090  13.144  0.0902 -0.2067  0.1464
 6709W        W23557   6.654   4.131  12.717  0.1977 -0.2550 -0.0051
 6710W        W23558   3.639   5.845   4.881 -0.1046 -0.0120 -0.1008
 6711W        W23559  12.407   3.037  12.683 -0.0667 -0.3308 -0.2336
 6712W        W23560  17.632   7.727  14.587  0.0946  0.2791  0.1917
 6713W        W23561  10.519   7.473   2.196  0.1342  0.2598  0.1735
 6714W        W23562  13.096   5.206  15.934 -0.0250 -0.0316  0.1005
 6715W        W23563   1.747  13.795  12.703  0.1782  0.2099 -0.0367
 6716W        W23564  15.219   9.089   0.092 -0.0931 -0.0132 -0.2043
 6717W        W23565   6.667   1.269   2.851  0.1028 -0.0652 -0.0028
 6718W        W23566  17.343   6.804   4.429 -0.2333  0.0104  0.5807
 6719W        W23567   3.769   5.080   5.267 -0.1634  0.0001 -0.0898
 6720W        W23568   4.815   7.908   1.843 -0.1353 -0.1462  0.2175
 6721W        W23569  16.486  15.075  12.993 -0.2497  0.1444  0.0371
 6722W        W23570  15.152  17.585   0.312  0.1779  0.0678  0.2122
 6723W        W23571  15.869  12.272   4.333  0.0651 -0.1420 -0.1586
 6724W        W23572  11.252  10.204   0.526  0.1531 -0.1423  0.3667
 6725W        W23573   9.014   0.909  15.890  0.3191 -0.1852 -0.3038
 6726W        W23574  16.233  15.978  13.204 -0.0720 -0.0089 -0.4125
 6727W        W23575   1.201  10.019  11.362 -0.1059 -0.1972 -0.0866
 6728W        W23576  17.755  13.330   1.295 -0.0714  0.0475  0.0491
 6729W        W23577  17.251  10.676  12.250 -0.3556  0.1760  0.0533
 6730W        W23578   9.247   3.327   6.107  0.0730 -0.1921  0.1565
 6731W        W23579   3.121  16.087  14.876  0.0269 -0.0307  0.1363
 6732W        W23580  16.014   8.674   5.451  0.0884  0.0241  0.2093
 6733W        W23581   1.991   7.419  15.847 -0.0885 -0.2723 -0.0180
 6734W        W23582   7.474   1.360   5.210  0.1868 -0.1620 -0.2146
 6735W        W23583   4.488   0.166   1.430 -0.3214 -0.1397  0.2624
 6736W        W23584  12.116   0.158  13.897  0.3656 -0.0789 -0.1129
 6737W        W23585  12.821   1.655   0.739  0.0129  0.2411  0.1583
 6738W        W23586  15.121  11.922  13.864  0.0512  0.0257  0.0936
 6739W        W23587   7.850   3.781  12.834  0.0865 -0.2858  0.0707
 6740W        W23588   4.308   0.115   5.056 -0.0979  0.2206 -0.2864
 6741W        W23589   2.160   0.108  12.768 -0.1497  0.4013  0.1598
 6742W        W23590   7.556   8.090  13.807  0.1511  0.2489  0.1161
 6743W        W23591   5.085   8.229   0.911  0.2790 -0.2250  0.0238
 6744W        W23592  11.150   7.941   6.557  0.2254 -0.1946 -0.0476
 6745W        W23593   3.137  10.123  11.590 -0.0694 -0.1404 -0.0089
 6746W        W23594   5.286   6.799   3.259  0.4135 -0.1144 -0.0570
 6747W        W23595   9.530   8.930   1.880  0.2717 -0.0334  0.0676
 6748W        W23596   4.878  11.236  11.520 -0.2136 -0.3325 -0.0858
 6749W        W23597  13.630   5.381   0.123 -0.2797  0.0538 -0.0232
 6750W        W23598   0.846  13.076   3.604  0.3571 -0.2557 -0.0022
 6751W        W23599  13.673   5.608   2.171  0.1822 -0.1822 -0.3764
 6752W        W23600  10.491   7.425   0.664 -0.1189  0.2612 -0.1505
 6753W        W23601  11.055  15.551  12.286 -0.3672  0.1092 -0.1431
 6754W        W23602  12.027   2.692  12.450 -0.0700  0.1259 -0.1139
 6755W        W23603  18.094   6.528  12.819 -0.2589 -0.0658 -0.2114
 6756W        W23604  11.676   1.975   0.228  0.1087 -0.0569  0.2010
 6757W        W23605   1.042  12.772   4.769 -0.0150 -0.0411 -0.2546
 6758W        W23606   7.580  17.646   4.776  0.3155 -0.0063  0.0244
 6759W        W23607   7.655   4.261   2.666 -0.0996 -0.0798  0.0853
 6760W        W23608  17.625  12.463  11.822 -0.2399 -0.0106 -0.1531
 6761W        W23609   6.031   5.966  15.249 -0.3556 -0.1173  0.1015
 6762W        W23610   2.578  11.009  13.053 -0.0835 -0.0639 -0.1844
 6763W        W23611   2.634   1.993  10.097  0.1944  0.2769 -0.3789
 6764W        W23612   5.305  18.000  12.682  0.1390 -0.1419 -0.2764
 6765W        W23613  12.164  16.444   3.808  0.0200  0.0177 -0.0775
 6766W        W23614  13.571   3.286  13.013 -0.1044  0.1869  0.1057
 6767W        W23615  16.734  17.245   4.229 -0.3410 -0.0962  0.3430
 6768W        W23616   8.035  12.837   2.762  0.0063  0.0716  0.1391
 6769W        W23617  17.747  14.113  11.900 -0.0973 -0.2347  0.0853
 6770W        W23618  13.818   8.735   2.670  0.2123  0.0720 -0.3905
 6771W        W23619  14.099  13.534   1.236  0.0442  0.2189  0.5292
 6772W        W23620  10.762   9.619   4.886  0.0822 -0.0779  0.2278
 6773W        W23621   9.379   7.684  12.215  0.0517  0.0838  0.0600
 6774W        W23622   5.184   7.847  13.943  0.3130 -0.0592 -0.1738
 6775W        W23623  18.037   5.601   0.664  0.2230 -0.0051 -0.0210
 6776W        W23624  12.474  12.403  15.595 -0.1037 -0.0257  0.2313
 6777W        W23625   6.004   2.576   0.054 -0.1872 -0.1482  0.1136
 6778W        W23626   8.815   9.657   2.686  0.0032  0.1326 -0.0014
 6779W        W23627  10.215  14.881  16.087  0.3001  0.2565  0.0160
 6780W        W23628   8.470   1.202  10.464 -0.1057  0.0682 -0.1393
 6781W        W23629   5.859  11.067  13.944 -0.3036  0.3896 -0.1340
 6782W        W23630   9.901   8.656   4.783  0.3552 -0.0849 -0.3374
 6783W        W23631  11.594  15.275   4.097 -0.1529 -0.1123  0.1372
 6784W        W23632  10.308   6.997   3.582  0.0854 -0.1696 -0.0301
 6785W        W23633   0.633   6.124   2.156 -0.0452 -0.2206 -0.0520
 6786W        W23634  15.737   6.594  14.611 -0.0400  0.2862  0.0009
 6787W        W23635   9.951  17.930  15.749  0.0282  0.2013  0.1558
 6788W        W23636   7.183   7.522  14.655  0.0310  0.2325  0.1536
 6789W        W23637  10.384  12.552   2.006  0.0539  0.0383  0.3515
 6790W        W23638   0.027   6.466  12.291  0.3883  0.0294  0.0675
 6791W        W23639   1.705   3.407  12.654 -0.0965  0.2829  0.3624
 6792W        W23640  10.988  12.277  16.064  0.2403  0.1106  0.0012
 6793W        W23641  11.009  11.205   1.341  0.0646 -0.1317 -0.2477
 6794W        W23642   4.485   2.781  12.527 -0.0665 -0.0475 -0.5026
 6795W        W23643   5.663  14.382   0.921  0.0351  0.0888  0.0592
 6796W        W23644  13.128  10.984   4.781  0.1067 -0.0081 -0.1892
 6797W        W23645  15.089   1.476  14.614 -0.1664 -0.0955 -0.0857
 6798W        W23646   1.158   2.666   0.670  0.0784  0.2585  0.2107
 6799W        W23647  12.387   5.224   5.935  0.0274 -0.5481  0.0606
 6800W        W23648   8.503   2.405  12.953  0.0119  0.0436 -0.1309
 6801W        W23649   5.141  13.946   5.070 -0.0953 -0.0579  0.0336
 6802W        W23650   3.741   0.812   3.560  0.1397  0.1220 -0.2770
 6803W        W23651   8.075  11.004  14.177  0.1399  0.2283  0.0455
 6804W        W23652   2.453   6.135  11.173  0.1816 -0.1687 -0.0317
 6805W        W23653  13.249   6.452  13.591  0.0226 -0.0804 -0.0910
 6806W        W23654   3.648   0.450   4.586  0.1721  0.0834 -0.4017
 6807W        W23655   2.848  15.625   1.041  0.3561 -0.1867 -0.2584
 6808W        W23656  15.766  12.428   2.700  0.1395  0.3598  0.0930
 6809W        W23657   6.583   2.754   2.214  0.0996  0.1361  0.0064
 6810W        W23658  12.801   2.603  15.029 -0.0833 -0.1857  0.0251
 6811W        W23659   7.704  16.637  11.366  0.0403  0.2098 -0.1483
 6812W        W23660   9.682  15.151   4.321  0.0379  0.2679  0.3050
 6813W        W23661  14.549  15.554   0.247 -0.1071 -0.1829 -0.1556
 6814W        W23662  15.872  10.223  13.138  0.0855  0.1025  0.0426
 6815W        W23663   7.694   5.478   1.745  0.1169  0.0257 -0.2948
 6816W        W23664  10.202   0.767  14.342 -0.0151 -0.0467 -0.0671
 6817W        W23665   0.533  17.756  15.161 -0.0069  0.1382  0.0402
 6818W        W23666  15.756  11.752  14.512  0.1970  0.1978 -0.1231
 6819W        W23667  12.382   6.661   3.234  0.0455  0.0606 -0.0850
 6820W        W23668   5.708   9.784  15.321 -0.1464  0.3832 -0.1464
 6821W        W23669  10.088   3.691   4.562 -0.0902 -0.2713 -0.0329
 6822W        W23670  16.288  14.957   4.953 -0.0904 -0.0639  0.1288
 6823W        W23671  15.298   6.476  14.302  0.3086 -0.1130 -0.0533
 6824W        W23672  15.232   1.928  13.582 -0.1178 -0.0876  0.1286
 6825W        W23673  11.168  17.471  11.432  0.0701 -0.0611 -0.1660
 6826W        W23674   9.350  14.765  15.950 -0.0422 -0.0782 -0.0776
 6827W        W23675  11.790   3.038   3.223  0.0405  0.1986 -0.1233
 6828W        W23676   3.022   2.228  12.302 -0.1858 -0.0481  0.1354
 6829W        W23677  18.037   1.283  11.551 -0.2409  0.2241  0.1438
 6830W        W23678  17.961   7.956   0.710 -0.0192 -0.1687 -0.0915
 6831W        W23679   9.592  13.486   2.083  0.0347 -0.3745 -0.0216
 6832W        W23680   3.067   4.048   3.120  0.0836  0.1504  0.0046
 6833W        W23681   2.851   6.267   4.874  0.2448 -0.0203 -0.0732
 6834W        W23682   7.078   6.761  13.126 -0.1689  0.1678 -0.0579
 6835W        W23683   4.571   6.669   2.094  0.1700 -0.2005 -0.1058
 6836W        W23684   9.837   2.128   0.306  0.1095  0.0871 -0.0291
 6837W        W23685  15.770  14.301   4.780 -0.0809 -0.0812 -0.0855
 6838W        W23686   2.925   0.422  14.502  0.0199 -0.4278 -0.1056
 6839W        W23687  17.751  14.733  11.039 -0.1383  0.1662  0.1166
 6840W        W23688  15.304  11.753  14.354 -0.4202 -0.2356 -0.0105
 6841W        W23689  14.591   5.629  12.110  0.1485 -0.1810  0.0396
 6842W        W23690  10.816  11.963   3.532  0.1517 -0.2106 -0.3050
 6843W        W23691   8.322   9.385   2.816  0.1381  0.3185 -0.2229
 6844W        W23692   8.950   5.600   0.665  0.2383  0.0944  0.1854
 6845W        W23693  16.017   0.436  15.865  0.0222  0.0183  0.5164
 6846W        W23694   3.338   3.505  14.190  0.1521 -0.1782 -0.1069
 6847W        W23695   4.195   0.087  15.804 -0.0268 -0.1524  0.3309
 6848W        W23696   3.248  15.241   3.609  0.0220  0.4299  0.0229
 6849W        W23697  11.247   9.772  15.471 -0.2190 -0.0334 -0.0840
 6850W        W23698   5.935   5.144   2.185  0.0850 -0.0199 -0.0021
 6851W        W23699  16.984   6.033  13.426 -0.3236 -0.1369 -0.1827
 6852W        W23700  17.397   4.130  14.672 -0.1395  0.3993  0.0687
 6853W        W23701  10.047   4.800   3.161 -0.0171  0.0248  0.0015
 6854W        W23702   2.880   2.612  14.113 -0.3587 -0.3758 -0.0457
 6855W        W23703   3.165   9.837  12.649 -0.0876  0.1127 -0.4239
 6856W        W23704   6.975  16.275   4.194 -0.1587  0.1496  0.0323
 6857W        W23705  17.043   9.442   6.003 -0.1550  0.4996  0.0400
 6858W        W23706   1.483  13.312   0.649  0.2527  0.1044 -0.1283
 6859W        W23707   3.235   3.568   4.160  0.0677  0.0510  0.1972
 6860W        W23708   1.158   7.060  12.341 -0.0904 -0.1278 -0.0074
 6861W        W23709   8.173   9.462  12.940  0.2573  0.0830 -0.1500
 6862W        W23710   2.205   7.114  14.284 -0.0955 -0.0706  0.0291
 6863W        W23711  10.853   1.376   1.216 -0.0181 -0.0352  0.4254
 6864W        W23712   7.609   8.803  13.161 -0.0994  0.0387 -0.0044
 6865W        W23713   1.134   8.732  13.398  0.1830  0.1343  0.2384
 6866W        W23714   8.115  17.115  15.766  0.0064 -0.0235  0.0494
 6867W        W23715   2.495   1.486   2.155  0.0981 -0.1833 -0.1383
 6868W        W23716  11.179  17.591   2.298 -0.0845  0.0538  0.1026
 6869W        W23717   3.810   6.884  16.098 -0.4192 -0.1216 -0.0223
 6870W        W23718  17.518   7.012   1.466 -0.1036 -0.1912 -0.2582
 6871W        W23719   0.897   6.277   1.209 -0.0238 -0.1705 -0.0628
 6872W        W23720   9.462   6.411  15.117  0.0091 -0.1954 -0.5081
 6873W        W23721   7.129  16.296  14.681  0.1929  0.1331 -0.2838
 6874W        W23722  15.369   2.984  12.948  0.0742  0.0762 -0.2260
 6875W        W23723   8.190  17.122   1.498  0.0651 -0.1579  0.2557
 6876W        W23724   7.968   3.037  14.014 -0.2690 -0.1245  0.0311
 6877W        W23725   0.519   8.563  14.714 -0.0883  0.3775 -0.1247
 6878W        W23726   0.950  10.295   0.495  0.1923 -0.1602 -0.0632
 6879W        W23727   6.485   2.404   2.952 -0.2123 -0.0515 -0.0221
 6880W        W23728  17.272   9.762   2.958  0.1168  0.4286 -0.0016
 6881W        W23729  13.142   3.999   9.557 -0.0624  0.1106 -0.0087
 6882W        W23730  17.780  17.820  12.298 -0.0666 -0.0075  0.1506
 6883W        W23731  12.806   1.652  11.165 -0.4253 -0.2127 -0.0555
 6884W        W23732   1.338   3.549  13.853 -0.0505  0.0419  0.3237
 6885W        W23733  15.873   7.789  13.102 -0.1540 -0.1203 -0.1840
 6886W        W23734  15.211  14.113   0.664  0.1024  0.1462 -0.0951
 6887W        W23735   9.630  11.271  11.385  0.0598  0.0316  0.3024
 6888W        W23736  17.255  10.129   4.889 -0.2135  0.2112  0.2361
 6889W        W23737   0.632   8.216  13.248 -0.1547  0.0246  0.2469
 6890W        W23738   7.424  12.702  12.633 -0.0632 -0.0306 -0.1353
 6891W        W23739   4.598  16.571  13.587 -0.5057 -0.0197 -0.2542
 6892W        W23740   5.051  11.299  15.012 -0.2275  0.1569 -0.2451
 6893W        W23741  10.693   2.409   3.860 -0.1916 -0.0022 -0.0263
 6894W        W23742   0.799   4.724   2.543  0.0519 -0.0325  0.1676
 6895W        W23743  12.469  17.411   0.665 -0.0940  0.0061  0.1170
 6896W        W23744   8.753  14.181  12.882  0.3282  0.0086  0.1556
 6897W        W23745  16.744   7.364  12.271  0.1176  0.3182 -0.1457
 6898W        W23746  17.184   5.282  11.116 -0.2987 -0.1716 -0.3580
 6899W        W23747   2.616  15.602   2.093  0.1450  0.1043  0.2803
 6900W        W23748   2.162   2.024  15.659 -0.1897 -0.2435 -0.1265
 6901W        W23749   1.332   1.175   2.781  0.3023 -0.2529 -0.1365
 6902W        W23750   6.826  11.334   4.176  0.0810  0.0769  0.0307
 6903W        W23751  14.564   4.049   3.518  0.2382  0.0078  0.0708
 6904W        W23752   5.513  16.965   2.475 -0.3691 -0.0053 -0.0818
 6905W        W23753   2.054  11.736   1.120 -0.0941  0.3310 -0.0058
 6906W        W23754   8.180   4.274   0.369  0.1984  0.0045 -0.1325
 6907W        W23755   2.287  10.722  12.652  0.0086 -0.0935  0.4141
 6908W        W23756   2.359  16.643  11.774  0.0151  0.2147  0.1075
 6909W        W23757  15.004   9.223  14.673  0.0548 -0.1315 -0.2120
 6910W        W23758   7.663   0.501   5.506  0.3377 -0.3033 -0.2167
 6911W        W23759   9.308   1.116   4.064  0.0141  0.1377  0.3123
 6912W        W23760   5.227  15.414  15.002 -0.2529  0.0325  0.1203
 6913W        W23761   6.102   8.215  11.994 -0.3056  0.0459 -0.1531
 6914W        W23762   5.694  12.016   3.271 -0.2324  0.1389 -0.0820
 6915W        W23763   4.532   1.765   2.280 -0.1045  0.1690 -0.0618
 6916W        W23764  13.262  14.811  14.602  0.1683  0.0247 -0.2017
 6917W        W23765   8.286   0.497  11.239  0.1314  0.1484 -0.1544
 6918W        W23766  16.003   0.742  11.777 -0.2610  0.0461 -0.1899
 6919W        W23767  16.113  11.061  12.154 -0.1579 -0.0029 -0.1675
 6920W        W23768  12.037   6.909   1.876  0.1882  0.0357  0.1721
 6921W        W23769   7.598  17.143   0.675 -0.1991 -0.1492 -0.2347
 6922W        W23770  13.015   0.945   2.842  0.0493 -0.1123  0.0428
 6923W        W23771  15.427  10.590   3.167  0.1204 -0.0405 -0.0923
 6924W        W23772   3.752  11.443  15.938 -0.2777 -0.1501  0.2373
 6925W        W23773  12.547   5.506  12.280 -0.0920 -0.1304  0.1024
 6926W        W23774   1.488   1.123   1.525 -0.0770  0.2539 -0.1149
 6927W        W23775  15.857  12.394   1.420  0.0025 -0.4123 -0.0591
 6928W        W23776   9.100   9.461  12.941 -0.2657 -0.1591 -0.0219
 6929W        W23777   3.069   6.661   4.715  0.1759  0.2766 -0.0751
 6930W        W23778   2.974  14.273  11.693  0.0590  0.2654 -0.0338
 6931W        W23779  12.587   9.772  15.666 -0.0298 -0.2360 -0.1632
 6932W        W23780   3.714   1.187  11.383  0.1971  0.0539 -0.3529
 6933W        W23781  14.375   0.965  15.894 -0.1093 -0.1795  0.0618
 6934W        W23782   8.057  14.065   1.576  0.2386  0.1988  0.2030
 6935W        W23783  16.814  11.825   2.692  0.2854 -0.2501  0.4548
 6936W        W23784   2.216   8.022   2.549  0.0650  0.0601 -0.1145
 6937W        W23785   7.600   9.586  13.585  0.1345  0.0211 -0.0304
 6938W        W23786  11.611  11.030   0.581  0.4296  0.2245  0.1713
 6939W        W23787  14.774  10.967  12.489  0.2157 -0.0503  0.1296
 6940W        W23788   4.378   9.881   3.401  0.2102 -0.3723 -0.1215
 6941W        W23789   4.468   6.710  14.091 -0.1960  0.2886 -0.0511
 6942W        W23790   6.653  16.816   2.598  0.1263  0.1081  0.0972
 6943W        W23791  14.658   5.010   2.586 -0.2389  0.1050 -0.1906
 6944W        W23792  15.580  14.920  11.333  0.1111  0.1424  0.4972
 6945W        W23793   8.132  17.678   2.944  0.2944  0.1016 -0.2270
 6946W        W23794   9.738  16.324  11.456 -0.1762 -0.1827  0.1080
 6947W        W23795  12.136   8.498   4.679  0.0105  0.0423 -0.1348
 6948W        W23796   0.754   6.185  14.245  0.0309  0.0680  0.0540
 6949W        W23797  15.488   7.050  13.705  0.0749 -0.0766  0.0999
 6950W        W23798   3.004  14.612  16.016  0.1948 -0.0329  0.0455
 6951W        W23799   7.111   6.306   2.214  0.0453 -0.1847  0.1522
 6952W        W23800  15.095  12.189  11.587  0.0075 -0.1610  0.1847
 6953W        W23801   2.428   8.242  15.886 -0.0371 -0.1446 -0.0127
 6954W        W23802  15.590   4.577  12.506 -0.3214  0.1019 -0.1094
 6955W        W23803  16.484  14.409   1.548 -0.0410  0.0786  0.0515
 6956W        W23804   1.680  12.568  15.535 -0.3226  0.1402  0.0816
 6957W        W23805   8.932  11.171  10.716 -0.1568 -0.2978  0.1915
 6958W        W23806  10.367   0.539  13.151  0.4448  0.0605 -0.0057
 6959W        W23807   7.027  15.440  14.224  0.1540 -0.1963 -0.1384
 6960W        W23808  15.667   0.768  14.479 -0.3929  0.0822 -0.3006
 6961W        W23809   0.480  17.348   4.337  0.0793  0.2285  0.2438
 6962W        W23810   4.038  14.177  14.998 -0.2633  0.2755  0.0888
 6963W        W23811   8.139   8.409   1.931  0.1893  0.3929 -0.1189
 6964W        W23812  17.978   9.038   3.911 -0.2847  0.0080 -0.0869
 6965W        W23813   6.081  15.448  10.403  0.0834  0.2481  0.3829
 6966W        W23814  17.698   1.171   1.771 -0.0237 -0.2414  0.1099
 6967W        W23815  15.365  17.301  14.929 -0.3380  0.0791  0.0270
 6968W        W23816  11.677  11.255  14.574  0.0559 -0.1256  0.0955
 6969W        W23817  15.059  17.284   4.323 -0.2693 -0.0252 -0.0234
 6970W        W23818  14.586  18.182  15.599  0.2571 -0.3331 -0.2704
 6971W        W23819  14.441   4.616   2.805  0.2249 -0.0461  0.2649
 6972W        W23820   4.564   2.239   0.424 -0.1707 -0.0531  0.1235
 6973W        W23821   1.856   1.177   1.901  0.2029  0.5673  0.0649
 6974W        W23822   0.587   2.970   1.445  0.1161  0.1190  0.2025
 6975W        W23823  15.512  10.672  10.845  0.3018 -0.0880  0.4342
 6976W        W23824  15.048   1.635   0.692 -0.2706 -0.1521  0.3094
 6977W        W23825   7.388  13.487  12.040  0.0598 -0.0153 -0.0008
 6978W        W23826  16.717  13.991  16.123 -0.1764 -0.0316  0.4169
 6979W        W23827   8.057   4.103   2.925  0.0404 -0.1829 -0.2437
 6980W        W23828   8.574  16.476  11.951  0.0712 -0.0839 -0.2207
 6981W        W23829  16.341   0.289   3.551  0.1719 -0.3141 -0.2326
 6982W        W23830  13.365   8.820  12.497 -0.1092  0.1051  0.1855
 6983W        W23831   0.832   6.728  14.280 -0.1229 -0.0145 -0.1001
 6984W        W23832   4.595  17.913  15.649  0.0629  0.1374 -0.2183
 6985W        W23833   5.400   9.223  15.450  0.0170 -0.1425 -0.1495
 6986W        W23834   9.944   8.330  11.987  0.0317 -0.3337  0.0552
 6987W        W23835  16.752  17.568   2.189 -0.1348  0.1738 -0.1471
 6988W        W23836  16.905  17.226  14.472 -0.0926  0.1479 -0.1602
 6989W        W23837   0.273   4.377  14.118  0.1057  0.0081 -0.2893
 6990W        W23838   1.026   8.442   2.086  0.1656  0.0309  0.0673
 6991W        W23839   6.751   6.282   1.036 -0.4266  0.2771  0.1143
 6992W        W23840   3.178  11.312  13.464 -0.2093 -0.1009 -0.6358
 6993W        W23841   4.321  17.092   2.840  0.0886 -0.1638  0.1504
 6994W        W23842  17.260   9.714  13.762 -0.2534 -0.1903 -0.1941
 6995W        W23843  16.373  15.128   2.795  0.0775 -0.2613 -0.4208
 6996W        W23844   9.177   6.930   4.301  0.0166  0.0130 -0.1472
 6997W        W23845   7.550   9.846  15.199  0.2105  0.1735  0.1510
 6998W        W23846   3.319   3.214  10.277 -0.2457  0.0018 -0.2178
 6999W        W23847  16.074  13.144   2.649 -0.1043 -0.0045 -0.1654
 7000W        W23848  13.966  11.905  14.585 -0.1203  0.2908  0.0658
 7001W        W23849  14.540  12.407  13.518 -0.0196  0.0882 -0.0102
 7002W        W23850   9.261   0.702  11.263 -0.1634 -0.0087 -0.1197
 7003W        W23851   4.873   4.973   0.529  0.0676 -0.1085 -0.1798
 7004W        W23852   7.097   3.724   3.317 -0.0402 -0.1195  0.3029
 7005W        W23853  17.698   8.494   1.947  0.1423 -0.2056 -0.2323
 7006W        W23854  13.038  14.607  13.422 -0.0877 -0.1798 -0.0687
 7007W        W23855  16.968  15.898  13.572  0.0264 -0.0238  0.1222
 7008W        W23856  15.750   7.353  14.061  0.1045  0.3957  0.1056
 7009W        W23857   3.770   0.204  14.290  0.0340  0.1393 -0.0384
 7010W        W23858  13.296   8.358  11.823 -0.1242 -0.1546 -0.0561
 7011W        W23859   3.105  15.033  10.062  0.1811  0.0050 -0.0127
 7012W        W23860   7.153   0.971  11.176 -0.1036  0.0674 -0.0120
 7013W        W23861   8.944  14.718  12.799  0.0951  0.0233 -0.0332
 7014W        W23862   4.715  10.846   0.657 -0.1880  0.0354  0.1070
 7015W        W23863   7.900   5.183   0.973 -0.1174  0.0876 -0.1461
 7016W        W23864  11.746   2.846  11.528  0.0328 -0.0085 -0.0599
 7017W        W23865  12.801  11.731   5.088 -0.3585  0.1775 -0.2120
 7018W        W23866  16.313  16.738   0.113 -0.0987 -0.0435 -0.1234
 7019W        W23867  17.935  10.104  12.146  0.0423  0.1694 -0.0744
 7020W        W23868   7.760   7.469  12.534  0.1991  0.2202 -0.2260
 7021W        W23869   8.648  12.159  14.140  0.0743 -0.2513 -0.2269
 7022W        W23870   0.295   1.931   4.076 -0.1714  0.0378 -0.2074
 7023W        W23871   1.676   6.704   5.247  0.0038  0.2742  0.0216
 7024W        W23872  12.820  15.813   2.604  0.0530  0.1454  0.3682
 7025W        W23873  14.595   0.811  12.318  0.2270  0.1180 -0.2205
 7026W        W23874  14.670  14.793  12.989  0.2055  0.0686 -0.3712
 7027W        W23875   7.560  18.037  14.256 -0.2084 -0.0483  0.2079
 7028W        W23876  12.311   7.154  11.780 -0.2899  0.1516 -0.1118
 7029W        W23877   9.052   0.173  13.680  0.1183 -0.0722  0.2268
 7030W        W23878  16.574   7.349  15.605  0.3328 -0.2582  0.2366
 7031W        W23879  10.535   5.854   2.347  0.0759  0.1216  0.0698
 7032W        W23880  16.386   5.147   1.979 -0.0806  0.4438  0.4655
 7033W        W23881   3.139  17.120  12.835  0.1742 -0.0221  0.0167
 7034W        W23882   6.168  11.927   4.155  0.0097 -0.4550 -0.2182
 7035W        W23883  11.710   7.991   3.709 -0.0914 -0.0004 -0.0624
 7036W        W23884   3.927  10.621   1.236  0.3285 -0.2205  0.1916
 7037W        W23885  13.072   8.537  15.548  0.3836  0.0369 -0.0274
 7038W        W23886   6.859  11.775   0.192 -0.3807  0.2640 -0.3757
 7039W        W23887  14.387   3.678   3.053  0.1141 -0.0580  0.0003
 7040W        W23888  16.374   9.128   4.823  0.1102 -0.0947 -0.2430
 7041W        W23889  10.526  11.090  13.918  0.3255  0.0020 -0.0316
 7042W        W23890   0.949   2.878  12.177  0.0015 -0.2471  0.0618
 7043W        W23891   5.966   0.488  12.140 -0.1559  0.0333  0.0978
 7044W        W23892   1.434   1.644   2.065 -0.2619 -0.2103  0.2279
 7045W        W23893  15.205  12.200  15.893 -0.1117 -0.3374 -0.0804
 7046W        W23894   9.442   3.520   5.307  0.2379 -0.1657 -0.2074
 7047W        W23895   8.300  15.804   4.834 -0.1690 -0.0600 -0.0921
 7048W        W23896  10.430  17.326   2.670 -0.0162 -0.0922 -0.2073
 7049W        W23897   8.723  15.535   1.961 -0.1470  0.3358 -0.0442
 7050W        W23898  17.190  11.075  14.558  0.0069  0.2979  0.0892
 7051W        W23899  14.926  18.054   0.302  0.5746 -0.1317  0.0774
 7052W        W23900   9.883  17.278  11.890  0.2416  0.2610  0.2399
 7053W        W23901   2.034   2.984   3.017 -0.1181 -0.2422  0.3158
 7054W        W23902  11.999   5.526   3.900  0.2482 -0.0931  0.2128
 7055W        W23903   4.991  17.608  15.339 -0.0797  0.1517  0.0518
 7056W        W23904  11.206  17.269   0.273  0.1128 -0.2355 -0.0152
 7057W        W23905   9.860   6.930  12.179  0.0071 -0.1299  0.1198
 7058W        W23906   7.049   3.919   5.296 -0.1928  0.2788  0.2813
 7059W        W23907  11.609  16.616  15.141 -0.0066  0.0673 -0.1782
 7060W        W23908   9.699  15.921   4.788  0.0445  0.1680  0.0980
 7061W        W23909   9.894  16.405  15.948 -0.1207  0.4356 -0.0329
 7062W        W23910   1.369   9.558  15.021  0.1331 -0.2692 -0.3907
 7063W        W23911   0.765   0.921  12.413 -0.0790 -0.2185  0.0740
 7064W        W23912  10.926  16.281   1.343 -0.1171 -0.1002  0.0327
 7065W        W23913   6.248  15.968  12.830  0.1376  0.1282 -0.3869
 7066W        W23914   4.948  10.572   4.525  0.2823  0.1822 -0.2620
 7067W        W23915   4.894  13.963   2.553  0.2252  0.0037 -0.0409
 7068W        W23916  15.137  17.754  11.302 -0.1464  0.0183  0.1256
 7069W        W23917   5.089   0.649   3.446 -0.1012 -0.0192  0.0139
 7070W        W23918  18.147   8.115   4.533 -0.0425 -0.3040 -0.1538
 7071W        W23919  15.154  13.350   0.427 -0.1423  0.0767  0.0094
 7072W        W23920   6.920  11.123  13.250  0.1249 -0.0491 -0.2407
 7073W        W23921  14.539  11.180  14.527  0.1567  0.0782  0.0699
 7074W        W23922  15.642   6.433  12.962  0.1831 -0.1244 -0.0713
 7075W        W23923  16.377   5.859   3.105  0.1695  0.0375  0.1915
 7076W        W23924   2.287   5.735   4.679 -0.1954 -0.2252  0.1326
 7077W        W23925  16.576  16.906   2.774 -0.3409 -0.2486  0.1086
 7078W        W23926  16.333  12.545  11.388 -0.0453 -0.0384 -0.0585
 7079W        W23927  12.921   4.697  12.788 -0.0933 -0.0918 -0.0224
 7080W        W23928  12.306   3.661  14.604  0.1134  0.0989  0.0879
 7081W        W23929   8.436   8.871  12.601  0.0089  0.0767 -0.3031
 7082W        W23930  17.572   9.288   3.175 -0.2258  0.0018 -0.0818
 7083W        W23931  14.297   2.037   1.038 -0.3858 -0.0812  0.2804
 7084W        W23932   1.961   6.180   4.635 -0.1417  0.3914 -0.0969
 7085W        W23933  16.539  10.554  12.898  0.1172  0.1498  0.4415
 7086W        W23934   4.558  14.532   3.300  0.0406  0.0478 -0.0295
 7087W        W23935   0.129  12.520  12.899 -0.0007 -0.0570 -0.1270
 7088W        W23936  14.929  13.770  12.618  0.4306  0.1300 -0.1643
 7089W        W23937   8.420   1.830  11.639 -0.0384 -0.0905  0.2478
 7090W        W23938  15.462  16.924   4.647 -0.2875 -0.2338  0.1449
 7091W        W23939  14.671   0.524  11.902 -0.3513  0.3183 -0.4077
 7092W        W23940   9.300   6.787   0.981  0.0461  0.2858  0.0243
 7093W        W23941  11.442   1.760  13.844 -0.0465  0.2308  0.1311
 7094W        W23942   8.954   8.106  15.218 -0.0148 -0.1304  0.1183
 7095W        W23943  15.029   7.511  12.087  0.2063 -0.2194 -0.2678
 7096W        W23944  14.891  12.941   5.560 -0.2685  0.0871  0.2137
 7097W        W23945   6.501  10.640  11.763 -0.1277 -0.2034 -0.2135
 7098W        W23946  11.668   1.512   1.437  0.3021 -0.0048  0.1630
 7099W        W23947   2.142   1.779   0.263  0.3882 -0.1378  0.2680
 7100W        W23948   2.429   2.666   2.913  0.0597 -0.1705  0.1346
 7101W        W23949   0.164  17.717  12.841  0.0563  0.0113  0.0508
 7102W        W23950  17.165  10.328   1.114  0.0753 -0.1476  0.2201
 7103W        W23951   2.766  17.432   3.963  0.3164  0.0621 -0.1215
 7104W        W23952  13.458  11.721  13.369 -0.5007  0.0706  0.0297
 7105W        W23953  13.139   0.054   2.771  0.0157  0.0326  0.0533
 7106W        W23954  10.542   0.732  15.325  0.4133  0.1200  0.0435
 7107W        W23955   7.592   5.514  15.676 -0.1170  0.0044 -0.0185
 7108W        W23956   9.435   7.634  13.583  0.1946  0.1224  0.0814
 7109W        W23957   1.833  15.004  12.153 -0.1687 -0.1418 -0.0056
 7110W        W23958  12.684   1.564   2.197  0.0230  0.0464 -0.0608
 7111W        W23959  13.320  14.501   1.832 -0.0719 -0.1215  0.0383
 7112W        W23960   8.276   8.796   1.142  0.0172  0.0752  0.0855
 7113W        W23961  11.756   9.469  14.136  0.1905  0.0966 -0.1980
 7114W        W23962   0.693  10.146  11.972  0.5015  0.2471  0.1143
 7115W        W23963   0.859  18.032  16.033 -0.0094  0.0734 -0.0388
 7116W        W23964   1.812   2.060  11.738 -0.2628 -0.2992  0.0550
 7117W        W23965   4.748   3.193  10.437  0.2260 -0.2206  0.1313
 7118W        W23966   6.303   9.337   4.136 -0.3018  0.0955  0.1699
 7119W        W23967   3.162  10.467   0.636 -0.0596 -0.3019  0.1045
 7120W        W23968   3.230   2.401   2.451  0.2121  0.0488 -0.1527
 7121W        W23969   8.550  10.736  11.908  0.0229  0.0457  0.0727
 7122W        W23970  10.696  13.177  12.689 -0.3518 -0.0641 -0.2755
 7123W        W23971  12.878   0.782   1.128 -0.0009  0.2648  0.0494
 7124W        W23972   5.578   7.362   0.862 -0.0918  0.2078 -0.2886
 7125W        W23973   6.964   1.249   0.929  0.1586 -0.1950 -0.1430
 7126W        W23974   9.978  16.838  13.628  0.2666 -0.1667  0.1322
 7127W        W23975   9.792  14.748   4.062  0.0497  0.5727 -0.0229
 7128W        W23976  14.578   8.309   1.374 -0.1096 -0.1016  0.1101
 7129W        W23977  12.345   5.909   2.887  0.0203  0.2420 -0.0846
 7130W        W23978  16.332   8.235  15.156 -0.0617  0.0693 -0.1426
 7131W        W23979  17.500   0.311   2.789 -0.0946 -0.0095 -0.3458
 7132W        W23980   2.736  12.743   2.105  0.0217 -0.0463 -0.0276
 7133W        W23981  12.240  13.748   2.551 -0.0839 -0.0553 -0.2448
 7134W        W23982   8.764  17.200   1.538  0.2755 -0.1662 -0.2050
 7135W        W23983   9.027   9.926   1.526  0.0824  0.0623  0.0054
 7136W        W23984  12.477  14.405  14.837  0.1784 -0.0588  0.0306
 7137W        W23985   9.359   0.899  11.909 -0.0925 -0.2201 -0.1985
 7138W        W23986   3.744  10.548   2.028  0.0923 -0.2511 -0.2799
 7139W        W23987  10.079   5.872   2.663 -0.0232 -0.0355 -0.3658
 7140W        W23988   6.150  16.923   5.541  0.0697 -0.1463 -0.1713
 7141W        W23989  14.346   5.362  11.593 -0.0280 -0.1545  0.0706
 7142W        W23990   5.562   6.427   1.578 -0.2328 -0.1413  0.1887
 7143W        W23991  10.891   6.723  13.846  0.3596 -0.0683 -0.4627
 7144W        W23992  14.304  16.000  14.949  0.2487  0.2767 -0.1619
 7145W        W23993   1.825  15.782  11.873  0.1773  0.0986 -0.0301
 7146W        W23994  14.040   4.999  11.352 -0.2276  0.0567 -0.0049
 7147W        W23995   3.860   0.040   4.723  0.0921 -0.1766  0.0155
 7148W        W23996  12.150   8.074   1.415 -0.1425  0.2733  0.1217
 7149W        W23997   5.403  12.053   4.617  0.0018 -0.1774  0.3232
 7150W        W23998   1.603   8.028  15.284 -0.1220  0.2470  0.1365
 7151W        W23999  13.303   3.168   0.379 -0.0140  0.1234  0.2678
 7152W        W24000  15.868  16.484   1.199 -0.0941  0.0399  0.1451
 7153W        W24001  15.200   6.645   1.719 -0.0069 -0.1217  0.2348
 7154W        W24002  16.794   9.239  15.687  0.2074 -0.2872 -0.0946
 7155W        W24003  10.116  14.903   1.170  0.0359  0.4350  0.1742
 7156W        W24004  12.421  13.339   5.627 -0.0423  0.1474 -0.3196
 7157W        W24005  14.250  13.088  11.863 -0.0539  0.0779 -0.2563
 7158W        W24006  11.483  16.514  15.667  0.0684 -0.3261  0.0909
 7159W        W24007   8.496   8.935  15.816 -0.2459 -0.0098 -0.1541
 7160W        W24008  12.474   2.293  12.074 -0.0121  0.0282 -0.0070
 7161W        W24009   8.147   7.710   3.720 -0.0202 -0.2416 -0.1799
 7162W        W24010  13.263  13.090  14.624  0.0128 -0.2011 -0.0830
 7163W        W24011   9.951   3.201  14.036  0.0044  0.0831 -0.0443
 7164W        W24012   9.984  12.905  12.190  0.1798 -0.2151 -0.0145
 7165W        W24013  16.823  16.785  11.089  0.0521  0.2362  0.1709
 7166W        W24014   5.645   7.144   1.719 -0.0943  0.2048 -0.0236
 7167W        W24015  15.339   8.537   3.799 -0.1840  0.3831  0.1242
 7168W        W24016  12.348   6.791   4.895  0.0443 -0.1422 -0.3207
 7169W        W24017   7.185  12.238  13.349 -0.0033 -0.2089  0.1867
 7170W        W24018  12.452  11.889  14.834 -0.2208  0.1085  0.0630
 7171W        W24019   1.487  17.731   1.238  0.0108  0.0142 -0.3435
 7172W        W24020  16.918   2.070   1.548  0.1706 -0.2069  0.0902
 7173W        W24021   4.423   6.646  12.816  0.1669 -0.0796 -0.1698
 7174W        W24022   9.431   4.916  11.629  0.4519 -0.0501 -0.3290
 7175W        W24023   8.675   5.126   4.023  0.1720  0.4002 -0.0160
 7176W        W24024  10.967   3.429  14.484  0.1423  0.0435  0.0587
 7177W        W24025   6.680   6.350   1.552 -0.1453  0.0564  0.4098
 7178W        W24026   6.460   9.375  15.978 -0.0176 -0.0461  0.0703
 7179W        W24027   0.556  11.390   2.895  0.2448  0.0574 -0.1900
 7180W        W24028   3.734  10.941  12.607 -0.1383  0.0485 -0.0132
 7181W        W24029  16.452   2.277   0.051  0.1935 -0.1144 -0.2896
 7182W        W24030  17.851   3.520  10.163  0.1854 -0.1326  0.2214
 7183W        W24031   5.976  18.103  14.495 -0.1746 -0.2762 -0.0525
 7184W        W24032  14.361  17.295  15.307 -0.2640 -0.1029  0.0708
 7185W        W24033  13.894   2.346   3.975 -0.2405  0.4237  0.0603
 7186W        W24034  15.075  11.901   3.219 -0.0731 -0.1118 -0.3671
 7187W        W24035   0.025  15.805   0.001 -0.0562  0.1955  0.0998
 7188W        W24036   1.387  12.484  13.090 -0.2799  0.0507  0.1227
 7189W        W24037  14.805   4.396   3.238 -0.1598  0.1269 -0.0966
 7190W        W24038   9.021  17.465   2.770  0.0587  0.1250 -0.1350
 7191W        W24039   3.691  17.722   1.838 -0.1799  0.1402  0.3938
 7192W        W24040   6.445   4.153   2.819  0.0044  0.1021  0.1166
 7193W        W24041  16.953   1.397   1.854  0.4332  0.2739  0.1498
 7194W        W24042   2.833   3.182   4.936  0.1330 -0.1403  0.1437
 7195W        W24043   7.317  10.894  14.783 -0.1781  0.4760 -0.4233
 7196W        W24044  14.588  17.387  13.301 -0.1589  0.1050 -0.0236
 7197W        W24045   6.261  12.763   2.996  0.0983  0.0691 -0.1578
 7198W        W24046  10.775   5.725   4.904 -0.1331 -0.0550  0.0501
 7199W        W24047   6.732   3.185  13.029 -0.0748  0.1029  0.0732
 7200W        W24048   7.845   9.337   3.042  0.2529  0.0279  0.1281
 7201W        W24049   6.468  18.097   3.887 -0.1691  0.4526  0.2302
 7202W        W24050  15.589   0.509   1.530 -0.4136 -0.0939 -0.1658
 7203W        W24051   2.654   5.710   1.130 -0.0925  0.1882 -0.0771
 7204W        W24052  14.301   5.843  13.157  0.0522  0.1799  0.0293
 7205W        W24053   2.008  13.991  14.042 -0.0860  0.0181  0.2197
 7206W        W24054   9.665  14.440   3.083 -0.2781 -0.0268  0.0999
 7207W        W24055  12.798  17.930   0.027 -0.1974  0.4307  0.1661
 7208W        W24056   1.807  10.453   3.587  0.0461 -0.0795 -0.1945
 7209W        W24057   2.735   0.058  15.518 -0.1005  0.3261 -0.1451
 7210W        W24058  12.991   1.976  15.627  0.1330 -0.0835 -0.1405
 7211W        W24059   7.659  16.259  12.012 -0.1363 -0.0860  0.1777
 7212W        W24060  11.856  12.084   3.337 -0.5814 -0.2616  0.1336
 7213W        W24061   1.193  15.153   3.627  0.0986 -0.1040  0.1682
 7214W        W24062  12.653  13.848  14.448  0.1810 -0.0050  0.0582
 7215W        W24063   1.066  12.078  14.471  0.2390  0.0068  0.1364
 7216W        W24064  13.348   9.837   1.809  0.2889 -0.0488  0.1071
 7217W        W24065   3.860  16.335   2.276  0.1184 -0.2789  0.0441
 7218W        W24066  10.028  17.595   1.020 -0.3699  0.1506  0.1220
 7219W        W24067  14.984   8.846  14.058 -0.0714  0.0592  0.3875
 7220W        W24068   3.357   1.253  14.705  0.1581 -0.1177 -0.1250
 7221W        W24069  13.589   1.462  15.704  0.2020  0.2014  0.3428
 7222W        W24070  13.173  16.787   0.653 -0.2775 -0.4142  0.1463
 7223W        W24071   6.650  16.356   3.821 -0.0454  0.0183  0.1130
 7224W        W24072  13.834   1.842  10.845 -0.0498  0.0844 -0.0491
 7225W        W24073   6.359   5.228   0.190 -0.0254  0.2495  0.0231
 7226W        W24074  14.533  11.590  15.431 -0.0896  0.1274  0.0721
 7227W        W24075   4.498  13.825   1.210  0.0433 -0.1908  0.1039
 7228W        W24076  14.617   8.037  12.946  0.0240 -0.1468  0.1794
 7229W        W24077  12.426   9.972  13.411  0.1189 -0.2024  0.0703
 7230W        W24078   7.933  16.295  15.529  0.4120 -0.1767 -0.1515
 7231W        W24079   6.753   2.731   2.671 -0.2042  0.3159  0.3170
 7232W        W24080  11.930  16.908   3.617 -0.1992 -0.0057 -0.0364
 7233W        W24081   9.663   1.765  16.108  0.1536  0.2262  0.2750
 7234W        W24082  12.454  16.319  15.315 -0.0687 -0.0078  0.2423
 7235W        W24083  15.385   5.412   0.345  0.0285  0.1391  0.0126
 7236W        W24084   8.144  16.549  11.734 -0.2045  0.2779 -0.0690
 7237W        W24085   3.563   2.905   1.134  0.1329 -0.1173 -0.3127
 7238W        W24086   0.593   6.170  11.563 -0.1829  0.1047  0.1902
 7239W        W24087   4.094  17.956  15.438  0.4108  0.2635  0.2481
 7240W        W24088   6.220   6.660  11.484  0.0632  0.0315  0.4211
 7241W        W24089  10.382  11.941   4.825 -0.2110 -0.0308 -0.0968
 7242W        W24090   2.783   5.978  14.390  0.2690 -0.1956  0.1337
 7243W        W24091   0.437   6.715   2.743 -0.0474 -0.3787 -0.1719
 7244W        W24092   9.231   0.507  15.559 -0.4921  0.4128 -0.0303
 7245W        W24093   9.276   4.326   3.818 -0.0524  0.1207  0.1693
 7246W        W24094   6.947   8.363  12.959  0.1006 -0.2171  0.0966
 7247W        W24095  13.444   5.485  13.026  0.2452 -0.0892 -0.3584
 7248W        W24096  13.554  12.104  10.960  0.0240 -0.2432  0.0196
 7249W        W24097  12.796  17.922  13.475  0.1632 -0.3074  0.0519
 7250W        W24098  12.870  13.556   0.596  0.3519 -0.0532 -0.0578
 7251W        W24099   9.529  10.769  12.701 -0.2417  0.1280 -0.2441
 7252W        W24100  15.602   4.636  13.234  0.1662 -0.0891 -0.0693
 7253W        W24101  11.180  17.093   2.455  0.0011  0.1782  0.2530
 7254W        W24102  16.088   0.745  10.024 -0.2795  0.0383 -0.1715
 7255W        W24103  17.526   2.676   4.853  0.2440  0.1423 -0.2000
 7256W        W24104   3.146  11.231  12.198 -0.1078  0.1362 -0.1820
 7257W        W24105   0.260   1.355  11.764  0.0635  0.0756 -0.1674
 7258W        W24106   6.617   6.463  11.756 -0.2370  0.0078 -0.0343
 7259W        W24107   4.834   6.033   1.889 -0.0306 -0.3050  0.0940
 7260W        W24108   2.943   2.635   2.768  0.1296 -0.3963  0.0038
 7261W        W24109  14.140  18.056  13.780 -0.0645 -0.0005 -0.0629
 7262W        W24110  17.915  17.028   1.408  0.1059 -0.6187  0.0542
 7263W        W24111  16.472  17.748  13.185 -0.0887 -0.0825 -0.0952
 7264W        W24112   8.791   3.977  13.685  0.4050  0.0836 -0.1814
 7265W        W24113  12.350  13.275  11.310  0.1619  0.0040  0.0363
 7266W        W24114  17.603   9.492   2.598  0.4484 -0.6719 -0.1411
 7267W        W24115  14.525   9.121  13.289  0.1328  0.1328  0.0261
 7268W        W24116   5.893   2.309   4.356  0.1172  0.1206 -0.0903
 7269W        W24117   6.064   7.680   3.217  0.0233  0.2115 -0.0383
 7270W        W24118  12.550  17.648   3.350  0.0657  0.4667  0.0899
 7271W        W24119   8.386  13.646  12.934  0.2932  0.1390  0.0755
 7272W        W24120   2.153  15.842  15.224 -0.0260 -0.4122 -0.0757
 7273W        W24121   1.822   9.199   2.563  0.1366 -0.1486 -0.2001
 7274W        W24122   1.553   9.597   2.406 -0.1907 -0.1148 -0.0470
 7275W        W24123  14.390   1.059  15.199 -0.2410  0.2174  0.3290
 7276W        W24124  10.594   3.229   1.325  0.1795  0.1230  0.1569
 7277W        W24125  13.514   8.777  15.478 -0.1045 -0.1280 -0.2090
 7278W        W24126  16.291  16.859  13.870  0.1042 -0.1819 -0.0423
 7279W        W24127  10.961   9.627   1.573 -0.0602  0.0389  0.1590
 7280W        W24128   5.595   2.128   2.689 -0.0083  0.2559  0.0669
 7281W        W24129   1.186  12.330   4.482  0.0672 -0.1643  0.2009
 7282W        W24130  17.036  13.555  16.107 -0.1451  0.0416 -0.2490
 7283W        W24131  14.878  12.008   2.077 -0.0697 -0.0784  0.1261
 7284W        W24132  10.319   3.406  13.184 -0.0752 -0.0886 -0.0327
 7285W        W24133  12.851  12.852  14.431 -0.1817  0.0244 -0.0699
 7286W        W24134   6.628   8.894   2.509 -0.0303 -0.1371 -0.2041
 7287W        W24135   0.299   2.584   1.317  0.0354  0.1829 -0.2803
 7288W        W24136  13.072  12.250   2.488 -0.1417  0.0410  0.0144
 7289W        W24137   0.965  11.345  15.339 -0.0366 -0.2126 -0.4386
 7290W        W24138  14.199  13.344   5.043 -0.1010 -0.0620  0.3613
 7291W        W24139  10.690   2.098   2.918 -0.0599  0.2294 -0.1565
 7292W        W24140  16.029   2.507   0.936 -0.0503  0.0037 -0.0578
 7293W        W24141   5.742   8.552   3.475  0.0432  0.1194 -0.0565
 7294W        W24142   4.087   9.498   4.667 -0.0011 -0.3820 -0.0036
 7295W        W24143  11.895   5.166  15.865  0.0940 -0.0411  0.1019
 7296W        W24144   2.707   0.796   4.967 -0.2466  0.2612 -0.0360
 7297W        W24145   7.048   4.604   3.204 -0.0839 -0.2998 -0.0353
 7298W        W24146  16.311  17.449   4.483 -0.1589  0.3128  0.2526
 7299W        W24147   1.320   0.211   2.501 -0.2027 -0.1321  0.3208
 7300W        W24148   8.506   1.854   2.763 -0.2756  0.1449 -0.4572
 7301W        W24149  11.107   6.157   5.152 -0.1327  0.2447 -0.3155
 7302W        W24150  11.476  14.430   4.302  0.0658  0.2168 -0.1755
 7303W        W24151   4.279  15.200  15.909 -0.2088 -0.0327  0.1779
 7304W        W24152  14.550   6.601   0.849  0.0162 -0.0222  0.0061
 7305W        W24153   3.693  10.413  15.393  0.1221 -0.2042 -0.1899
 7306W        W24154  15.346  12.329  12.366  0.0697  0.2333  0.1080
 7307W        W24155  13.136   5.295   1.287  0.0880  0.0401 -0.0182
 7308W        W24156  15.102  10.431   2.374  0.1226 -0.0105 -0.0385
 7309W        W24157   1.049   1.636  13.443 -0.1634 -0.2030  0.1082
 7310W        W24158  11.443   6.284  13.451  0.1470  0.2353 -0.0410
 7311W        W24159   0.373   8.388   3.690  0.0366 -0.5564 -0.0453
 7312W        W24160   4.038   5.065  12.759 -0.1387  0.1342  0.2522
 7313W        W24161   9.691   9.232  12.002 -0.3418 -0.0371 -0.2012
 7314W        W24162   1.435   7.391  14.646 -0.2632  0.1276  0.0449
 7315W        W24163   3.645  16.248   0.798 -0.0985  0.0054  0.2936
 7316W        W24164   9.714  14.887  15.174 -0.1424 -0.0907 -0.2997
 7317W        W24165  12.742  15.221   1.091 -0.1071  0.2697  0.1022
 7318W        W24166   0.703   0.509  11.358 -0.2293  0.0605 -0.0047
 7319W        W24167   5.403  15.871  12.149 -0.1514 -0.0372  0.0938
 7320W        W24168  17.760   0.571  13.660 -0.2423 -0.2027 -0.1532
 7321W        W24169  16.683   5.666   1.201  0.3522  0.2277  0.1534
 7322W        W24170   7.822  18.035  12.710  0.2195 -0.0969 -0.0661
 7323W        W24171   8.988   6.161   5.384 -0.0920 -0.1812 -0.0355
 7324W        W24172   7.376  15.476  11.813  0.1503 -0.3674 -0.0630
 7325W        W24173   7.964   3.406  13.235  0.0091  0.0097  0.0066
 7326W        W24174   3.099  11.347   2.616 -0.2850 -0.1461 -0.1367
 7327W        W24175   6.806   1.978   2.332  0.0887  0.0397 -0.1652
 7328W        W24176   0.117   0.181  15.731 -0.0611 -0.1876  0.0539
 7329W        W24177  16.161  13.663  12.811 -0.1135 -0.1087  0.1314
 7330W        W24178  17.392  17.865   2.046  0.1953  0.1480  0.0488
 7331W        W24179  14.058   1.576  12.048 -0.2325  0.0543  0.1636
 7332W        W24180  10.416  12.427   4.522 -0.1255  0.1698 -0.1579
 7333W        W24181  13.683   6.717  15.616  0.1269  0.0299 -0.1894
 7334W        W24182   3.978  14.718  16.078 -0.2123 -0.3198 -0.0389
 7335W        W24183   5.026   9.535  15.539  0.0597 -0.0204  0.0270
 7336W        W24184   3.808   1.399  14.567  0.1297  0.0836 -0.2243
 7337W        W24185   2.389  14.772   3.879 -0.0721  0.0311  0.4018
 7338W        W24186  17.475  17.045  10.979 -0.1485 -0.0141  0.0819
 7339W        W24187  14.121   6.196   2.540 -0.0477 -0.2764  0.5408
 7340W        W24188   8.321   3.773  12.481 -0.1177 -0.3013  0.0148
 7341W        W24189  12.585   0.710   1.971 -0.0045  0.1750  0.0692
 7342W        W24190   9.737  15.675  14.240  0.1144 -0.0367  0.0112
 7343W        W24191  15.107   0.682  11.711 -0.0320 -0.1344 -0.4384
 7344W        W24192   2.430  16.200  16.109  0.4556  0.1334  0.4459
 7345W        W24193   8.965   2.800  12.011 -0.4662  0.0678 -0.0672
 7346W        W24194  10.372  17.690  15.892 -0.4978  0.2451  0.2949
 7347W        W24195   2.744   9.645  15.902  0.1527  0.0156 -0.1610
 7348W        W24196   8.029   7.471  12.096 -0.0311 -0.2860 -0.0129
 7349W        W24197  15.754  11.322   3.638 -0.1538 -0.0035  0.1325
 7350W        W24198  12.383  10.607  15.432 -0.2717 -0.0385  0.0485
 7351W        W24199  12.655   1.393  15.663  0.1995  0.2157 -0.0294
 7352W        W24200  16.745   8.258  15.459 -0.1754 -0.2561 -0.3375
 7353W        W24201  13.204  13.770  13.708 -0.1079  0.1979 -0.0859
 7354W        W24202   4.541  16.635   0.672  0.0009  0.0834 -0.4963
 7355W        W24203   1.795   9.290  11.795 -0.1258  0.1510  0.0937
 7356W        W24204  16.392  12.166   2.620 -0.1987  0.3189  0.0240
 7357W        W24205  17.291  14.505  15.194  0.0106 -0.4772 -0.0619
 7358W        W24206  13.605  14.235  14.280  0.1487  0.2119 -0.0389
 7359W        W24207  18.197  13.174  11.492 -0.0995 -0.1076  0.3185
 7360W        W24208   6.973  12.085   3.538 -0.1611 -0.3233 -0.1612
 7361W        W24209  13.885  16.492  14.335 -0.0045  0.1557 -0.5561
 7362W        W24210   5.561  13.286   5.560  0.2195 -0.0349  0.2697
 7363W        W24211   7.146   5.281   5.037 -0.0349  0.4225  0.0428
 7364W        W24212  16.333   8.446  14.005  0.2215 -0.0379  0.3139
 7365W        W24213   1.008   4.027  13.073 -0.3108  0.0467 -0.1063
 7366W        W24214   2.920  16.380   3.276  0.0263  0.3073  0.2052
 7367W        W24215  13.877  15.069  15.262  0.0671  0.1263 -0.1604
 7368W        W24216   4.015  17.638   1.395  0.3871  0.1435 -0.0957
 7369W        W24217  10.833   4.783  13.995 -0.1770 -0.0438  0.3103
 7370W        W24218   6.516  17.095  13.752 -0.1784  0.3327  0.0440
 7371W        W24219   0.321   0.974  13.867  0.3699  0.2369 -0.2858
 7372W        W24220  16.905   0.244  13.366 -0.1552 -0.0800  0.0383
 7373W        W24221   9.093   4.856  11.158 -0.1603 -0.1160 -0.1386
 7374W        W24222  13.113  17.595  12.866 -0.0474 -0.0881  0.1067
 7375W        W24223   5.597  17.255  10.833  0.0550  0.3482 -0.1648
 7376W        W24224   1.359   5.526   1.893 -0.1120 -0.1124 -0.3481
 7377W        W24225  14.306   5.601   3.267  0.0696  0.1302 -0.0919
 7378W        W24226   6.438  15.649  11.770 -0.1020  0.0414 -0.0203
 7379W        W24227   9.265   7.170   3.118  0.0646  0.1382  0.1164
 7380W        W24228   5.863  12.522  11.056  0.2138 -0.0355 -0.0084
 7381W        W24229  10.175  16.609   3.372 -0.0032  0.0163  0.0741
 7382W        W24230  14.982   3.162  15.666  0.0620  0.1741 -0.1937
 7383W        W24231   6.218  10.131  11.951 -0.0803 -0.0221 -0.0677
 7384W        W24232  17.366  17.972  12.105  0.0926  0.0298 -0.0146
 7385W        W24233   5.228   4.955  13.840  0.2150 -0.1432 -0.0054
 7386W        W24234  15.032  15.245   3.982  0.1173  0.0633 -0.1750
 7387W        W24235  14.633  13.046   1.664 -0.2969  0.0702 -0.0835
 7388W        W24236   9.911  12.430  13.349 -0.1667  0.0753  0.2840
 7389W        W24237   9.094  11.670   2.665  0.0422  0.1391 -0.1006
 7390W        W24238  15.388  17.114  13.632  0.0419 -0.4727 -0.0323
 7391W        W24239  10.426  17.163   1.065 -0.1664  0.1355  0.1096
 7392W        W24240   4.689   9.925  15.835  0.1525 -0.3042  0.0802
 7393W        W24241  15.039  16.872  12.101 -0.1342  0.1312 -0.1719
 7394W        W24242   5.083  15.272   3.420 -0.1894  0.0787  0.5283
 7395W        W24243  12.620  11.607  11.824  0.0651 -0.4334  0.1483
 7396W        W24244  10.591   1.522  11.663 -0.3767 -0.3664 -0.0467
 7397W        W24245  11.858  18.011  10.110  0.1127  0.1561 -0.0834
 7398W        W24246  14.466  15.693  11.476  0.0163 -0.1820  0.2286
 7399W        W24247   0.397  14.768  14.981  0.0421 -0.2743 -0.1140
 7400W        W24248   0.705   7.765  13.638 -0.1254  0.1672  0.2710
 7401W        W24249  13.143  11.115  12.390 -0.0632  0.2324  0.0929
 7402W        W24250   4.331  16.460  10.848  0.1840 -0.1285  0.0470
 7403W        W24251  17.673  12.041  11.637  0.2542 -0.2829 -0.0024
 7404W        W24252  17.633  12.815  10.953  0.1072  0.4541  0.0917
 7405W        W24253  10.276  12.969  15.749 -0.1571 -0.1128 -0.1200
 7406W        W24254  15.807  17.737  11.360 -0.2576 -0.0283  0.0092
 7407W        W24255  16.606  15.205   0.754 -0.1423 -0.3693 -0.2700
 7408W        W24256  13.131   7.227   1.540  0.3160 -0.2248  0.4433
 7409W        W24257   8.421   3.655  14.476 -0.1100  0.3676  0.0039
 7410W        W24258   5.934   6.664  10.995 -0.0385  0.1436 -0.2310
 7411W        W24259  16.040   1.447   0.737  0.0714  0.0850  0.2851
 7412W        W24260  10.322  15.517  11.871 -0.1752 -0.0357 -0.2222
 7413W        W24261   3.458  15.792   1.905 -0.3816  0.0979  0.0930
 7414W        W24262  16.506  14.350  13.972  0.1577  0.0577  0.2347
 7415W        W24263   0.117   3.819  12.815  0.3091  0.0937  0.1547
 7416W        W24264   7.659  11.017  12.700  0.1912 -0.2513  0.0079
 7417W        W24265   2.723   4.054   4.510 -0.1977 -0.0351  0.1159
 7418W        W24266   6.536   3.776   2.110 -0.2518  0.1129 -0.1649
 7419W        W24267   0.234  16.232   3.960  0.0483 -0.1711  0.0994
 7420W        W24268  12.997   8.098   1.025  0.1075 -0.2132  0.1047
 7421W        W24269  14.923   6.287   0.510  0.0298  0.0383  0.0002
 7422W        W24270  13.441   0.214  14.929  0.3108 -0.2275  0.0665
 7423W        W24271   2.828  12.067  15.043  0.4990  0.2483 -0.0071
 7424W        W24272   2.409   9.038   1.483 -0.0700 -0.0760  0.1589
 7425W        W24273  16.711   2.611   0.327 -0.0309 -0.1766  0.0505
 7426W        W24274   1.121  13.548   1.977 -0.2105 -0.1172  0.0986
 7427W        W24275  16.854   7.874   0.931  0.1725 -0.2741 -0.1253
 7428W        W24276  13.248   7.961   2.289  0.0863  0.0838 -0.0525
 7429W        W24277  16.853   1.704   3.957 -0.0644  0.0016  0.0521
 7430W        W24278   2.872  12.550   0.115  0.0129  0.0343 -0.2431
 7431W        W24279   9.269  10.280  12.630 -0.0128 -0.5322 -0.3192
 7432W        W24280   4.462   4.406   2.435  0.0663  0.0836  0.0197
 7433W        W24281  10.968   4.131  12.158  0.0319  0.0431  0.1323
 7434W        W24282   7.951  12.714   3.264 -0.0951  0.2143 -0.0019
 7435W        W24283   3.846  12.589  13.930 -0.2926 -0.0160 -0.0932
 7436W        W24284  17.970   7.830   3.075 -0.3243 -0.1175  0.0353
 7437W        W24285  11.131  10.194  14.101  0.1877  0.2447  0.0439
 7438W        W24286  11.108   4.590  16.054  0.1494  0.0507 -0.1786
 7439W        W24287  16.233  13.874  13.913  0.0724  0.1998 -0.0239
 7440W        W24288  10.039  11.976  10.352 -0.2119 -0.0844  0.2303
 7441W        W24289   4.036  16.819   2.361 -0.1844 -0.3961  0.0536
 7442W        W24290   9.461   8.305  11.673  0.1715 -0.2552  0.2115
 7443W        W24291  17.287  18.179   3.043  0.4363 -0.2491 -0.1237
 7444W        W24292  15.707  15.548  12.049  0.1003  0.1928  0.0193
 7445W        W24293  16.451  13.766  14.340  0.3024  0.1172 -0.3144
 7446W        W24294   8.874  10.746  15.349  0.0467 -0.2186  0.0065
 7447W        W24295   5.911  14.963  11.751 -0.0622 -0.0169 -0.1502
 7448W        W24296  11.653  16.451   0.828  0.5794  0.1796  0.0457
 7449W        W24297   7.963   3.174   3.197 -0.0889  0.2384  0.0686
 7450W        W24298  13.581   5.828  13.728 -0.0658 -0.1321 -0.0514
 7451W        W24299   0.490   2.182   3.272 -0.0674 -0.1285  0.0698
 7452W        W24300   0.487   5.251   6.117  0.1600 -0.0640  0.0850
 7453W        W24301   3.390  16.324   1.781  0.0049  0.2066 -0.0059
 7454W        W24302   5.363  13.764  13.241  0.1960  0.0693 -0.2076
 7455W        W24303  13.164  11.638  12.599 -0.1194  0.2345  0.1469
 7456W        W24304   8.461   1.567  16.046  0.0019  0.4437 -0.2500
 7457W        W24305   9.330   0.740   3.118 -0.2857  0.2667 -0.0958
 7458W        W24306   5.907   2.544  12.967 -0.0069 -0.1796  0.1611
 7459W        W24307   4.560   9.306   4.600 -0.0089  0.1256  0.0559
 7460W        W24308  17.605  15.168   0.812 -0.0515 -0.0367 -0.2743
 7461W        W24309  10.838  13.750  11.383 -0.0892 -0.0947  0.1994
 7462W        W24310  12.483  13.257   3.823  0.2624 -0.3728 -0.1656
 7463W        W24311   4.543   8.851  14.321 -0.1800 -0.0463  0.0323
 7464W        W24312   4.599  17.016  13.407  0.1355  0.2233  0.2255
 7465W        W24313   3.739  14.757   1.682  0.3552 -0.2333 -0.0202
 7466W        W24314   1.138  18.167  13.668  0.1938 -0.2513 -0.0393
 7467W        W24315   6.365   4.964  13.912  0.0950  0.1097 -0.0802
 7468W        W24316   4.673  13.152  12.678 -0.2513  0.1745 -0.0168
 7469W        W24317  11.047   1.594   2.267 -0.1786 -0.1061 -0.1091
 7470W        W24318  14.688  13.392  15.605  0.1785  0.2280 -0.0993
 7471W        W24319   3.822   0.066  12.976 -0.0181 -0.1442 -0.4531
 7472W        W24320   2.305  15.915  12.132  0.1577  0.0561  0.0014
 7473W        W24321  10.808  10.038   2.940  0.2188 -0.0728  0.0997
 7474W        W24322  14.877  14.846   1.041 -0.2521 -0.0489 -0.1316
 7475W        W24323   4.766   5.783   0.255  0.2150  0.0082  0.1573
 7476W        W24324  12.506  16.716  13.526 -0.0020 -0.0268  0.0807
 7477W        W24325  13.359  12.449   1.798 -0.1547 -0.1967  0.2837
 7478W        W24326   5.732   8.525  11.262  0.2318 -0.3846 -0.1908
 7479W        W24327   9.827   7.093   3.355 -0.1619 -0.1775  0.1912
 7480W        W24328   6.354   5.931   4.057  0.0525  0.1556  0.3423
 7481W        W24329   8.614   9.080   3.116  0.0591 -0.1231 -0.2656
 7482W        W24330   0.804   0.819  15.630  0.0289 -0.0421  0.0915
 7483W        W24331  14.891  15.075   1.771  0.3530 -0.2568  0.0604
 7484W        W24332   3.985   5.894  15.891 -0.0467  0.0537 -0.0168
 7485W        W24333  16.395  16.862   0.586 -0.1392  0.4672 -0.0581
 7486W        W24334   2.678  10.000   4.710  0.2563 -0.2708 -0.1873
 7487W        W24335   0.952  13.840   0.488 -0.2439  0.4019 -0.0742
 7488W        W24336   1.342  14.898   4.958  0.0237  0.0525 -0.1073
 7489W        W24337  10.992  13.167  13.117  0.0336 -0.2584  0.1047
 7490W        W24338  13.279   1.267  12.317 -0.0880  0.0160 -0.0550
 7491W        W24339  11.790  13.982  11.586  0.1071  0.0859 -0.0204
 7492W        W24340  17.360   9.904   1.208  0.4036  0.0785  0.0981
 7493W        W24341   2.940   3.143   5.462 -0.1153 -0.1624 -0.1829
 7494W        W24342   8.771   3.202  11.270 -0.0327 -0.0831  0.2035
 7495W        W24343   8.727   1.583   4.466 -0.1421  0.1754  0.0913
 7496W        W24344   4.427   1.882  10.601  0.4142 -0.2870  0.2121
 7497W        W24345  17.355   2.375   0.569  0.0561 -0.0141  0.0199
 7498W        W24346  12.922   3.649  13.026 -0.2155 -0.0383  0.0206
 7499W        W24347   3.583  17.903   1.187 -0.0003 -0.1707  0.0199
 7500W        W24348   5.927   3.577   4.593  0.2590 -0.2140 -0.1139
 7501W        W24349   6.247   9.310  12.211 -0.3315 -0.0281  0.0457
 7502W        W24350  17.883   7.006  13.649 -0.3043  0.0943 -0.1352
 7503W        W24351  15.255  11.952   0.802  0.0828  0.1326  0.1326
 7504W        W24352  13.289   8.603   1.817  0.2842 -0.0397 -0.1466
 7505W        W24353   2.396  14.896  12.234  0.1957 -0.1903  0.1427
 7506W        W24354   7.080   5.423   1.140  0.1150  0.0981  0.0821
 7507W        W24355   5.460  11.149  12.573 -0.1288  0.1387 -0.2252
 7508W        W24356   6.647   4.742  11.530 -0.0178 -0.2257 -0.2445
 7509W        W24357  17.140   7.555  11.259 -0.2631  0.0926 -0.0081
 7510W        W24358  16.966   6.258   0.629  0.0720  0.0012  0.0303
 7511W        W24359   3.394  17.682  11.239  0.1059 -0.0409 -0.2765
 7512W        W24360  16.210   8.404   2.064 -0.0497  0.1020  0.4381
 7513W        W24361  12.015  11.358  13.232  0.0745  0.0744  0.0922
 7514W        W24362   4.117  14.891   3.930 -0.0682  0.2701  0.2614
 7515W        W24363   9.015  11.151   1.514 -0.0506  0.1498  0.1426
 7516W        W24364   8.733  16.004  13.289 -0.0278  0.1848  0.3301
 7517W        W24365  10.649  14.695   3.021  0.1617  0.2070  0.4745
 7518W        W24366  12.651  14.500   4.468 -0.0067  0.0755  0.2401
 7519W        W24367  16.330   2.693  14.444  0.4877  0.2009 -0.1508
 7520W        W24368   0.143  15.886  15.603  0.1420  0.3228 -0.0713
 7521W        W24369   7.220  11.864  14.829  0.1491 -0.0415  0.2975
 7522W        W24370   3.518   6.074  12.013  0.0127  0.3169  0.0454
 7523W        W24371   6.749  16.583  14.516  0.0115 -0.5173  0.0468
 7524W        W24372   6.657   4.238   1.079 -0.0356  0.0708 -0.1463
 7525W        W24373   6.694  10.611   3.461  0.1773 -0.1408  0.4549
 7526W        W24374   5.758  16.116  14.847  0.0534  0.3664  0.0691
 7527W        W24375  18.018  11.459   3.167 -0.2179 -0.0767 -0.0304
 7528W        W24376   1.902   3.568   1.892  0.0820  0.3454  0.3386
 7529W        W24377   2.798   1.717   4.186  0.1437 -0.0486  0.1198
 7530W        W24378   8.234   3.424   5.942  0.4302  0.1946 -0.2854
 7531W        W24379  16.693  14.741  15.394  0.1474  0.0917 -0.0040
 7532W        W24380   5.280  17.523  12.594  0.0285 -0.1587 -0.1056
 7533W        W24381  14.325  13.089   3.234  0.0574 -0.0162  0.3994
 7534W        W24382  13.208  10.752  16.003 -0.3052 -0.3516 -0.1262
 7535W        W24383  17.031  10.330   1.629  0.0168  0.0818 -0.2067
 7536W        W24384   8.345   8.717  11.711  0.0101 -0.3565  0.0492
 7537W        W24385   1.742  17.836   3.390  0.0785 -0.0918 -0.0813
 7538W        W24386   9.730   0.492  13.042  0.1329  0.2403  0.1202
 7539W        W24387   0.921   2.307   0.344  0.3807  0.2741  0.5244
 7540W        W24388  13.568   9.828   1.102  0.0139 -0.2721  0.0480
 7541W        W24389   6.488  17.619  14.639 -0.1334 -0.0378  0.0749
 7542W        W24390  16.587   7.562   4.036 -0.2171  0.2629 -0.3177
 7543W        W24391   0.382  15.417   2.177 -0.0358  0.0321  0.2275
 7544W        W24392  13.300  11.563   4.791  0.0546 -0.2624 -0.0164
 7545W        W24393  13.653  12.521   0.192  0.1684 -0.0808  0.0342
 7546W        W24394   8.627   9.421   0.152  0.0327  0.2349  0.5220
 7547W        W24395   9.588  11.041   5.404  0.1877  0.2445  0.0101
 7548W        W24396  13.994   4.244  13.963 -0.0110  0.0084 -0.0650
 7549W        W24397  16.830   9.563   0.391 -0.1632  0.1973  0.0602
 7550W        W24398  15.303   8.094  13.663  0.0762  0.0976  0.1301
 7551W        W24399   2.000   6.582  13.041 -0.1158 -0.2858  0.2840
 7552W        W24400   8.974  15.395  15.377 -0.1040 -0.1229  0.3539
 7553W        W24401  11.745   3.450   3.534  0.2400 -0.3223 -0.0180
 7554W        W24402  11.251   4.247  11.694 -0.1577 -0.0985  0.1492
 7555W        W24403  16.806  13.716   4.527 -0.4069  0.2073 -0.1293
 7556W        W24404   9.745  11.625  11.021  0.2231  0.1039 -0.6715
 7557W        W24405  10.271  16.061  14.018 -0.1475  0.1016 -0.2105
 7558W        W24406   1.488   9.971   3.155 -0.0906 -0.1916 -0.0776
 7559W        W24407  10.079   7.273   0.426  0.0006  0.0974 -0.0648
 7560W        W24408  12.341  15.844  15.585 -0.1536  0.1806  0.3722
 7561W        W24409  15.766  10.181   4.779  0.1037 -0.4387 -0.0657
 7562W        W24410  17.240   0.132   4.979  0.0671  0.0738 -0.1697
 7563W        W24411  16.517  10.260  12.496  0.1137  0.0999 -0.0061
 7564W        W24412   7.700   4.293   0.185  0.0577 -0.2360 -0.1415
 7565W        W24413  15.225  10.030  14.749 -0.0328  0.0724  0.0024
 7566W        W24414   2.523   1.344   1.309  0.1806  0.2559 -0.0647
 7567W        W24415   2.455   3.922   0.783 -0.1912 -0.1764 -0.0811
 7568W        W24416   7.215   7.845  15.463  0.0020  0.1625 -0.4806
 7569W        W24417   1.625  12.679  14.318 -0.2469 -0.0333  0.0968
 7570W        W24418  10.688   0.220  10.348  0.1796 -0.4035  0.3586
 7571W        W24419  15.983   9.291   1.977 -0.1294  0.2301 -0.0661
 7572W        W24420  16.047   6.144  12.846  0.2096 -0.1671  0.0794
 7573W        W24421   6.159  17.984  11.740 -0.1506 -0.2200 -0.0721
 7574W        W24422   6.085  12.374   5.133  0.0167  0.0206  0.2239
 7575W        W24423  10.616  10.652   0.191  0.1762 -0.0236  0.3419
 7576W        W24424   4.969   6.073  11.536  0.1633 -0.0430  0.1069
 7577W        W24425   3.679   0.751  10.088  0.1395  0.0038 -0.0140
 7578W        W24426   7.600   9.298   2.624  0.1006 -0.2172 -0.5100
 7579W        W24427   7.643   5.362   0.587 -0.0263  0.0488 -0.2700
 7580W        W24428  10.298   0.079  14.570 -0.2952 -0.1446  0.0135
 7581W        W24429   1.876  12.313  13.949  0.0588 -0.1887  0.0015
 7582W        W24430  17.571  16.162  14.080 -0.0346  0.1195 -0.0016
 7583W        W24431  15.332  12.259   0.281 -0.2406 -0.0174  0.0526
 7584W        W24432   2.970  15.646   5.389  0.0465 -0.2897  0.1917
 7585W        W24433  17.880   5.378   2.915 -0.0479  0.2952  0.1138
 7586W        W24434   3.858   2.074   1.336 -0.0960 -0.2420 -0.1956
 7587W        W24435   5.549   8.204   1.078 -0.0278 -0.0840  0.3082
 7588W        W24436  12.635  16.265   0.752  0.0549 -0.0655 -0.3633
 7589W        W24437   7.682   0.572   0.751 -0.0891 -0.0097  0.1485
 7590W        W24438   9.900   1.859   3.925  0.1585 -0.0486 -0.1420
 7591W        W24439  13.756   9.302   1.000 -0.0003  0.1697 -0.0137
 7592W        W24440  11.213   1.119   1.499  0.0000  0.0545 -0.2296
 7593W        W24441  13.935  13.703  15.146 -0.1315  0.1107 -0.0157
 7594W        W24442  11.752  10.299   5.146  0.0400  0.1805 -0.1026
 7595W        W24443   9.255   6.179   0.431 -0.1726  0.3063  0.0512
 7596W        W24444   1.324   2.750  12.999 -0.2196 -0.1751 -0.0725
 7597W        W24445  10.920   5.966   2.964 -0.0959  0.0963  0.2358
 7598W        W24446  14.743  13.022   4.429  0.0230  0.3994  0.1527
 7599W        W24447   8.097   5.732   3.576 -0.0874  0.0113  0.0604
 7600W        W24448  12.726  16.737  14.407 -0.0699 -0.3536  0.1044
 7601W        W24449   2.932  13.660  14.455 -0.0861 -0.1696  0.0952
 7602W        W24450  16.779   1.036   4.491  0.1614  0.0676  0.0829
 7603W        W24451  10.396  16.596   1.052  0.4034  0.0594  0.2477
 7604W        W24452  18.056   7.235   4.934 -0.0748 -0.0065  0.2655
 7605W        W24453  12.884  11.023  13.539 -0.0347  0.1752  0.3645
 7606W        W24454  13.590   9.834   0.010  0.0674 -0.1158 -0.0708
 7607W        W24455  10.664   2.807   5.413  0.0631  0.1186  0.1412
 7608W        W24456  17.385   3.060   2.683  0.1193 -0.1814  0.0352
 7609W        W24457   1.597  13.492  14.571 -0.4005 -0.0246 -0.0284
 7610W        W24458  17.175   9.504   0.005  0.4027  0.1027 -0.0052
 7611W        W24459  13.872  14.536  14.019  0.0028  0.1022  0.1221
 7612W        W24460  11.834   5.836   1.655  0.1792  0.0343  0.0315
 7613W        W24461  17.061  11.246   1.649 -0.2770  0.1118 -0.0902
 7614W        W24462  15.712  10.468   3.867  0.3717  0.0763  0.0693
 7615W        W24463   5.692   7.108  14.898  0.0535  0.3054  0.0593
 7616W        W24464   1.824   1.580   3.831 -0.0245 -0.1004  0.5909
 7617W        W24465  16.092   7.568  11.770  0.2320  0.2271  0.1699
 7618W        W24466   2.949  15.275  15.461  0.0997 -0.4539  0.2065
 7619W        W24467   7.783   7.602  15.997  0.0137 -0.0166  0.2434
 7620W        W24468   8.457   5.528   4.456  0.2595 -0.3930 -0.1374
 7621W        W24469  13.166   3.653  14.915 -0.2036 -0.2391 -0.2293
 7622W        W24470   3.627   3.942   1.519 -0.3339 -0.0049 -0.1538
 7623W        W24471   9.496   0.717  12.612 -0.1801  0.0645  0.1857
 7624W        W24472   6.676  17.200  12.403  0.2995  0.1918  0.0447
 7625W        W24473  17.847   5.474   5.005 -0.0186  0.0196 -0.0387
 7626W        W24474  17.596   0.324  13.093 -0.1209 -0.0776  0.0270
 7627W        W24475   0.449  16.558  15.795 -0.6233  0.2969 -0.2178
 7628W        W24476  13.837   5.865   3.137  0.1809  0.1453  0.0796
 7629W        W24477   5.902  11.617  15.798  0.0677  0.0487 -0.0810
 7630W        W24478   0.382   8.022  14.446 -0.3002  0.3918 -0.3773
 7631W        W24479  12.527   3.937   0.307 -0.1017  0.0124 -0.3953
 7632W        W24480   2.657  17.520  13.672  0.1997  0.1426  0.3899
 7633W        W24481  11.165  11.167   4.198  0.2338  0.0695  0.1023
 7634W        W24482   1.208  17.946  10.605 -0.3001 -0.0905  0.3782
 7635W        W24483  17.056  15.456   1.561 -0.0670 -0.0809 -0.0972
 7636W        W24484  16.893  16.089   2.820 -0.0314 -0.0815 -0.1358
 7637W        W24485  15.726  13.340   1.808  0.0420 -0.0539 -0.1561
 7638W        W24486   8.169   4.249  13.829  0.2766  0.1414  0.1318
 7639W        W24487  17.272   9.493  15.063 -0.4297 -0.1002  0.1500
 7640W        W24488   4.200  17.399  15.282  0.2793 -0.0912  0.0218
 7641W        W24489  13.499  14.604   3.601  0.0368  0.1591  0.3805
 7642W        W24490  17.482  15.347  10.325  0.3558  0.0856 -0.1714
 7643W        W24491   6.141  13.152  15.952 -0.2128 -0.1006 -0.0974
 7644W        W24492  15.814   1.789  15.063  0.2806 -0.0170 -0.1927
 7645W        W24493   2.066   6.644  14.674  0.2482 -0.0115  0.3937
 7646W        W24494  15.710   1.778  16.030  0.0508 -0.2016  0.1449
 7647W        W24495   6.783   6.096   4.211  0.0663 -0.1962  0.3476
 7648W        W24496  14.294   4.309  14.943 -0.0446 -0.1426 -0.1472
 7649W        W24497  13.546   3.538  11.526  0.3071 -0.0844 -0.1510
 7650W        W24498   9.690  15.742  15.124 -0.0460 -0.0682  0.0699
 7651W        W24499   5.855   4.379  12.750 -0.0208 -0.1030  0.0559
 7652W        W24500   8.468  17.484  15.549 -0.0963  0.0951  0.2273
 7653W        W24501   8.621  17.242   3.570 -0.0083  0.1691 -0.0257
 7654W        W24502   3.959   1.972  14.740  0.2339 -0.0400 -0.4135
 7655W        W24503   0.360  16.296  11.885 -0.0806 -0.1137  0.2665
 7656W        W24504   3.067   8.840   2.280 -0.0260  0.1295 -0.3704
 7657W        W24505   4.168  13.385   4.281 -0.2410 -0.0981 -0.2668
 7658W        W24506   9.500   9.014   5.571  0.0971 -0.1645 -0.2884
 7659W        W24507  10.011   6.814  13.236 -0.1000 -0.2810  0.1540
 7660W        W24508   8.494   7.668  14.018  0.0536 -0.1057 -0.2777
 7661W        W24509   1.925  11.712  11.933  0.1419  0.2362  0.2239
 7662W        W24510   1.676  15.407  12.866 -0.3134  0.1512 -0.4391
 7663W        W24511  16.839   2.342  12.596  0.2382  0.2572  0.1209
 7664W        W24512   2.469  16.053   1.865  0.4736  0.1591  0.1787
 7665W        W24513   8.216  15.038   0.601  0.0444 -0.2518  0.2244
 7666W        W24514   5.102  15.623  13.065 -0.2186 -0.1369  0.5427
 7667W        W24515   4.666  15.035  13.411  0.0121 -0.1423  0.0369
 7668W        W24516   6.121   3.008   5.317 -0.1690 -0.1201 -0.2258
 7669W        W24517   2.721   7.201   2.764  0.0966  0.0573 -0.1366
 7670W        W24518  13.020   0.088  14.048 -0.0136 -0.1314 -0.3390
 7671W        W24519   4.928  14.946   0.559  0.3825  0.0954 -0.1139
 7672W        W24520  15.806   9.274  14.300 -0.0742  0.1430 -0.3171
 7673W        W24521   4.905   8.006   3.957 -0.1512  0.1685  0.0943
 7674W        W24522   6.997  16.998   6.191 -0.0178  0.2596  0.0608
 7675W        W24523  10.888  14.339   1.401  0.2100 -0.0847 -0.2041
 7676W        W24524   8.585  13.244   0.431 -0.5310 -0.1466  0.0293
 7677W        W24525  16.719   8.754  15.193  0.0633 -0.0590  0.1613
 7678W        W24526  12.691   8.627   0.402 -0.3831  0.1211 -0.3607
 7679W        W24527   8.237   3.712  13.473 -0.1525  0.4362 -0.0060
 7680W        W24528   5.865   4.733  10.834  0.0682 -0.0525  0.0828
 7681W        W24529   9.677   0.347   2.486  0.1517 -0.3697 -0.1692
 7682W        W24530   3.753   2.074  14.180 -0.2108 -0.0716 -0.0212
 7683W        W24531  10.846  11.155  13.458  0.2380  0.0469 -0.1272
 7684W        W24532   9.026   9.799  13.489 -0.1275  0.1057 -0.1345
 7685W        W24533  13.982   2.079  15.249 -0.1079 -0.3714  0.0387
 7686W        W24534   2.119   6.639  12.166  0.0255  0.0767  0.0377
 7687W        W24535  16.009  10.852  13.650 -0.0380  0.1123  0.0125
 7688W        W24536  14.415  10.198  13.303 -0.1696  0.0412 -0.2212
 7689W        W24537  15.907   9.787   4.198  0.1446 -0.1446 -0.1074
 7690W        W24538   5.789   5.253   3.708 -0.0018 -0.1389  0.0983
 7691W        W24539  10.280   6.731   1.447  0.1920 -0.1089 -0.2093
 7692W        W24540  12.640   2.135  14.509 -0.2475  0.0226  0.1285
 7693W        W24541   6.872   5.056   1.865  0.2953 -0.1895 -0.1755
 7694W        W24542  18.020  10.428  12.987  0.0222  0.0323  0.0037
 7695W        W24543   6.588  15.535  14.429 -0.1119 -0.0022 -0.0166
 7696W        W24544  16.522   7.129   3.841 -0.0493  0.2175 -0.2391
 7697W        W24545  11.120  15.903  13.604  0.0598  0.0462 -0.2883
 7698W        W24546   9.330  10.318   4.957 -0.0707 -0.2884 -0.3444
 7699W        W24547   0.659  11.226   2.311  0.0977  0.1994 -0.0852
 7700W        W24548   1.446   3.468   0.533 -0.1721  0.1119 -0.2962
 7701W        W24549  10.650   6.417   6.274  0.0503  0.0329 -0.0127
 7702W        W24550   6.216   6.457  15.266  0.0625 -0.2233  0.1835
 7703W        W24551   8.619  12.154   1.756 -0.2074  0.1842 -0.1670
 7704W        W24552  16.660   9.592  15.267  0.2814  0.0330 -0.1144
 7705W        W24553   0.908  14.922  14.817 -0.0636  0.0698 -0.0102
 7706W        W24554   5.394  14.786  14.561 -0.1250 -0.2027 -0.2034
 7707W        W24555   3.785  16.746   1.059 -0.3271 -0.0744 -0.0834
 7708W        W24556   6.853   6.338  13.402 -0.0706 -0.0221  0.4625
 7709W        W24557  14.354  17.006   3.471 -0.1327 -0.0365  0.0849
 7710W        W24558  12.286   6.887   0.668  0.0573  0.0295 -0.2345
 7711W        W24559  10.958  16.539  14.389  0.0631 -0.0478  0.0733
 7712W        W24560   8.855   9.394  14.244 -0.1680  0.1607 -0.2485
 7713W        W24561  10.219  15.902   4.468  0.1903 -0.0310 -0.0637
 7714W        W24562   5.226   7.235  15.834  0.2408 -0.2263  0.1773
 7715W        W24563  16.999  13.236  12.528 -0.2392  0.3105  0.0926
 7716W        W24564   6.205   7.143   0.703 -0.4138 -0.0604 -0.1836
 7717W        W24565  13.628  16.891   1.641 -0.3359  0.1131 -0.1085
 7718W        W24566   4.789  13.197   0.511 -0.0406 -0.1521  0.0165
 7719W        W24567   9.926   7.248   3.826  0.0564 -0.1679 -0.0805
 7720W        W24568   0.723   7.513  11.635 -0.0815 -0.1600  0.1664
 7721W        W24569   4.897  14.456   0.295  0.3014 -0.2970  0.1432
 7722W        W24570   6.155   7.776  11.687  0.0062  0.2058  0.0892
 7723W        W24571   6.874  18.218  13.189  0.3240  0.1160 -0.5177
 7724W        W24572   8.938   9.813  15.872  0.1375  0.0548  0.1845
 7725W        W24573  11.859   3.588  15.359  0.1353  0.1982  0.1707
 7726W        W24574   3.165  12.337   4.176  0.1076  0.1025  0.0826
 7727W        W24575   9.492  12.468  15.285 -0.1809  0.0832  0.2680
 7728W        W24576  10.820  12.677  15.007 -0.0042 -0.0284  0.2337
 7729W        W24577   8.259   0.171  15.767 -0.1052  0.0568  0.0197
 7730W        W24578   6.719  10.569   4.378  0.2035  0.2142  0.2868
 7731W        W24579   3.332  15.169  15.141 -0.0087  0.2173 -0.0850
 7732W        W24580  17.522   7.596   2.312  0.2748  0.0967  0.2729
 7733W        W24581   6.636   3.717   3.115  0.1569  0.2153 -0.1463
 7734W        W24582  10.910   8.697   0.067  0.1434 -0.1363 -0.0560
 7735W        W24583  12.842   3.096  12.953  0.0442  0.2886  0.0050
 7736W        W24584   0.102   0.764  14.867  0.0811 -0.1490 -0.3293
 7737W        W24585  13.169   5.922  13.987  0.0410 -0.0390  0.1398
 7738W        W24586  10.701   0.453  12.679 -0.2389  0.2039 -0.0909
 7739W        W24587   0.799  17.931  10.965  0.0721 -0.1515  0.0977
 7740W        W24588   0.191  11.049   5.552 -0.1655  0.1306  0.2457
 7741W        W24589  16.584   9.535   5.050  0.1806  0.0951 -0.3980
 7742W        W24590  15.789   7.813  13.647 -0.1923 -0.2366  0.2063
 7743W        W24591   2.424   8.297   1.986 -0.0934  0.2168 -0.2403
 7744W        W24592  15.382  17.867   1.929 -0.1442  0.1196  0.0280
 7745W        W24593  17.695   0.057  15.953  0.0808  0.1165  0.1732
 7746W        W24594  11.817   6.319  15.711 -0.1558  0.1774  0.2765
 7747W        W24595   5.083   1.465  12.045 -0.1629  0.1111 -0.2416
 7748W        W24596  15.675   3.911  11.337 -0.2421  0.4182  0.0312
 7749W        W24597   3.617  14.439  15.976 -0.0227  0.0201  0.2234
 7750W        W24598   2.908   8.875   1.654 -0.0139  0.0529  0.2865
 7751W        W24599  16.230  12.931   5.231  0.3086  0.1540  0.1707
 7752W        W24600  17.995   2.000   3.944 -0.0594 -0.2384 -0.0742
 7753W        W24601   8.900  13.848   5.031 -0.0034  0.1197 -0.1646
 7754W        W24602   7.067   9.313  13.975  0.0939 -0.2728 -0.1735
 7755W        W24603  17.430  14.768  12.899  0.0855 -0.1854  0.2019
 7756W        W24604   1.418  16.266   4.165  0.0325 -0.0207  0.1586
 7757W        W24605   7.600  16.224  12.511  0.1082  0.0317  0.1837
 7758W        W24606   0.976  15.265  14.103 -0.0308  0.0330 -0.0066
 7759W        W24607  17.745   9.059  13.319  0.2187 -0.3786 -0.2082
 7760W        W24608  16.142   4.724   1.637 -0.1590  0.0065 -0.1198
 7761W        W24609   6.365  12.856   1.942 -0.3278  0.0520  0.1069
 7762W        W24610   6.758  15.998  13.806 -0.0695 -0.0437 -0.3439
 7763W        W24611   8.366   2.090   3.254 -0.1253  0.0877  0.2134
 7764W        W24612   9.525  12.425  14.728 -0.2962 -0.0403 -0.0207
 7765W        W24613   1.737  17.580  16.029 -0.1021  0.0277 -0.2657
 7766W        W24614   3.281  10.933  13.735  0.2102 -0.4200 -0.0133
 7767W        W24615  12.267   1.804  11.270  0.3368 -0.0088  0.2166
 7768W        W24616  14.046  12.787   0.558 -0.1526 -0.1091  0.0743
 7769W        W24617   5.817   2.309  13.748  0.0823 -0.1838 -0.3568
 7770W        W24618  13.484   8.534   0.968 -0.1684 -0.1852  0.1653
 7771W        W24619   3.978   1.130   1.143  0.0802 -0.0905  0.0593
 7772W        W24620   8.992   5.394  12.742 -0.0777 -0.0475  0.0745
 7773W        W24621   0.785   0.662  11.955 -0.1226 -0.0572  0.1221
 7774W        W24622   6.346  16.837  11.094  0.2513 -0.1144  0.0339
 7775W        W24623   4.838  11.561   2.144  0.1983  0.1301  0.1818
 7776W        W24624  12.648   5.112   4.717 -0.2263  0.1152 -0.0043
 7777W        W24625  14.155  13.294   0.458  0.3279 -0.2981  0.0645
 7778W        W24626   6.539  16.505   4.489 -0.1021 -0.0032 -0.0844
 7779W        W24627  15.788   1.068   3.276 -0.2818  0.0633  0.4573
 7780W        W24628   1.912  17.647  12.740 -0.2473 -0.3723 -0.2257
 7781W        W24629  10.547  16.372   0.012  0.0109  0.1711  0.0507
 7782W        W24630  12.095   7.846  13.567 -0.1534  0.0311 -0.0358
 7783W        W24631  12.692   7.725   0.795 -0.0443  0.0405  0.1692
 7784W        W24632   5.923   7.763  11.235 -0.3665 -0.2315  0.2352
 7785W        W24633  14.637   3.568  12.626  0.0409 -0.1993  0.4230
 7786W        W24634   8.528   3.348  13.231  0.0495 -0.1526 -0.2223
 7787W        W24635  15.227  14.119   1.965  0.1944  0.0389 -0.2727
 7788W        W24636   4.964   1.009  16.012  0.0645 -0.0067 -0.2489
 7789W        W24637   7.900  16.992  11.016  0.0588  0.1424  0.2523
 7790W        W24638   2.109   9.257  13.647 -0.0383  0.1818 -0.1100
 7791W        W24639   4.420   2.683  13.908 -0.3675 -0.1220  0.1068
 7792W        W24640  10.022  13.524   0.702  0.1019 -0.1256  0.0533
 7793W        W24641   9.185   7.890  11.801 -0.3263  0.4633  0.1049
 7794W        W24642   8.014   8.846   2.246  0.0285  0.2075 -0.1891
 7795W        W24643   5.178   2.549  15.822 -0.2785  0.0927  0.2242
 7796W        W24644  15.960  10.657   4.969 -0.0457  0.1433 -0.1192
 7797W        W24645   4.602  11.425   4.742  0.2544  0.0547  0.0384
 7798W        W24646  12.972   5.575  11.641 -0.0943  0.0842 -0.4303
 7799W        W24647   8.073   2.360   4.682  0.2757 -0.0611 -0.0419
 7800W        W24648   4.144  14.261  10.834 -0.0763 -0.3007  0.1304
 7801W        W24649   4.188   6.234  12.544 -0.0118 -0.2944 -0.0015
 7802W        W24650  15.140   5.470   1.139 -0.1494 -0.3890  0.1305
 7803W        W24651   3.283  15.155   1.700 -0.5695  0.1853  0.1220
 7804W        W24652  16.838   7.180  11.572  0.2559 -0.0539 -0.1370
 7805W        W24653  12.686   6.694  11.457 -0.4321  0.0135 -0.0706
 7806W        W24654  10.320  18.132   4.887  0.0910  0.1535 -0.2312
 7807W        W24655   3.239   1.635   5.120 -0.2212  0.1983  0.2925
 7808W        W24656   2.407   5.208  15.733  0.1821  0.0303  0.0629
 7809W        W24657  13.840  13.007   3.689  0.1940 -0.1964 -0.0651
 7810W        W24658   2.873   1.816  15.884 -0.1029 -0.1715  0.3217
 7811W        W24659   2.119   3.961  11.146 -0.2526 -0.0502 -0.2425
 7812W        W24660  11.103  14.803   3.872  0.1056  0.2112 -0.0870
 7813W        W24661   4.100  11.559   0.690 -0.0414  0.4725  0.0363
 7814W        W24662   3.342   3.283   0.828 -0.0486  0.1231  0.2303
 7815W        W24663   5.465   4.907  12.253  0.2625  0.0696  0.0274
 7816W        W24664   3.779   0.305   3.652  0.0603  0.1990 -0.0101
 7817W        W24665   8.057  13.845  11.541 -0.3443  0.1021  0.3339
 7818W        W24666  10.538   8.835   5.441  0.1035  0.0220 -0.1362
 7819W        W24667  11.982  14.198   5.100  0.2103 -0.1694  0.1410
 7820W        W24668   9.226  13.430  14.526 -0.1398 -0.1323  0.2603
 7821W        W24669  13.572  12.483  15.473 -0.3338  0.3430 -0.0778
 7822W        W24670   3.051   3.182   3.418  0.2689  0.0678 -0.3214
 7823W        W24671  14.992   4.337   0.619  0.3104 -0.1280  0.0183
 7824W        W24672  14.296   0.025  15.160  0.1635  0.0582  0.0642
 7825W        W24673   8.812  11.604   5.680  0.0493 -0.0594  0.2522
 7826W        W24674   1.246   0.669   1.479  0.1770  0.2690 -0.1010
 7827W        W24675   8.592   0.052   2.657 -0.0844 -0.1891  0.0766
 7828W        W24676   5.014   7.366   5.239 -0.4948  0.3425  0.0755
 7829W        W24677   0.641  11.878   5.242 -0.1995  0.1225  0.3489
 7830W        W24678   1.129   0.718   2.875  0.0702  0.1354 -0.0169
 7831W        W24679  12.982  17.747   0.458  0.0119  0.2374  0.1462
 7832W        W24680  11.205  12.896   1.938 -0.2152  0.5755 -0.2525
 7833W        W24681   4.036   0.009   0.546 -0.0572  0.2848  0.0020
 7834W        W24682  17.442  10.861   1.868  0.0104  0.0351  0.0825
 7835W        W24683  12.142  13.196   2.522 -0.0721  0.2578  0.1629
 7836W        W24684  11.959  11.258  12.036 -0.0371 -0.3060  0.1908
 7837W        W24685  12.272  16.559  11.939  0.0670  0.2427 -0.0929
 7838W        W24686   8.231   3.603   1.727 -0.2627  0.2061 -0.0988
 7839W        W24687  16.970   8.300  14.980 -0.0777 -0.2873 -0.2234
 7840W        W24688   9.915   1.436   1.075  0.3640  0.0309  0.1837
 7841W        W24689  15.288   8.167   4.088  0.2013  0.1099 -0.0952
 7842W        W24690  16.638  13.458   2.061  0.1162  0.2007 -0.0905
 7843W        W24691   4.886   0.738   2.915  0.1214  0.1093 -0.0823
 7844W        W24692  13.603   4.843  14.606 -0.0524  0.1570 -0.1317
 7845W        W24693   7.305   4.223  11.775  0.0361  0.5461 -0.0629
 7846W        W24694  15.455   0.456  12.685 -0.1322 -0.0738  0.2484
 7847W        W24695  12.967  14.200   2.642  0.1868  0.2174 -0.0595
 7848W        W24696  10.506   3.498   3.475 -0.0499 -0.0194 -0.1239
 7849W        W24697   4.538   4.072   1.119 -0.0780  0.2025 -0.2059
 7850W        W24698  15.149  13.749   0.990  0.2085  0.0256  0.0421
 7851W        W24699   6.610   9.490   1.019  0.0532 -0.2403 -0.1611
 7852W        W24700  17.878  16.209   3.994 -0.0779 -0.1058  0.0780
 7853W        W24701   1.744   4.125   1.849  0.0973 -0.0739 -0.0029
 7854W        W24702   2.322   3.347   4.835  0.1949  0.1971  0.0877
 7855W        W24703  16.335  13.852   0.335  0.3494  0.2481 -0.3148
 7856W        W24704   6.721  15.123  11.232  0.1692  0.0187  0.0743
 7857W        W24705  14.942   6.163   1.047 -0.1267 -0.1609 -0.0382
 7858W        W24706   3.392  10.138  15.728  0.1025  0.0473 -0.2165
 7859W        W24707  15.857   9.072  10.362 -0.0392 -0.1507  0.2484
 7860W        W24708  11.352  12.097  14.894 -0.1188 -0.1132  0.0432
 7861W        W24709   5.316   8.351   5.231 -0.3791  0.0204 -0.3195
 7862W        W24710  10.024  13.070  16.122  0.1283 -0.0717 -0.0900
 7863W        W24711   6.580   7.794   1.968 -0.0383  0.0214 -0.0492
 7864W        W24712  13.068  13.183  12.358  0.0177 -0.2652  0.1874
 7865W        W24713   1.528  13.112   1.821 -0.0856 -0.0335  0.2215
 7866W        W24714   8.119   1.518   1.447  0.0012 -0.2175  0.3519
 7867W        W24715   9.219  10.736   5.205  0.1779  0.0062  0.0885
 7868W        W24716  13.759   8.275   1.772  0.1667  0.0074  0.2524
 7869W        W24717   1.456  15.265   4.066 -0.2237 -0.0996  0.0708
 7870W        W24718   2.922   9.114   0.527  0.0149  0.0749 -0.2031
 7871W        W24719   0.283   9.613   2.234  0.0782 -0.1268 -0.3954
 7872W        W24720   6.587   4.474  14.943  0.3307  0.1705  0.4149
 7873W        W24721   4.279   5.538   1.223 -0.0053  0.3478 -0.0406
 7874W        W24722   2.061   9.925   0.263 -0.0533  0.2384  0.0609
 7875W        W24723  14.941  12.265   1.118  0.4521  0.2419 -0.1180
 7876W        W24724  14.239  11.112  11.604  0.2909  0.0655 -0.1628
 7877W        W24725   2.960  13.561   3.591  0.0650  0.0890  0.0056
 7878W        W24726  11.154   1.659  14.897  0.2107  0.1049  0.3556
 7879W        W24727  10.366  17.461  11.957  0.3587 -0.0569  0.1084
 7880W        W24728  14.834   1.683  15.292 -0.1349  0.2354 -0.1198
 7881W        W24729   2.340   1.620  15.307 -0.0511 -0.3181 -0.3412
 7882W        W24730  16.619   1.210   2.362 -0.2724 -0.0362  0.0551
 7883W        W24731  13.872   2.691   2.961  0.2313  0.4029 -0.0437
 7884W        W24732  17.541  15.928  15.388 -0.0091  0.0095  0.2340
 7885W        W24733  11.749   8.936  14.010  0.2741  0.0468 -0.1784
 7886W        W24734  17.919   8.271   0.233 -0.2647  0.1307 -0.2026
 7887W        W24735  17.541  11.092  12.134  0.1374  0.0117  0.0439
 7888W        W24736   5.408  12.138   3.620 -0.0991 -0.0379  0.1125
 7889W        W24737  10.154  16.355  15.565 -0.1309  0.0648 -0.2198
 7890W        W24738   5.978   8.378  13.835  0.2393  0.1663 -0.1215
 7891W        W24739   5.032  10.490  15.203 -0.3638  0.2790  0.1190
 7892W        W24740  15.169   0.162   1.754  0.1433  0.0938 -0.1515
 7893W        W24741   1.571  18.100  11.565 -0.2333 -0.2168  0.2951
 7894W        W24742   8.843   6.993  11.057 -0.2874 -0.0532 -0.3868
 7895W        W24743  15.844   4.914   1.099 -0.1301 -0.0578  0.4077
 7896W        W24744   7.642  13.212  14.276  0.0082 -0.1291  0.1089
 7897W        W24745   4.743   5.636   2.888  0.0823  0.0551 -0.1815
 7898W        W24746  16.477   2.113  12.944 -0.1522 -0.1310 -0.1275
 7899W        W24747  12.315  17.677  15.159  0.0177  0.0461 -0.2503
 7900W        W24748  11.545  11.061  15.031 -0.2068  0.0832 -0.2244
 7901W        W24749  11.909   3.352   4.524  0.1393 -0.0129 -0.0580
 7902W        W24750   2.078   6.287  12.634 -0.3669  0.0197  0.1008
 7903W        W24751  11.319   5.813   0.151  0.1160 -0.2015 -0.1939
 7904W        W24752   7.343   7.566  11.612  0.2454 -0.0468  0.1461
 7905W        W24753   1.603  15.566   3.694  0.2034  0.0307  0.0733
 7906W        W24754  14.903  12.311  12.025  0.1754  0.3652 -0.0807
 7907W        W24755  10.014   4.490   2.243 -0.0818  0.2422  0.0335
 7908W        W24756  15.739  12.244   3.803  0.1657  0.0574  0.1008
 7909W        W24757   1.554   0.174   3.118 -0.2443 -0.1108  0.0896
 7910W        W24758   6.326  16.721   1.882  0.0118 -0.1841  0.0346
 7911W        W24759  16.717  10.494   1.283 -0.2878 -0.0653  0.0463
 7912W        W24760   9.847   2.554  14.709  0.0357 -0.4780 -0.0049
 7913W        W24761  10.012  10.259   4.250  0.1729 -0.0373  0.3455
 7914W        W24762   2.888   2.167   0.936  0.0812  0.0091 -0.2274
 7915W        W24763   7.784  12.358  14.432  0.2100  0.0307  0.0947
 7916W        W24764  13.327  17.211  13.108  0.0053 -0.0526 -0.2720
 7917W        W24765   2.812   2.699   4.488  0.1030 -0.0091 -0.0963
 7918W        W24766   5.162  14.403   3.353  0.0067  0.3247 -0.1011
 7919W        W24767   6.061   2.548   5.209 -0.0008  0.0444 -0.0913
 7920W        W24768   1.698   5.297  15.753 -0.1918 -0.1849  0.1208
 7921W        W24769  16.945   2.207  12.145 -0.1209  0.0480  0.1692
 7922W        W24770   4.985  12.210  15.253 -0.5031 -0.1589  0.2438
 7923W        W24771   5.325   6.110  12.621 -0.0301 -0.1097  0.3011
 7924W        W24772   9.395   0.017   2.250 -0.2317  0.1047 -0.0410
 7925W        W24773  11.524  10.315   4.106  0.0370 -0.1434 -0.0622
 7926W        W24774  17.831  11.910   2.966  0.0600 -0.0246 -0.5728
 7927W        W24775   0.179   9.609  13.558 -0.0658 -0.0265 -0.0493
 7928W        W24776   9.786  13.183   1.032 -0.0200 -0.2185 -0.1618
 7929W        W24777  10.871  13.814  15.669 -0.0560  0.0414 -0.0266
 7930W        W24778  13.906  12.161   1.901  0.2153  0.0173 -0.1751
 7931W        W24779   1.575  14.354   4.300  0.0494  0.3854 -0.0665
 7932W        W24780  11.595   1.186   0.543  0.2780  0.1353  0.0407
 7933W        W24781  14.108  14.599   4.528 -0.3120 -0.0024 -0.3179
 7934W        W24782  16.326   9.308   1.524  0.0837  0.1887 -0.1378
 7935W        W24783   3.003   1.450   3.248  0.4116 -0.2296 -0.3534
 7936W        W24784  11.949  14.699  14.820  0.0620  0.0100 -0.2002
 7937W        W24785   5.413   6.733   0.629  0.0500  0.1572 -0.0462
 7938W        W24786   8.454   6.940   2.760  0.0509 -0.0675  0.2053
 7939W        W24787  13.508   5.347  14.500  0.0805  0.1957 -0.2173
 7940W        W24788   4.055  12.557  13.434 -0.0217  0.0608  0.0677
 7941W        W24789   7.210  17.030   4.126  0.0805  0.0898  0.0071
 7942W        W24790  14.967   5.001  11.311  0.3046 -0.2165  0.3903
 7943W        W24791  16.882   5.804  15.765 -0.0713  0.0195 -0.2919
 7944W        W24792   0.749   3.184   5.941 -0.1488 -0.2009  0.1104
 7945W        W24793  14.715   3.472   0.817 -0.1009 -0.4808  0.1669
 7946W        W24794   2.381  17.959  14.042 -0.0814  0.1218 -0.2929
 7947W        W24795  15.657  12.281   1.892 -0.1643  0.0276 -0.2441
 7948W        W24796   7.591  10.386   1.343  0.2215  0.3497  0.0037
 7949W        W24797   3.932  12.981  14.203  0.2874 -0.0271 -0.1925
 7950W        W24798  11.906   5.457   4.465  0.0067  0.0051 -0.0482
 7951W        W24799   7.492   6.364  11.906  0.2968 -0.0507 -0.1278
 7952W        W24800  10.883  16.284  15.703 -0.0511 -0.1723  0.0290
 7953W        W24801   4.321  16.210   0.501  0.1733 -0.0621  0.0792
 7954W        W24802   6.315   5.794  13.029  0.2123  0.2417 -0.0551
 7955W        W24803  13.335   0.761  12.183 -0.1048  0.0680  0.0432
 7956W        W24804   1.954   1.992  11.171  0.0130  0.0168 -0.0269
 7957W        W24805  11.269   7.958   0.994  0.1415  0.0316  0.0091
 7958W        W24806   3.059   5.712   2.623 -0.1478 -0.0714  0.1085
 7959W        W24807  11.865  14.833  12.329  0.0081  0.0627 -0.0678
 7960W        W24808  17.371   1.917  14.808  0.1572 -0.2399  0.1056
 7961W        W24809   6.681  17.128   3.770 -0.1518 -0.2057  0.2153
 7962W        W24810   9.794   8.703   3.899  0.2772  0.2127 -0.2442
 7963W        W24811   4.043  10.396   4.360 -0.5237  0.1266 -0.1621
 7964W        W24812  15.169  15.860  12.252 -0.0644 -0.0184  0.0637
 7965W        W24813   8.515  14.418  11.267  0.0560 -0.2376  0.1785
 7966W        W24814   7.860   3.626  12.374  0.0571 -0.0904  0.2251
 7967W        W24815   6.102   4.599   4.667 -0.1663 -0.2592 -0.1973
 7968W        W24816   7.410   4.445   4.738  0.3781 -0.0891 -0.4418
 7969W        W24817   5.946   4.161  15.742 -0.1237  0.0332  0.0730
 7970W        W24818  11.431  15.810   0.176 -0.4716 -0.2042  0.1355
 7971W        W24819   3.103   2.997   3.961  0.2164 -0.0848  0.2420
 7972W        W24820   2.933   7.023   1.180 -0.1875 -0.0257 -0.2825
 7973W        W24821   0.202  10.599  15.433  0.2235  0.0013 -0.0029
 7974W        W24822   0.500   5.774   1.782  0.1093 -0.0009 -0.2217
 7975W        W24823   1.317  14.842  10.988 -0.1308 -0.5446 -0.1332
 7976W        W24824  17.730   3.796   3.348  0.1793 -0.1051  0.2979
 7977W        W24825  10.095   6.609   0.637  0.1167  0.1600  0.0216
 7978W        W24826   9.914   3.599   2.238 -0.1754 -0.3353 -0.1560
 7979W        W24827  13.141  14.237   4.375  0.1248 -0.0225  0.1291
 7980W        W24828   1.788   4.346   3.747  0.1909  0.3088 -0.0249
 7981W        W24829  14.923   1.842   3.385 -0.1422 -0.0293  0.2509
 7982W        W24830  15.196  13.496   4.735  0.2200  0.0848 -0.1837
 7983W        W24831   7.623  10.406   3.175  0.1283  0.2590 -0.1814
 7984W        W24832  14.473  14.749   0.724  0.2630  0.2377 -0.0008
 7985W        W24833  17.542   8.051  16.032 -0.0981 -0.3358 -0.0064
 7986W        W24834  13.372   8.695  13.576  0.0141 -0.0168  0.0579
 7987W        W24835   2.896  11.040  15.277 -0.0116  0.0160 -0.1686
 7988W        W24836   8.610   8.535   5.711 -0.4623 -0.0841 -0.1194
 7989W        W24837   0.090  13.653   3.461 -0.2796  0.1253 -0.0868
 7990W        W24838   5.096   3.205  14.238 -0.1606  0.2611  0.2737
 7991W        W24839  18.057   4.228  13.156  0.1014 -0.0202  0.1556
 7992W        W24840   0.423   6.109   1.249  0.1366  0.0172 -0.1927
 7993W        W24841  12.146  12.015   4.491 -0.1110 -0.1995 -0.0178
 7994W        W24842   8.945   1.647  16.005  0.2649  0.1053 -0.0303
 7995W        W24843  10.963  16.970  12.408  0.2052  0.1539 -0.1455
 7996W        W24844  15.883   7.113   4.251 -0.4981 -0.0482 -0.3447
 7997W        W24845   6.371  10.456  14.280 -0.0479  0.3091 -0.0580
 7998W        W24846  11.809   7.575   5.053  0.0038  0.2219 -0.1395
 7999W        W24847  17.292  15.983   2.509 -0.2527 -0.1780 -0.0771
 8000W        W24848  10.467   7.451   0.152  0.1110  0.1108 -0.1033
 8001W        W24849   5.224  17.333  14.062  0.0760  0.0646 -0.0205
 8002W        W24850  14.806   6.696  14.179 -0.2333  0.2714  0.0204
 8003W        W24851   2.837   1.154   0.599  0.1149  0.0574  0.1552
 8004W        W24852   0.431  10.001   3.241  0.3224 -0.0177 -0.0824
 8005W        W24853   3.231   4.216   4.743 -0.0023  0.2424  0.0278
 8006W        W24854   1.598  17.637  15.520 -0.0039 -0.4640  0.3163
 8007W        W24855   6.824  12.996   5.005  0.1098 -0.0953 -0.2574
 8008W        W24856   2.638   3.257   1.292 -0.1124  0.1472  0.2441
 8009W        W24857   8.862   8.840  13.016  0.1657 -0.2077 -0.2938
 8010W        W24858   7.214   6.909   5.146  0.0690  0.1932 -0.2906
 8011W        W24859   2.983   2.517   4.008  0.1561 -0.0033 -0.4224
 8012W        W24860   1.379  14.437  11.449 -0.3955  0.0680  0.3188
 8013W        W24861  10.370   9.736   2.771 -0.0673  0.0039 -0.2019
 8014W        W24862  12.117   5.280  14.188 -0.0177 -0.1044  0.3342
 8015W        W24863  15.755   0.625  10.625 -0.3969 -0.0824  0.2223
 8016W        W24864  13.761  11.257   1.819  0.2019  0.2018  0.0487
 8017W        W24865   2.914   3.169  11.222 -0.2627  0.4620  0.4359
 8018W        W24866   1.100   9.139  13.718  0.0756 -0.0860  0.0115
 8019W        W24867   3.879  12.292   0.235  0.1910  0.1031  0.0097
 8020W        W24868   6.382  17.081  13.019  0.2528 -0.0057 -0.1245
 8021W        W24869  15.857   9.083   1.515 -0.0079 -0.1300  0.3463
 8022W        W24870   8.272   2.413  15.152 -0.1022 -0.6002  0.1081
 8023W        W24871   5.668   1.763  15.966  0.2035  0.0332 -0.1843
 8024W        W24872  16.015   3.665  14.922 -0.1776 -0.1253 -0.0278
 8025W        W24873  17.268  13.084  10.493 -0.3424 -0.1771 -0.2877
 8026W        W24874   4.293   6.889   1.713 -0.3470 -0.1493 -0.1448
 8027W        W24875   3.639  10.960  15.326  0.1870 -0.1354  0.1938
 8028W        W24876  16.356  10.102  13.068 -0.0922 -0.0502  0.1683
 8029W        W24877   4.856   5.277   0.041 -0.2404 -0.2188  0.0515
 8030W        W24878  10.943   7.267   0.314 -0.0160 -0.0971  0.0706
 8031W        W24879   9.737  13.049  15.310 -0.1595 -0.0999 -0.1816
 8032W        W24880   2.539  10.015   0.128 -0.2477 -0.0079 -0.0353
 8033W        W24881   0.231   6.508   1.391  0.0084 -0.0615 -0.1823
 8034W        W24882   2.073   0.536   2.662  0.0573  0.3073 -0.1321
 8035W        W24883  16.658   1.961  10.568  0.0017  0.1005  0.1429
 8036W        W24884  17.616   4.702   6.038 -0.2176  0.0149 -0.1762
 8037W        W24885   4.977   0.202   5.897  0.1937 -0.2367  0.0164
 8038W        W24886   8.633   5.501  15.727  0.0606 -0.1851 -0.3395
 8039W        W24887   6.341  15.465   1.504 -0.1441  0.1265 -0.2748
 8040W        W24888   5.180   1.699  10.954  0.1180 -0.1356 -0.0653
 8041W        W24889   9.015   5.686   3.236  0.2682 -0.2019 -0.2774
 8042W        W24890   9.656   6.383   4.545 -0.0313 -0.3103  0.2387
 8043W        W24891  17.271   3.208  12.203  0.1156  0.2345  0.1085
 8044W        W24892  16.856   2.945   2.036  0.1196  0.0262  0.1302
 8045W        W24893   0.120  16.104   0.934  0.1645  0.1194  0.0981
 8046W        W24894   0.386  17.715  11.410  0.1361  0.1088 -0.3875
 8047W        W24895  13.046  17.150  11.982  0.0800  0.1892  0.2566
 8048W        W24896   1.129  12.966  11.462  0.0712 -0.2065 -0.0363
 8049W        W24897  17.035   0.093   0.465  0.0828  0.0369 -0.2654
 8050W        W24898  15.613  17.885   3.519  0.2229 -0.0763  0.4310
 8051W        W24899   1.577   4.502   1.236 -0.0324  0.1916 -0.1337
 8052W        W24900  12.476   5.409  11.755 -0.1664 -0.0068  0.0212
 8053W        W24901   8.545  16.892  12.391 -0.0498 -0.1113  0.1628
 8054W        W24902   4.457   6.270  11.428 -0.2498  0.1932 -0.1918
 8055W        W24903   6.898  12.247  14.962 -0.3007 -0.0974 -0.0211
 8056W        W24904   5.701   4.836   4.514  0.0401  0.3634  0.0377
 8057W        W24905   8.256   6.427   2.923 -0.0743 -0.1937 -0.0559
 8058W        W24906  16.611   7.426  14.891  0.0317  0.3163 -0.0964
 8059W        W24907   9.355   2.430   0.464  0.0715  0.3534  0.0940
 8060W        W24908  16.561  16.123  12.242  0.2550 -0.1156 -0.1796
 8061W        W24909  16.070  15.909  14.642 -0.1732 -0.1399 -0.1004
 8062W        W24910   8.444  11.292  11.975 -0.1136 -0.1443  0.1538
 8063W        W24911   2.310   2.219   0.065  0.0011 -0.2753 -0.0702
 8064W        W24912  17.413   2.236  15.229 -0.0414  0.0407  0.2515
 8065W        W24913  15.086  15.881   4.403 -0.4337 -0.3211 -0.4018
 8066W        W24914  14.436  11.925  14.887 -0.1088  0.2591  0.2283
 8067W        W24915   4.981   7.324  14.046  0.1295  0.2958 -0.3818
 8068W        W24916  14.131  15.283  12.361  0.1952 -0.1507 -0.0750
 8069W        W24917  10.998  14.481   4.503  0.0605 -0.0487  0.0003
 8070W        W24918   1.367   0.161  10.836 -0.1951  0.1387 -0.0441
 8071W        W24919  17.223   8.287   3.065 -0.1807  0.1829  0.4513
 8072W        W24920  11.549  16.206  16.068 -0.2616  0.0245  0.0238
 8073W        W24921  10.598   8.865   4.112  0.0791 -0.0685 -0.1892
 8074W        W24922   7.427  16.705   1.458  0.2292  0.1504  0.1097
 8075W        W24923  11.949   5.037  11.744  0.3424  0.1156  0.0416
 8076W        W24924   6.449   9.170   1.415  0.1101  0.1871 -0.1162
 8077W        W24925  13.309  12.280  15.977 -0.1370  0.0962 -0.1109
 8078W        W24926   0.377  15.747  11.271  0.0353  0.1751 -0.3238
 8079W        W24927   1.575   6.736  15.591  0.0387 -0.2036 -0.2748
 8080W        W24928  13.147  16.625   1.512 -0.0677  0.1870 -0.1463
 8081W        W24929   9.380  18.143   4.432  0.1332 -0.1675  0.0139
 8082W        W24930   7.435  10.082  15.586  0.2264  0.0121 -0.1171
 8083W        W24931   2.011   5.770   5.118 -0.0450  0.1315 -0.0858
 8084W        W24932   1.234   2.288   1.498  0.1943  0.1209 -0.2133
 8085W        W24933  10.212  14.374  14.749  0.0738 -0.1832 -0.0768
 8086W        W24934  12.455   5.251  15.355  0.0575 -0.5301 -0.0375
 8087W        W24935   4.106  14.629   3.146  0.2678 -0.2195 -0.2581
 8088W        W24936   0.798   6.429   2.904 -0.1700  0.0244 -0.1684
 8089W        W24937  16.973   0.977  15.548 -0.1581  0.0172 -0.2036
 8090W        W24938   5.609  12.540   0.694  0.3099 -0.2542  0.0686
 8091W        W24939  14.699   5.599   0.228  0.0380 -0.1891 -0.1915
 8092W        W24940   4.485  17.307  14.249  0.0834 -0.0532  0.0345
 8093W        W24941   0.693  10.660  15.702  0.1735  0.1928  0.1363
 8094W        W24942  17.829   6.560  13.329  0.2306 -0.0779  0.0144
 8095W        W24943   9.732  15.508  12.268  0.1554  0.1391 -0.2752
 8096W        W24944  14.433  18.143   2.845  0.3103  0.0637 -0.0027
 8097W        W24945   5.485   6.028   1.973 -0.1991  0.0080 -0.3739
 8098W        W24946   7.956  17.874  10.937 -0.0824  0.2341 -0.0427
 8099W        W24947   0.469   9.467   0.168  0.0514 -0.0994  0.1356
 8100W        W24948   0.397   2.576   2.308  0.0640 -0.4232 -0.1557
 8101W        W24949   6.211   6.745  12.096  0.0855  0.0100  0.3396
 8102W        W24950   4.599  16.448   1.641 -0.0904 -0.2224  0.1816
 8103W        W24951   2.059  14.493  12.319  0.0215  0.1797  0.1277
 8104W        W24952   5.690  14.873   4.974 -0.1033 -0.1872  0.0045
 8105W        W24953   7.825   1.536  16.102 -0.3004 -0.1457 -0.1883
 8106W        W24954  14.769   1.559   3.004 -0.2579 -0.0804  0.1621
 8107W        W24955   2.928   6.585  14.050 -0.0232 -0.0420  0.1074
 8108W        W24956  15.570   1.685  14.462  0.0528  0.1124 -0.2780
 8109W        W24957   0.225  14.377   0.002  0.1825 -0.2110 -0.0155
 8110W        W24958  16.321  16.849  15.732 -0.0179  0.1073  0.1546
 8111W        W24959   6.520  17.019   5.193  0.1666 -0.3862  0.0208
 8112W        W24960  13.412   0.029   1.691  0.1019 -0.2926 -0.0753
 8113W        W24961  16.297   5.061   4.003 -0.2331 -0.1507 -0.0735
 8114W        W24962  13.569   7.207  12.556 -0.1255 -0.1576  0.1011
 8115W        W24963   8.582   6.198   3.925  0.1003 -0.1117 -0.0166
 8116W        W24964   9.914   5.935  12.838 -0.1626 -0.1727 -0.0951
 8117W        W24965   4.661   1.486   1.750 -0.0237 -0.0708 -0.2172
 8118W        W24966   0.083   5.721  12.903 -0.1172 -0.1472 -0.0772
 8119W        W24967   6.475   2.950   4.993  0.2219 -0.0344  0.0200
 8120W        W24968  17.488   5.144  15.665  0.2746 -0.2657  0.0098
 8121W        W24969   5.404  12.185   0.935 -0.1005  0.1406  0.1745
 8122W        W24970   7.423   9.800  14.041  0.0204 -0.0976  0.2749
 8123W        W24971  12.358   7.058   0.096  0.0504  0.1480  0.0274
 8124W        W24972  11.677  17.039   2.635  0.2326  0.1056  0.0177
 8125W        W24973  16.710   6.664   2.471  0.1705 -0.3164  0.0387
 8126W        W24974   6.468   7.018  11.712 -0.0323  0.0011  0.1730
 8127W        W24975  16.986  10.163  12.376  0.1746  0.2495 -0.2334
 8128W        W24976   5.645  13.427  11.659  0.0234  0.1643  0.0425
 8129W        W24977   5.180   9.959  12.909 -0.0920 -0.2644  0.1968
 8130W        W24978  14.616   6.989   4.728  0.3327  0.0906 -0.2305
 8131W        W24979   7.026  14.807  13.854 -0.1569 -0.1746  0.1040
 8132W        W24980   3.596  14.427  15.161  0.1837  0.3298  0.2381
 8133W        W24981  10.958   2.836   3.685  0.0942 -0.0006  0.0785
 8134W        W24982   2.723   0.170  14.146 -0.0575 -0.2857  0.0833
 8135W        W24983   3.580   9.518  12.748  0.0654 -0.1133  0.0360
 8136W        W24984   4.290   0.037  12.929 -0.1326  0.0133 -0.2308
 8137W        W24985  10.659  15.979   0.963 -0.0530  0.2868 -0.1020
 8138W        W24986   9.326   3.670  15.348  0.2098  0.0920 -0.1806
 8139W        W24987   9.003  10.855   0.221  0.0530 -0.3397  0.1282
 8140W        W24988   1.938   1.741   2.180 -0.0942  0.1472  0.0556
 8141W        W24989  14.682  15.514  13.656 -0.2755 -0.0536  0.0959
 8142W        W24990  11.709   8.342   2.536  0.0236 -0.2045  0.0144
 8143W        W24991   8.631   7.509   3.572  0.3444 -0.2997 -0.4519
 8144W        W24992   4.179   4.388  15.879 -0.2225 -0.0125  0.4020
 8145W        W24993  10.950  17.614   1.820 -0.2026  0.2319 -0.2068
 8146W        W24994  15.197   9.062   2.149 -0.0408  0.3703  0.3721
 8147W        W24995  16.265  17.732  11.249 -0.2013 -0.0423 -0.1358
 8148W        W24996   1.304   9.214  11.816  0.0822  0.1415 -0.0158
 8149W        W24997  16.003   3.415  11.430 -0.0725 -0.3956  0.1214
 8150W        W24998   6.439   7.762  11.284  0.1068  0.3125  0.0989
 8151W        W24999  18.039   2.955   1.327 -0.3189  0.2674 -0.3731
 8152W        W25000  10.174   2.233  16.024 -0.1811 -0.2985  0.3931
 8153W        W25001  12.685   2.217  11.298 -0.0773  0.1111 -0.1187
 8154W        W25002   7.323  16.281   2.897  0.0950  0.1104  0.2581
 8155W        W25003   9.834   9.362   4.073 -0.2044 -0.0508 -0.1744
 8156W        W25004   2.020   2.553  12.453  0.0085  0.3273 -0.0743
 8157W        W25005   3.072  13.922  13.985  0.2125  0.1101 -0.2556
 8158W        W25006  16.492  16.102   1.683 -0.2802 -0.0489 -0.0138
 8159W        W25007   1.771  15.668   4.793  0.2565 -0.0282  0.3506
 8160W        W25008   6.093  18.033  12.792 -0.2683  0.4948  0.2869
 8161W        W25009  11.279   9.130  13.923  0.1338  0.1710  0.0369
 8162W        W25010   7.570  14.809  15.863 -0.2363  0.0074  0.1072
 8163W        W25011   0.190  16.998  12.340 -0.1440 -0.1690 -0.0854
 8164W        W25012   0.020   4.498  10.461  0.1907 -0.0671 -0.3436
 8165W        W25013  16.423   3.665  11.502  0.1701 -0.1449 -0.0973
 8166W        W25014  11.205  14.106  14.193 -0.2404  0.0040 -0.0020
 8167W        W25015   2.649   2.466  15.723  0.2253 -0.0023 -0.1242
 8168W        W25016   1.642  10.036   3.870  0.1067  0.0361 -0.2012
 8169W        W25017   0.978  11.907  13.278 -0.0665  0.0947 -0.0186
 8170W        W25018   9.040  14.986   0.125 -0.3213 -0.0346 -0.1636
 8171W        W25019   1.650   9.277   0.677 -0.0956 -0.0248  0.0269
 8172W        W25020  12.866   7.614  14.085 -0.0630  0.1320  0.1855
 8173W        W25021  12.626   6.739   2.712 -0.3643  0.0055 -0.0015
 8174W        W25022   0.603  18.130   4.067  0.1767  0.0213 -0.0746
 8175W        W25023  17.134  11.768  15.250  0.1175  0.0262  0.2107
 8176W        W25024   1.325   3.357  15.880  0.4462  0.2769  0.1378
 8177W        W25025  14.824   5.299   1.524 -0.1711  0.0843  0.0473
 8178W        W25026  12.856   5.024  13.556 -0.0119  0.1509 -0.2438
 8179W        W25027  16.580  17.681  15.412 -0.0128 -0.1822  0.0763
 8180W        W25028  11.819   8.394   5.963  0.2565  0.1660 -0.0952
 8181W        W25029   4.723   0.365   5.011 -0.4650  0.1459  0.0781
 8182W        W25030  15.999   2.014  12.408 -0.2009  0.2944  0.1090
 8183W        W25031  17.417  14.362  11.161  0.0602 -0.1884 -0.1815
 8184W        W25032  16.675  10.312  14.764  0.2723 -0.3828  0.1721
 8185W        W25033  11.333  13.180   2.307  0.1056  0.1707  0.0265
 8186W        W25034   3.628  12.810  13.553 -0.3099  0.0756 -0.0641
 8187W        W25035  15.300  14.043  12.899  0.0167  0.3506  0.0139
 8188W        W25036   5.491  15.769  14.050 -0.1878  0.0467 -0.1721
 8189W        W25037   2.977  10.359  12.029  0.2047  0.2208 -0.3228
 8190W        W25038  12.614   9.133  11.162  0.1647  0.0512  0.3201
 8191W        W25039  12.751   1.177   0.051 -0.2033 -0.0613 -0.0806
 8192W        W25040  10.875  12.140   1.465  0.2381  0.0811 -0.0945
 8193W        W25041  13.240   1.769  10.261 -0.1583  0.0498  0.1912
 8194W        W25042   6.925   4.508  11.953 -0.1311 -0.0054 -0.0020
 8195W        W25043   6.579   0.589  10.498  0.1121  0.0385 -0.0417
 8196W        W25044  14.421  11.368   4.786 -0.2419  0.1998 -0.1031
 8197W        W25045  15.751  12.887  14.981  0.0719  0.1999 -0.0182
 8198W        W25046   5.106   9.145   4.541  0.0765 -0.2955  0.3635
 8199W        W25047   6.813  10.135  13.575 -0.2076 -0.0991 -0.1772
 8200W        W25048  17.117  16.868   1.749  0.0378  0.2997 -0.0092
 8201W        W25049   8.449   9.339  15.450  0.1995  0.0467  0.0663
 8202W        W25050  15.545  16.047   1.317  0.1248 -0.0002  0.4063
 8203W        W25051   6.081   9.501   4.589 -0.0985  0.0206 -0.1046
 8204W        W25052  17.787  18.062  13.207  0.2124  0.0535 -0.0196
 8205W        W25053   2.647  17.691   3.534 -0.4609  0.1100  0.1160
 8206W        W25054  18.002   3.699  14.638 -0.2426 -0.0828  0.0779
 8207W        W25055  14.025   6.335  14.207  0.0347 -0.1420 -0.0023
 8208W        W25056   6.092  16.417  15.974  0.1485 -0.0185  0.1148
 8209W        W25057  15.526   0.628   3.512 -0.2643  0.1249 -0.1528
 8210W        W25058   5.981  10.386  15.061 -0.1529 -0.0596 -0.0812
 8211W        W25059  11.128   0.206   2.660  0.1075  0.2253  0.0760
 8212W        W25060  11.687   1.236  14.358 -0.3646 -0.1502  0.0888
 8213W        W25061   8.161  12.260  13.266  0.1430 -0.1482 -0.2490
 8214W        W25062  14.158  10.288   4.045 -0.1945 -0.2585  0.0288
 8215W        W25063   8.769   8.503   5.158  0.0888  0.1384 -0.1271
 8216W        W25064   0.241   9.564  12.312 -0.1467  0.1438  0.0132
 8217W        W25065   4.829  12.090  13.248 -0.2388 -0.1648 -0.1363
 8218W        W25066   6.037   4.589   3.749 -0.0584 -0.2783  0.0160
 8219W        W25067   1.837  17.642   0.850 -0.0299 -0.0507 -0.0714
 8220W        W25068   4.108   8.147  11.303  0.0656  0.2501  0.0233
 8221W        W25069   7.800   3.455  14.568  0.1066 -0.0178 -0.0053
 8222W        W25070  16.033  11.894  14.916  0.0280  0.1961 -0.0396
 8223W        W25071   5.247   9.007  12.394  0.0605 -0.0232 -0.1837
 8224W        W25072  17.708  17.457  13.893 -0.0993  0.0515  0.0642
 8225W        W25073  15.967   3.709  11.977  0.2863  0.3079  0.0057
 8226W        W25074  16.209  12.534  12.854  0.1095  0.0136 -0.0071
 8227W        W25075   6.924   7.679  11.987  0.1694 -0.1849  0.1140
 8228W        W25076  10.637   4.455   1.863 -0.0556  0.0369  0.2924
 8229W        W25077   5.033  12.694  15.482  0.1163  0.0972 -0.0308
 8230W        W25078  10.446   5.605   4.597  0.0307  0.1551  0.2159
 8231W        W25079   9.545   3.205  10.711  0.1369  0.0154  0.3172
 8232W        W25080   4.338   4.332  13.931  0.2588 -0.0439 -0.0203
 8233W        W25081  10.726   6.988  16.088  0.1542  0.2641 -0.3260
 8234W        W25082   6.422  12.223   0.266  0.3182  0.0949 -0.2905
 8235W        W25083  12.387   4.701  13.794 -0.0214  0.0400  0.1435
 8236W        W25084   6.774  15.121   1.104 -0.2783  0.3258  0.2052
 8237W        W25085   2.818  17.212   2.791  0.0222  0.1887  0.1148
 8238W        W25086   1.725   3.731  14.128  0.2274 -0.0250  0.1657
 8239W        W25087   6.952   3.633  13.391  0.1333 -0.3297 -0.0711
 8240W        W25088  16.356   3.649  14.564  0.0287  0.2073  0.0675
 8241W        W25089  17.800  12.956   5.225 -0.0468  0.0906 -0.0118
 8242W        W25090  15.584  11.849  13.877 -0.0121 -0.0884 -0.1482
 8243W        W25091  13.225  17.601  15.658 -0.1119  0.1265  0.0179
 8244W        W25092  11.445   7.019  13.737 -0.0639 -0.0225  0.0287
 8245W        W25093   8.542   6.652   0.415 -0.1232 -0.0399 -0.0181
 8246W        W25094   8.537  17.749   0.338  0.2853  0.2202 -0.1572
 8247W        W25095  10.779   0.910   1.841  0.1182 -0.0421 -0.1019
 8248W        W25096  16.929  17.919   0.760 -0.2764 -0.3611  0.1920
 8249W        W25097   3.056  12.897  11.496  0.3351  0.2461 -0.1842
 8250W        W25098  16.409  17.923   0.835 -0.0253 -0.1702 -0.4934
 8251W        W25099   4.512   3.412  13.875  0.2560 -0.1012  0.1382
 8252W        W25100   5.651   9.482  14.720 -0.2698 -0.1149 -0.1406
 8253W        W25101   7.349   1.088  14.538  0.1959  0.0340 -0.2304
 8254W        W25102  17.068   7.360   1.539  0.0883 -0.1920 -0.2615
 8255W        W25103  17.077  10.430  11.765 -0.0562  0.2624 -0.0208
 8256W        W25104  10.266   2.470   0.860  0.0818 -0.0231  0.1209
 8257W        W25105  17.681   1.285   3.887 -0.1955  0.0278  0.0947
 8258W        W25106   2.893  12.691  11.087 -0.0280  0.0091  0.1752
 8259W        W25107  17.558   7.447  15.080 -0.1826 -0.0193 -0.1395
 8260W        W25108  17.686   1.383  14.811  0.0295 -0.0364  0.2233
 8261W        W25109   5.077  16.651  14.245  0.2164  0.0700  0.2215
 8262W        W25110  12.148   9.059   5.528  0.1057  0.2345  0.2643
 8263W        W25111   0.807  13.348  15.137  0.0468 -0.0611  0.0391
 8264W        W25112  11.742   9.214   3.774  0.1658 -0.0778  0.3295
 8265W        W25113  11.443   0.501   4.439 -0.0659  0.0101 -0.0923
 8266W        W25114  10.902  17.920  16.057  0.0443  0.1697  0.0745
 8267W        W25115  17.830   4.918   2.821  0.2440 -0.2109 -0.0723
 8268W        W25116   6.790  12.119  13.102  0.0923  0.2621  0.0842
 8269W        W25117   7.103   3.052  14.961  0.0615  0.2205  0.0334
 8270W        W25118   4.732   7.917  13.659 -0.1170 -0.0528 -0.0313
 8271W        W25119  10.781  13.600  13.027  0.1846  0.3416 -0.1909
 8272W        W25120  15.788  16.011  12.849  0.0355  0.1547  0.1435
 8273W        W25121  10.172   5.283   3.880  0.2614  0.1219 -0.2684
 8274W        W25122   0.311   5.193   0.594 -0.1122  0.0437 -0.2058
 8275W        W25123  12.492  11.199   4.746 -0.2541  0.1047  0.0088
 8276W        W25124   9.463   3.598   2.531  0.0888  0.2611 -0.4194
 8277W        W25125   8.011   2.262   2.110 -0.2484 -0.2705 -0.0232
 8278W        W25126   2.664   7.752   4.469  0.0395 -0.0658 -0.1841
 8279W        W25127  10.369  15.302   1.358  0.0903  0.1396  0.2113
 8280W        W25128  10.604  10.046   1.557  0.0615 -0.1482 -0.1290
 8281W        W25129  12.273   6.762  12.720 -0.0944 -0.2619  0.1060
 8282W        W25130   2.549  12.886  11.432  0.0248 -0.2947  0.2617
 8283W        W25131  17.809   0.282  11.416 -0.1426  0.0012 -0.1532
 8284W        W25132   5.255   9.317   5.023 -0.4974  0.0447 -0.3089
 8285W        W25133   8.211   3.526   2.208  0.1430 -0.0421 -0.0574
 8286W        W25134  12.091  17.692   5.292 -0.2033 -0.2262 -0.2507
 8287W        W25135   0.321  18.184   2.938 -0.2225 -0.0807 -0.0369
 8288W        W25136  13.787  13.215  15.900 -0.0381  0.3717  0.0391
 8289W        W25137   0.437  11.206  12.858 -0.1377 -0.4489 -0.1912
 8290W        W25138  10.491   9.340  14.433 -0.1654  0.0423 -0.2126
 8291W        W25139   3.495   2.839  15.243  0.1997  0.3969 -0.0453
 8292W        W25140  15.021  10.684   2.815 -0.1265 -0.3255  0.1951
 8293W        W25141   4.619   9.576   1.626  0.1281  0.2556 -0.1742
 8294W        W25142   9.425   0.445  13.515  0.0476  0.2664  0.0527
 8295W        W25143   4.463   8.783  15.937  0.2149 -0.0345  0.0196
 8296W        W25144  11.269  12.825  12.902  0.2277 -0.2235  0.3139
 8297W        W25145   0.685  16.966  12.581 -0.1138 -0.2715  0.0471
 8298W        W25146   8.279  11.020  15.059  0.0425 -0.2975  0.2905
 8299W        W25147  17.433   9.582   2.093 -0.0426  0.2918 -0.1894
 8300W        W25148   9.224  10.734   4.715 -0.1712 -0.1652 -0.0704
 8301W        W25149   0.366  12.603  14.216 -0.0669 -0.0379 -0.1031
 8302W        W25150  14.098   9.413   0.171  0.0017  0.0632 -0.0015
 8303W        W25151  14.643   7.515   2.418 -0.0215  0.0593 -0.1544
 8304W        W25152  11.557   4.701  13.056  0.1171 -0.1054 -0.2051
 8305W        W25153  13.043   5.645   2.527  0.0846 -0.2043  0.2697
 8306W        W25154   7.518   2.903  15.442  0.1421  0.2028 -0.1833
 8307W        W25155  15.629  17.352   0.368 -0.0895  0.3948  0.2709
 8308W        W25156   1.743  10.472   4.175  0.1516 -0.2485  0.2497
 8309W        W25157   4.346   0.140  10.110 -0.1000 -0.2913  0.1928
 8310W        W25158   7.997  12.220  11.711  0.2895  0.3396 -0.0613
 8311W        W25159   8.196   9.189  14.086 -0.1131  0.1534 -0.0364
 8312W        W25160  17.431  15.363  12.201 -0.2374  0.0888  0.1108
 8313W        W25161   4.139  10.902  10.550 -0.0308 -0.0303  0.2068
 8314W        W25162   0.734  17.820  12.755  0.0156  0.3691 -0.2170
 8315W        W25163  16.934  13.722   3.948  0.1892 -0.1375 -0.1842
 8316W        W25164  17.178  12.842   4.106 -0.1738  0.0949 -0.0312
 8317W        W25165   1.137   1.302   1.881  0.0073 -0.0420  0.1007
 8318W        W25166   3.043   1.396  14.062  0.1820 -0.2059 -0.1667
 8319W        W25167   4.023   7.488   2.424 -0.1622  0.0248  0.3937
 8320W        W25168  17.152   4.277   1.754 -0.0375  0.1589 -0.0484
 8321W        W25169  13.862   1.586   2.568 -0.1243  0.1599  0.0847
 8322W        W25170   3.487   1.658  14.978  0.1018  0.1119 -0.1156
 8323W        W25171   3.693   5.033   2.297 -0.0299 -0.0245  0.1689
 8324W        W25172  13.852   0.115   0.344 -0.0122  0.1895  0.2368
 8325W        W25173   2.786  17.316   1.856 -0.2379 -0.0253 -0.0180
 8326W        W25174   1.386  17.663   4.187 -0.0513  0.0586 -0.1443
 8327W        W25175   6.219  11.030   5.119  0.1548  0.3474  0.1184
 8328W        W25176  17.135   7.246  11.978  0.0310 -0.2521 -0.1728
 8329W        W25177  16.911  17.120  11.714 -0.1298 -0.0558 -0.0363
 8330W        W25178   5.569  12.213  13.209 -0.1644 -0.0331  0.2955
 8331W        W25179  13.325   3.612   1.425 -0.1282  0.0684  0.1395
 8332W        W25180   5.313   1.518   4.647  0.2645  0.2135  0.0117
 8333W        W25181  15.303  14.005   5.099  0.2019  0.0180 -0.1603
 8334W        W25182   0.428  17.040  15.759 -0.3422  0.0035 -0.2826
 8335W        W25183  15.413  14.596   2.806 -0.2074 -0.1061  0.1627
 8336W        W25184   7.097   8.137  12.095  0.1219  0.1499  0.2511
 8337W        W25185   0.247   3.233  14.458 -0.1216  0.1229 -0.2261
 8338W        W25186  15.092   7.521   0.127 -0.2462  0.1519 -0.4634
 8339W        W25187   1.904  11.299  11.001 -0.1174 -0.1402  0.1357
 8340W        W25188   8.783   2.349   3.062 -0.0986  0.0703 -0.0827
 8341W        W25189   2.334  15.427  13.579 -0.3416  0.0297  0.1370
 8342W        W25190   2.221  14.430   2.157 -0.1413 -0.0374  0.1028
 8343W        W25191   1.178  17.603   3.127 -0.0267  0.0991 -0.1827
 8344W        W25192   1.193   8.732   4.144 -0.1117 -0.1186 -0.0985
 8345W        W25193   2.066   4.398   2.892 -0.3033 -0.2043  0.0400
 8346W        W25194   3.349   7.025   0.172 -0.0474 -0.1176  0.0385
 8347W        W25195   1.263  11.796   1.916 -0.1036  0.0042 -0.0648
 8348W        W25196   4.651  15.453  13.750  0.2728 -0.1402 -0.1005
 8349W        W25197  10.121   0.176   1.146 -0.1014  0.3542 -0.2048
 8350W        W25198  15.253   9.483  13.671  0.0051 -0.1714  0.1061
 8351W        W25199   3.220  10.665  15.343 -0.0059 -0.0731 -0.0649
 8352W        W25200   0.218  11.643  11.658  0.0192 -0.2524  0.2801
 8353W        W25201   8.053  12.106   4.375  0.1041 -0.0663 -0.0145
 8354W        W25202  14.594   9.204   4.058 -0.0126 -0.0737  0.0632
 8355W        W25203   5.942   8.591  14.897  0.2199  0.1957 -0.1331
 8356W        W25204   5.184   7.998   1.492 -0.0645 -0.0965 -0.0461
 8357W        W25205   4.383  17.914   3.127 -0.0690  0.0489  0.3245
 8358W        W25206  11.691  17.471   4.374 -0.3538  0.4565  0.1570
 8359W        W25207  12.157  11.418   5.698  0.1222 -0.0795 -0.0325
 8360W        W25208   5.881  15.619   1.451 -0.2638 -0.1553  0.0290
 8361W        W25209   9.813  17.353  12.407 -0.0252 -0.2851 -0.0267
 8362W        W25210   7.412   4.749   5.159  0.2350 -0.1314  0.2008
 8363W        W25211   0.091   6.952   3.508  0.0064 -0.0967  0.0358
 8364W        W25212   7.126   4.428  13.867 -0.0108 -0.1035  0.0779
 8365W        W25213   2.008  17.444  12.255  0.2734  0.0323  0.2523
 8366W        W25214   7.360   2.290  13.692 -0.1614  0.2163 -0.0960
 8367W        W25215  16.787  13.647  13.315 -0.0476  0.1742 -0.2954
 8368W        W25216  11.674   0.298   1.366  0.3112 -0.1015 -0.1198
 8369W        W25217  13.419   7.397   3.767 -0.2750 -0.0298  0.2421
 8370W        W25218  12.470   6.307   5.218 -0.1248  0.0602  0.2587
 8371W        W25219   3.537  18.201  11.818  0.0870  0.0326  0.0804
 8372W        W25220  15.559   3.080  15.595  0.0482  0.0568 -0.6338
 8373W        W25221   6.237   4.689   5.902  0.1887  0.0610  0.0857
 8374W        W25222   3.485  14.910   1.237  0.0339  0.1641  0.1976
 8375W        W25223   6.834  15.864  16.121  0.1178  0.0628  0.3961
 8376W        W25224   0.548  15.441  15.074 -0.2984  0.0863  0.0124
 8377W        W25225   1.487   5.223   3.812  0.1410  0.3432  0.0093
 8378W        W25226  17.111  12.261  14.114  0.2634 -0.0150 -0.1800
 8379W        W25227   6.942   5.348  14.919 -0.2173  0.4313  0.1453
 8380W        W25228  13.815   8.139   2.549  0.0603 -0.0666  0.1160
 8381W        W25229   8.893  16.949  13.958 -0.0366  0.1506 -0.0203
 8382W        W25230  12.899  14.582  11.152  0.3497  0.0689  0.1541
 8383W        W25231  11.382   7.384  14.582 -0.0333  0.1471 -0.2542
 8384W        W25232   0.841  15.787  12.054 -0.0623 -0.0176 -0.0174
 8385W        W25233  11.952  10.651   4.047  0.1844 -0.2650  0.1743
 8386W        W25234  10.581   9.826   3.340 -0.1714  0.2521 -0.1961
 8387W        W25235  12.156  17.982   4.493 -0.0313  0.4580  0.0070
 8388W        W25236   7.194  11.028  14.255  0.1685  0.2012  0.0877
 8389W        W25237  17.914   3.248  11.600  0.0909  0.3540  0.1795
 8390W        W25238   2.367   0.090   1.949 -0.0856  0.3675  0.2061
 8391W        W25239  13.010  10.116   3.136 -0.0441  0.2906 -0.3549
 8392W        W25240   8.148   0.725   0.341  0.0774  0.2621 -0.1660
 8393W        W25241  17.885  10.842  14.241 -0.1505  0.2483  0.0557
 8394W        W25242  13.302   2.697   4.148 -0.2170 -0.2345  0.0906
 8395W        W25243  11.028   1.348   3.878 -0.2405  0.1198 -0.1135
 8396W        W25244  13.808   7.344   4.133 -0.1191 -0.3491  0.1115
 8397W        W25245   8.657   9.494   1.167 -0.0959  0.0572  0.2777
 8398W        W25246  14.915   7.773   4.434 -0.0514  0.1263  0.1866
 8399W        W25247  12.567   8.445  15.676 -0.1920  0.0391  0.0446
 8400W        W25248   4.320  13.421  14.490 -0.2087 -0.0981  0.0885
 8401W        W25249  15.487   5.365   3.353  0.0276  0.0182  0.0125
 8402W        W25250   0.284  14.602  14.540  0.1540  0.0595 -0.1229
 8403W        W25251  12.174   3.184  10.894  0.2193  0.0479 -0.0183
 8404W        W25252  15.668   3.883  12.368 -0.2451  0.0264  0.0358
 8405W        W25253  13.688   3.134  15.641  0.0099  0.0648 -0.2279
 8406W        W25254   2.124   4.685   0.464  0.1677  0.0480 -0.0930
 8407W        W25255   4.871   1.261  12.445 -0.1599 -0.1517  0.1614
 8408W        W25256   3.537   3.422   3.302 -0.1957  0.1567 -0.0774
 8409W        W25257  10.687  15.139  12.094  0.1570  0.0428 -0.2731
 8410W        W25258   2.864   9.571   4.840 -0.1281 -0.2587  0.1148
 8411W        W25259   2.718   7.243  14.387 -0.0252  0.0304 -0.0090
 8412W        W25260   7.760  12.746  10.509  0.0404  0.0075 -0.0407
 8413W        W25261  11.219  11.923  13.094  0.4744 -0.3301  0.0185
 8414W        W25262  13.280  16.526  11.527 -0.1014  0.2678 -0.1407
 8415W        W25263  14.181  17.183  13.079 -0.0636 -0.0525 -0.1736
 8416W        W25264  15.694   3.493  13.889 -0.0500 -0.0046  0.1595
 8417W        W25265   4.526   2.202  14.784  0.1596 -0.1009 -0.1730
 8418W        W25266  17.540   9.848  11.763 -0.0433  0.1937  0.0336
 8419W        W25267   8.395  14.005  12.515  0.0025 -0.2769 -0.2878
 8420W        W25268  17.539   1.481   2.850 -0.1482 -0.0159 -0.0765
 8421W        W25269   6.922   7.038  12.721 -0.1914  0.0239 -0.0687
 8422W        W25270  15.001   9.055  15.797 -0.2609 -0.1092  0.0673
 8423W        W25271   2.233  11.253   1.048 -0.2221  0.3104 -0.1348
 8424W        W25272  16.621  11.623  15.515  0.0199 -0.1507  0.3703
 8425W        W25273   5.076  15.713   3.673  0.1458 -0.0371 -0.0629
 8426W        W25274   4.111  11.187  15.364  0.0394  0.2594 -0.4339
 8427W        W25275  17.353   7.019   0.144 -0.0184  0.2973 -0.1309
 8428W        W25276   2.231  17.664  16.077  0.0458 -0.1936 -0.1572
 8429W        W25277   5.225   8.290  11.630  0.2713 -0.1431  0.0809
 8430W        W25278  12.042  11.267  14.044 -0.1907  0.0294  0.0429
 8431W        W25279  15.713   5.879  15.631 -0.1378  0.0281 -0.0747
 8432W        W25280   1.273   0.781  15.361 -0.5027 -0.0914 -0.0658
 8433W        W25281  16.804  10.489   3.506  0.1618 -0.1040  0.0723
 8434W        W25282  17.777   7.118  11.995 -0.2796  0.2752 -0.2470
 8435W        W25283  13.789   4.596   0.269 -0.1762  0.0112 -0.1795
 8436W        W25284  10.729   9.000   0.413  0.3309  0.2640 -0.1954
 8437W        W25285   3.342   1.932  13.189  0.0282  0.0910  0.0420
 8438W        W25286   4.794   3.561  14.339  0.0366  0.0062  0.3063
 8439W        W25287  13.868   9.142  11.817  0.1824 -0.1221 -0.1354
 8440W        W25288   6.060   1.953  10.596  0.1685  0.2235  0.2425
 8441W        W25289   4.727   5.957  11.105 -0.5776  0.0565  0.0468
 8442W        W25290  17.240  11.295  11.492  0.0398  0.3201 -0.0921
 8443W        W25291   6.942   9.763  14.116  0.2539 -0.0605 -0.1319
 8444W        W25292  12.027   2.830   0.364  0.0529 -0.0186 -0.1887
 8445W        W25293   4.043  10.969   0.508  0.0521 -0.0027 -0.0728
 8446W        W25294   0.303  10.945  15.867  0.0414  0.0672  0.1196
 8447W        W25295   4.368  15.325  12.663  0.1972  0.2222  0.1378
 8448W        W25296  11.815   0.399  14.659 -0.2212 -0.2073  0.2105
 8449W        W25297   3.691   7.728   1.935  0.2688  0.1388 -0.0959
 8450W        W25298  14.452  17.479   4.391  0.0338  0.1017 -0.4220
 8451W        W25299   4.591  10.455  11.966 -0.2854  0.3834  0.0949
 8452W        W25300   2.450   4.781  11.952  0.0446  0.1067  0.1365
 8453W        W25301  12.458  14.723   4.023 -0.2101 -0.1697  0.4255
 8454W        W25302  11.624   5.462   3.326  0.1245  0.1057 -0.1308
 8455W        W25303   6.680  11.424   1.192 -0.1440 -0.2318  0.1329
 8456W        W25304   5.808   5.609   2.005 -0.1924 -0.1759 -0.1605
 8457W        W25305  18.209  11.850   1.390  0.2613 -0.0660  0.0097
 8458W        W25306   7.723   7.797   4.184 -0.1178 -0.1124 -0.0688
 8459W        W25307  16.559   6.387   2.062 -0.0251  0.0165 -0.0291
 8460W        W25308  15.637   8.996   1.073  0.0255 -0.1495 -0.0223
 8461W        W25309   6.230  12.715  12.758  0.1922 -0.2027 -0.0174
 8462W        W25310  10.820   9.360  13.522  0.0933 -0.0890  0.1985
 8463W        W25311  10.092   7.675  13.802  0.3000  0.0886  0.2204
 8464W        W25312  14.896  15.255   5.071 -0.0271 -0.1870  0.0183
 8465W        W25313   3.654  12.865  14.581 -0.1940  0.3982 -0.0524
 8466W        W25314   9.091   6.477   3.156 -0.0013 -0.0024 -0.1675
 8467W        W25315  13.689   6.542  15.086  0.1191 -0.1955 -0.0405
 8468W        W25316  14.120  16.599   0.570  0.0775 -0.3552 -0.0957
 8469W        W25317   3.852   9.916  11.931  0.0839 -0.0110  0.2654
 8470W        W25318   1.708   5.392   0.552 -0.0116  0.0705  0.0027
 8471W        W25319   0.835   2.857   1.014 -0.2518  0.0629 -0.3612
 8472W        W25320   9.309   9.324   4.760 -0.1342  0.1166 -0.1506
 8473W        W25321   7.348   0.262  15.103  0.0136 -0.0011  0.0806
 8474W        W25322  10.061   8.262   5.059 -0.2602  0.1846  0.3872
 8475W        W25323  13.749  16.904  14.569 -0.2230  0.1673 -0.0635
 8476W        W25324   8.533   2.611   2.133 -0.2336 -0.0930 -0.0365
 8477W        W25325  18.047  14.184  13.842 -0.0866 -0.0496  0.0926
 8478W        W25326  12.534   8.413  14.324 -0.0602  0.3198  0.1264
 8479W        W25327   5.310   9.106  14.817  0.0291 -0.2372 -0.0243
 8480W        W25328  15.539  12.596   2.221  0.2462  0.0272  0.1684
 8481W        W25329  14.249   4.480   3.263  0.1101  0.0729  0.1067
 8482W        W25330  10.360  15.008  12.457 -0.2980 -0.1172  0.0558
 8483W        W25331  10.427  10.165  13.595 -0.0294 -0.0622 -0.1880
 8484W        W25332   8.941  10.466   1.196  0.1003  0.1523 -0.1774
 8485W        W25333  17.570   2.447  13.716 -0.0166 -0.2412  0.0979
 8486W        W25334   4.506   4.471  13.462  0.0140  0.1574 -0.0623
 8487W        W25335   6.728   1.498   1.942 -0.0599 -0.1002  0.1613
 8488W        W25336   2.869  10.083  15.596  0.1487 -0.0720 -0.0814
 8489W        W25337   5.137   6.299  13.091 -0.0980 -0.0332  0.0125
 8490W        W25338   6.169   5.338  12.753 -0.1621  0.1659  0.1625
 8491W        W25339  17.482  17.959  10.696  0.2345  0.2338  0.0170
 8492W        W25340   4.294  14.322  14.513 -0.3783  0.0297  0.0743
 8493W        W25341  17.946  15.747  15.094 -0.0160 -0.2535  0.0777
 8494W        W25342   5.919   0.712   0.204 -0.2510  0.0557 -0.1170
 8495W        W25343   3.726  14.525  11.860 -0.0610 -0.0693  0.2345
 8496W        W25344  11.959  13.759  13.798 -0.0648 -0.1033  0.0577
 8497W        W25345  10.163   2.895   0.654 -0.0291 -0.1932  0.1941
 8498W        W25346   3.055   3.733  11.173  0.0005  0.2120  0.1892
 8499W        W25347  14.704   7.260  12.402  0.1060  0.2930 -0.0709
 8500W        W25348  10.055   1.864   1.593  0.1658  0.1546 -0.2094
 8501W        W25349   9.879   8.393  12.557  0.1416 -0.2422  0.1733
 8502W        W25350   2.929  10.354   1.959  0.1668  0.1894 -0.3621
 8503W        W25351  16.191  11.500  14.537 -0.3409 -0.0855  0.0803
 8504W        W25352   1.216  14.350   0.891 -0.0058 -0.1840 -0.1134
 8505W        W25353   1.104  11.248   3.249  0.0136  0.2112 -0.1671
 8506W        W25354   9.840  12.410   2.563  0.2653 -0.1383  0.2643
 8507W        W25355   0.742   4.245  13.903  0.0495  0.0663  0.0012
 8508W        W25356   2.437   8.673   0.691 -0.0034  0.1576 -0.3897
 8509W        W25357   6.894   5.998   4.669 -0.1447  0.1672  0.3903
 8510W        W25358  13.768  10.816  13.136 -0.3811 -0.1792 -0.0313
 8511W        W25359   1.530   7.077   3.257 -0.2200  0.1597  0.0812
 8512W        W25360   8.843  16.241  11.085  0.1960  0.0722  0.1681
 8513W        W25361   9.173   2.499  11.642  0.1895 -0.4615 -0.0566
 8514W        W25362   2.112   9.371   3.973 -0.0897 -0.1163 -0.1079
 8515W        W25363  10.647  16.622  15.442  0.1876  0.1388  0.2865
 8516W        W25364  11.366   1.654  12.039  0.1746  0.1437  0.1210
 8517W        W25365   0.649   3.103  15.656  0.3217  0.0463  0.1153
 8518W        W25366   2.383   2.047  11.552 -0.1361  0.1895 -0.1402
 8519W        W25367  11.226   7.586  12.416 -0.0548 -0.0221 -0.2615
 8520W        W25368   1.771  12.394   3.669  0.1869 -0.0513 -0.0160
 8521W        W25369   5.772   7.361   2.638  0.0706 -0.1433  0.1289
 8522W        W25370   6.016  14.415  12.186 -0.0334 -0.0540 -0.1527
 8523W        W25371  11.522   7.688  15.143 -0.2045 -0.0269  0.0677
 8524W        W25372   6.011  13.276  12.911 -0.0202 -0.1024 -0.2774
 8525W        W25373  11.674  12.760  12.395  0.0057 -0.0651  0.2124
 8526W        W25374   4.077   2.844   1.074  0.2019  0.0153 -0.0682
 8527W        W25375   0.170   7.221  15.596  0.1487  0.0051 -0.0591
 8528W        W25376  10.143  17.903  14.844 -0.1980  0.4730  0.1426
 8529W        W25377   6.712   6.218  14.301  0.0604  0.4194  0.1217
 8530W        W25378  10.927  15.882  12.602 -0.0108  0.2830  0.0610
 8531W        W25379  13.399   1.113  14.853 -0.0061  0.1393  0.3296
 8532W        W25380  17.243   4.817   1.740 -0.2566 -0.1897 -0.1266
 8533W        W25381   0.375   0.259  13.365 -0.1196 -0.0992  0.1948
 8534W        W25382  15.530   8.771   5.253  0.2871  0.3279  0.4127
 8535W        W25383   9.953   3.844  12.692  0.1014 -0.2845  0.2897
 8536W        W25384   4.044   2.480  12.365  0.0543  0.1243  0.0011
 8537W        W25385   2.681   3.166   2.106  0.2892  0.0133 -0.0989
 8538W        W25386   3.106   1.674   0.829  0.1276 -0.3172  0.0854
 8539W        W25387  12.223   0.974   0.986  0.1269 -0.2191  0.1909
 8540W        W25388   3.602   9.377   1.113 -0.0789 -0.0263  0.1034
 8541W        W25389   7.596  17.732   0.708 -0.0674  0.1759  0.0275
 8542W        W25390  12.594   6.069  12.359  0.0526 -0.1784  0.2266
 8543W        W25391   1.508  12.843  12.270 -0.0406 -0.0068 -0.1916
 8544W        W25392  12.151   8.654  11.836 -0.2423  0.1251  0.0320
 8545W        W25393  11.219  13.145   6.202 -0.2009 -0.0636 -0.1550
 8546W        W25394   7.754   3.144  11.626 -0.2613 -0.0120 -0.1378
 8547W        W25395  14.906  16.805   4.180  0.2071  0.0699  0.0872
 8548W        W25396   7.827  11.865  10.406 -0.0590  0.0284  0.3324
 8549W        W25397   6.903   1.422  13.339 -0.0574  0.0842 -0.1038
 8550W        W25398  15.091  10.264   0.043 -0.0239  0.2246  0.1344
 8551W        W25399   7.532  17.290  13.861  0.4808  0.1411  0.0440
 8552W        W25400  17.313  17.306  11.363 -0.1150 -0.0791  0.1179
 8553W        W25401   6.317  15.985   1.263  0.2805 -0.0408 -0.2370
 8554W        W25402   9.269  11.093  13.528  0.0577  0.3223  0.2124
 8555W        W25403  12.412  14.893  14.935 -0.1717  0.3134  0.1702
 8556W        W25404   3.979   2.625   1.505 -0.2781 -0.1822  0.1361
 8557W        W25405   2.254   0.158   1.478 -0.1536  0.0704 -0.0382
 8558W        W25406  13.189  11.691   2.307 -0.0379  0.2095 -0.1084
 8559W        W25407   6.804   6.050   5.622 -0.2246 -0.2585  0.0020
 8560W        W25408   9.659   9.272   0.471 -0.0162  0.0497  0.0175
 8561W        W25409   9.789  10.157   1.636 -0.3687  0.1361  0.0093
 8562W        W25410  11.783  10.367  12.985  0.1800 -0.1099  0.0883
 8563W        W25411  17.780   6.964   2.887 -0.1405 -0.0069 -0.0597
 8564W        W25412   1.182   3.037   0.325  0.0896 -0.2555 -0.1745
 8565W        W25413  11.262   0.914  13.477  0.0014 -0.0944 -0.1103
 8566W        W25414  17.391   3.050  14.534  0.1042 -0.1280  0.0686
 8567W        W25415   9.613  17.305   4.368 -0.1176 -0.1623 -0.0962
 8568W        W25416   9.639  14.818  13.418 -0.0501 -0.0008 -0.0741
 8569W        W25417  10.592  12.673   3.953 -0.0470 -0.0164 -0.1997
 8570W        W25418   1.431  17.342  10.778 -0.1672 -0.2037  0.1990
 8571W        W25419  11.391  17.099  11.150 -0.1668  0.0656  0.3570
 8572W        W25420  10.141   9.057   4.443  0.1202  0.1616  0.2596
 8573W        W25421  16.239  16.979   1.863  0.0504 -0.2070  0.3005
 8574W        W25422  17.322  11.070  12.617  0.0549 -0.2246  0.2998
 8575W        W25423  14.649   8.544  11.961 -0.0557 -0.2310 -0.0336
 8576W        W25424   9.465  13.143   0.023 -0.0768  0.2697  0.1327
 8577W        W25425  17.093   7.161  12.595 -0.0835  0.0120 -0.1237
 8578W        W25426  12.772   9.271  12.374 -0.2446  0.0555  0.3298
 8579W        W25427  17.591  14.042  13.662  0.1494  0.2200  0.0877
 8580W        W25428   1.748   9.890   4.809  0.3619  0.0506 -0.0138
 8581W        W25429   2.030   4.647  13.690 -0.1224  0.2001  0.0297
 8582W        W25430  12.300   5.892   1.263 -0.1148 -0.1569  0.0678
 8583W        W25431  16.618  12.844  12.146  0.0502 -0.1656 -0.3295
 8584W        W25432   8.273  10.198   2.005  0.3868 -0.3535 -0.1735
 8585W        W25433  12.455  11.738   3.477  0.0785 -0.0540  0.1713
 8586W        W25434  10.010  16.339   1.798 -0.4766  0.0533  0.0744
 8587W        W25435  10.843   8.856  13.891  0.0968  0.1227 -0.1736
 8588W        W25436   3.917  13.241  13.279 -0.0051 -0.1360 -0.0982
 8589W        W25437  15.913  10.689  11.790 -0.0591 -0.2003  0.1501
 8590W        W25438   3.061  15.423  15.913 -0.0403 -0.0937  0.3997
 8591W        W25439   1.646   0.616  10.918  0.1159 -0.3320  0.1428
 8592W        W25440   4.896   7.581  14.585 -0.1507 -0.0556 -0.2322
 8593W        W25441   1.901   7.041  11.890 -0.4757  0.1547  0.0553
 8594W        W25442  13.158  11.233   1.913  0.1165  0.0166  0.0569
 8595W        W25443  14.369   9.039   4.607 -0.2244 -0.2468 -0.2596
 8596W        W25444   0.937  18.145   2.168 -0.0294  0.1682  0.1474
 8597W        W25445   0.198  16.850   4.328  0.0112  0.0550  0.0675
 8598W        W25446   4.574  10.569  12.699  0.4322  0.2394 -0.3223
 8599W        W25447   9.026  11.067   2.878  0.4046  0.2447 -0.2023
 8600W        W25448  15.318  10.069  11.574  0.0054  0.0774  0.2208
 8601W        W25449  18.051   7.426  15.016 -0.0128  0.2503 -0.1105
 8602W        W25450   7.984   1.051   0.776  0.3282  0.1267 -0.1726
 8603W        W25451   4.807  15.289   5.093 -0.0813  0.0901  0.1595
 8604W        W25452   6.373   9.188  14.544 -0.1364 -0.1616 -0.1016
 8605W        W25453   4.009  12.300  12.290 -0.3442  0.0198  0.3549
 8606W        W25454   2.460   7.143   1.158 -0.0405  0.0916 -0.2720
 8607W        W25455  10.568   1.750  15.391  0.0533  0.0035  0.1770
 8608W        W25456  12.314   7.739  15.426  0.1449  0.1882  0.2662
 8609W        W25457  11.532   0.077  11.693 -0.0665  0.0870 -0.2634
 8610W        W25458   7.914  13.862  12.893  0.3268 -0.3176  0.2031
 8611W        W25459   8.565  16.761   0.245  0.0677 -0.2616 -0.1304
 8612W        W25460   5.484   4.710  12.761 -0.1027 -0.0546  0.0580
 8613W        W25461  13.044   9.021  12.840  0.0632 -0.0077  0.1433
 8614W        W25462   3.424   9.375   0.608  0.0710  0.0368 -0.1353
 8615W        W25463   6.156   8.973   5.121 -0.2654  0.1752  0.0005
 8616W        W25464  10.444   7.228  14.400 -0.4441 -0.1748  0.0737
 8617W        W25465   5.812  10.685   4.955 -0.0204 -0.0279 -0.0757
 8618W        W25466  10.996  11.473  11.823  0.1462 -0.1302  0.3003
 8619W        W25467  17.013   3.337   2.399 -0.3583  0.0108 -0.0557
 8620W        W25468   7.859   1.023   3.996  0.3023 -0.1661 -0.0591
 8621W        W25469  17.758   0.082  13.914  0.1613  0.1472  0.2324
 8622W        W25470   6.696   3.978  11.923  0.2200 -0.2785  0.0702
 8623W        W25471  15.917   9.845   0.901 -0.0016 -0.0620 -0.0639
 8624W        W25472  10.434  13.490   1.810  0.1817  0.1800  0.3690
 8625W        W25473  10.052   5.241  13.555  0.2294  0.1890  0.0389
 8626W        W25474   7.539   4.248   2.127  0.3712 -0.0524  0.0310
 8627W        W25475   5.883  11.819  11.697  0.1957 -0.0563 -0.3074
 8628W        W25476  17.569   6.631  11.308 -0.0246  0.3192  0.4032
 8629W        W25477   1.525   4.550   2.181 -0.5151 -0.0793 -0.3929
 8630W        W25478   7.062   3.151   0.813  0.1852 -0.2114 -0.0871
 8631W        W25479   8.042  14.528  11.084  0.3071 -0.1639 -0.2148
 8632W        W25480  14.873   8.187   3.756 -0.2514  0.1262  0.2060
 8633W        W25481   7.384  14.970   2.185  0.3017 -0.2854  0.1002
 8634W        W25482   1.660   2.826   0.539 -0.0192  0.0099  0.0206
 8635W        W25483  12.940  15.858   3.427  0.3649  0.0913 -0.1240
 8636W        W25484   9.474   1.683  12.899 -0.1577 -0.1559  0.0196
 8637W        W25485  16.868   1.594   4.441  0.0753 -0.1272  0.0251
 8638W        W25486  12.643   1.679  12.629 -0.1202 -0.0010  0.2477
 8639W        W25487   2.461   1.607  11.280  0.0509 -0.0540  0.0451
 8640W        W25488  17.413   5.466   4.078 -0.2373 -0.1688  0.1047
 8641W        W25489  11.815   5.401  11.249  0.0313 -0.1573 -0.0301
 8642W        W25490  17.731   6.305   3.074  0.2709  0.3050 -0.2804
 8643W        W25491   9.856   4.233   6.155 -0.1027 -0.1100  0.1172
 8644W        W25492  12.168   3.910   9.857 -0.0996  0.2441 -0.0945
 8645W        W25493  16.190  14.671   3.055  0.0238  0.0100 -0.0842
 8646W        W25494   4.267   3.132   4.204 -0.1552 -0.0033 -0.3509
 8647W        W25495   3.456  10.518   2.591 -0.1821 -0.0377 -0.0615
 8648W        W25496  11.769   2.977  12.887 -0.1606  0.1689  0.0050
 8649W        W25497   0.354   1.606   1.158 -0.1446 -0.1058 -0.3203
 8650W        W25498  14.271   1.769  15.622  0.0869  0.4809 -0.4152
 8651W        W25499   1.654   8.655   1.410  0.6679 -0.1006  0.2088
 8652W        W25500   8.151   7.464  14.284  0.0906  0.2030 -0.0679
 8653W        W25501  17.732  13.228   1.891 -0.0896  0.0047 -0.1624
 8654W        W25502   2.708  18.142  13.673 -0.2365  0.0873 -0.2836
 8655W        W25503   2.239  11.749  14.091 -0.3085  0.0102  0.1583
 8656W        W25504  17.774  14.334   2.665 -0.0644  0.2059  0.2339
 8657W        W25505  14.333   3.369   0.390  0.1528  0.2486 -0.3522
 8658W        W25506   2.986  16.365  14.085 -0.0008  0.0932 -0.2206
 8659W        W25507   8.929  11.500   4.608  0.0254  0.1029 -0.1762
 8660W        W25508   0.359   6.070   4.070 -0.0369 -0.1082  0.3469
 8661W        W25509   5.645   6.664  12.017  0.1605 -0.1645 -0.0393
 8662W        W25510   6.014   2.391   2.767 -0.2915 -0.0271  0.2275
 8663W        W25511   0.180   4.674  15.908  0.4284 -0.2150  0.5276
 8664W        W25512   2.326  12.688  15.767  0.0580  0.3522  0.0677
 8665W        W25513   8.249  15.434  12.919  0.1617 -0.0357  0.2404
 8666W        W25514  11.190   2.125   0.953 -0.1368  0.1419 -0.0021
 8667W        W25515   2.253  13.588   1.058 -0.2358 -0.1285  0.1257
 8668W        W25516   9.057  10.993   3.936  0.0928 -0.0192 -0.1737
 8669W        W25517  10.545   4.023  13.722  0.0330  0.0859 -0.1813
 8670W        W25518   7.421   8.966  15.851  0.0885  0.2578  0.1398
 8671W        W25519  10.080  14.288  12.749  0.2374  0.2263 -0.0005
 8672W        W25520   8.675  10.537   2.034 -0.1454  0.1433 -0.0257
 8673W        W25521  13.294  12.868   1.043 -0.1918 -0.1572 -0.0513
 8674W        W25522  15.902   1.096  13.513  0.0469 -0.1259  0.0060
 8675W        W25523   7.799   8.391  14.729  0.0013  0.0694 -0.0639
 8676W        W25524   8.796   0.701   4.187  0.1660  0.2008 -0.1199
 8677W        W25525   3.523   3.128   3.714 -0.0590  0.0538  0.2716
 8678W        W25526  15.746  12.118   0.580  0.2322  0.2235  0.1632
 8679W        W25527  15.638   3.568  10.105 -0.1432 -0.0852  0.1507
 8680W        W25528   9.596   3.341   0.340 -0.5518 -0.0571  0.0371
 8681W        W25529  14.391   3.407  13.098 -0.1247 -0.1010  0.2035
 8682W        W25530   4.187   0.858  11.929 -0.1187 -0.2321 -0.0992
 8683W        W25531   2.260  15.045   0.822 -0.1481  0.0671  0.0037
 8684W        W25532  16.529  13.980   2.326 -0.1737 -0.3533 -0.0109
 8685W        W25533   0.460   3.410   4.695 -0.2116  0.0999 -0.1084
 8686W        W25534   2.624  17.337   5.139  0.0030 -0.0467  0.2349
 8687W        W25535  12.076  13.540  12.873  0.2623  0.0203  0.2665
 8688W        W25536  16.068   5.004  11.856 -0.1117  0.0613  0.2001
 8689W        W25537   3.435  17.231  10.056 -0.1738 -0.1190 -0.0761
 8690W        W25538   1.975  16.247  15.820  0.0469 -0.0283 -0.0584
 8691W        W25539  15.134  13.178   1.920  0.4454 -0.3771 -0.1336
 8692W        W25540   7.899   2.686   3.533  0.2234  0.0456  0.0956
 8693W        W25541   3.730  12.078   0.775 -0.1552 -0.2642  0.1383
 8694W        W25542   1.823  13.957   3.502 -0.0380  0.1199 -0.1553
 8695W        W25543   7.761   4.168   1.176 -0.1606  0.0851 -0.1226
 8696W        W25544   8.118  14.923  10.213 -0.2519  0.0184 -0.3992
 8697W        W25545   2.745   4.926   4.846 -0.1145  0.1742 -0.1643
 8698W        W25546  16.717   9.326   4.473  0.0872  0.0030  0.1246
 8699W        W25547   7.226   7.485   4.017 -0.0503 -0.1290  0.2824
 8700W        W25548  11.513   2.888  12.471 -0.1380  0.0949 -0.0787
 8701W        W25549   2.971  14.056   0.383 -0.2677 -0.1260 -0.0035
 8702W        W25550  16.826  16.332   4.781 -0.0133  0.0279 -0.0164
 8703W        W25551   3.566   7.412  15.265 -0.1842 -0.0019 -0.0187
 8704W        W25552   0.976   6.893   2.676 -0.0301  0.2893 -0.1099
 8705W        W25553  17.152   2.991   1.400  0.1862  0.0496  0.0196
 8706W        W25554  14.183   7.410   0.429  0.0617 -0.0663  0.1159
 8707W        W25555   5.979   8.707  15.847 -0.0093  0.1020  0.2443
 8708W        W25556   9.076  17.007  12.653  0.0347 -0.1817 -0.0645
 8709W        W25557   4.413   3.951  11.643 -0.2443 -0.1842  0.2443
 8710W        W25558  12.029  12.605   3.293  0.0466 -0.0691  0.2722
 8711W        W25559   2.364   0.423  12.321  0.0449  0.2558 -0.0561
 8712W        W25560   4.830  12.282  15.786 -0.4412 -0.1446 -0.1981
 8713W        W25561   1.224  17.510  12.891 -0.1188 -0.0517  0.0742
 8714W        W25562  13.404   0.298  14.360 -0.0636 -0.0841 -0.1702
 8715W        W25563   7.857  17.235  13.017  0.0893 -0.1810 -0.0206
 8716W        W25564   3.619   5.376  15.370 -0.3397  0.1051  0.2270
 8717W        W25565  12.143   6.427  12.347 -0.0777  0.1291 -0.3045
 8718W        W25566  10.893  13.390  14.445 -0.1360  0.0730 -0.1591
 8719W        W25567   2.481  17.852  14.548 -0.2240 -0.1042 -0.2803
 8720W        W25568   8.004   9.106   4.887 -0.0025 -0.1893 -0.2561
 8721W        W25569   8.726   2.956  13.680  0.2057 -0.2512 -0.1192
 8722W        W25570  15.638   5.641  13.270  0.0892  0.3585  0.1873
 8723W        W25571   5.169   2.737   0.689 -0.0964 -0.1212 -0.0926
 8724W        W25572  17.687  17.986   0.283 -0.0036  0.1088  0.0618
 8725W        W25573  10.680  11.908   0.937 -0.1314  0.0655 -0.1421
 8726W        W25574  14.335  16.905  12.236 -0.3344  0.1678  0.0602
 8727W        W25575  12.013   0.142  12.003  0.0176  0.0648  0.1234
 8728W        W25576  13.366   7.300   3.111  0.1040 -0.1019  0.0204
 8729W        W25577  17.055   9.999   0.458  0.0765  0.3051 -0.0521
 8730W        W25578   3.683   8.568  10.119 -0.3423 -0.0501 -0.2618
 8731W        W25579   7.725  17.516  11.467 -0.1099 -0.0913  0.1926
 8732W        W25580  12.393  10.993  15.759  0.0254  0.2223 -0.1080
 8733W        W25581   3.768  17.173   2.602  0.2786 -0.2927  0.0321
 8734W        W25582   6.621   3.016   4.484 -0.0770 -0.2147 -0.0785
 8735W        W25583  10.567   5.540   4.073  0.0463  0.0374  0.1508
 8736W        W25584  12.439  18.161  13.313  0.0432 -0.2412  0.3334
 8737W        W25585   7.418   4.642  14.526  0.0370 -0.0389  0.0274
 8738W        W25586  15.027   1.965   1.780  0.0632 -0.1508 -0.0297
 8739W        W25587   1.212   9.863  14.199  0.2060 -0.0629 -0.2910
 8740W        W25588  13.886   6.048   2.043 -0.0851 -0.2664 -0.2732
 8741W        W25589  10.648  16.880   2.750  0.0352 -0.1929  0.0807
 8742W        W25590   5.172  14.082   0.425 -0.0852  0.1798 -0.0735
 8743W        W25591   1.332   9.411  14.141 -0.1329 -0.0208  0.0295
 8744W        W25592  13.671   5.656   4.010 -0.2085  0.0974  0.0181
 8745W        W25593  13.635  14.748   4.667  0.2682 -0.0170 -0.1556
 8746W        W25594   8.100  15.612  13.801 -0.2239 -0.3908  0.4298
 8747W        W25595   4.716  15.089  15.775 -0.0990 -0.0228  0.2028
 8748W        W25596   5.994  17.610  14.484  0.0358 -0.0662  0.0743
 8749W        W25597  10.259   6.675   2.134 -0.2871  0.0128 -0.2263
 8750W        W25598  16.410   5.875  13.818  0.3295  0.3303 -0.0076
 8751W        W25599   7.214  11.012   4.464  0.0158 -0.0683 -0.1580
 8752W        W25600   1.816  16.988  15.343  0.0290 -0.0450 -0.3028
 8753W        W25601  15.056   6.680  15.664 -0.1941  0.0461  0.5536
 8754W        W25602   4.103  16.909  13.276 -0.1173 -0.0190 -0.2513
 8755W        W25603   1.204  14.474   4.742 -0.1346 -0.0131  0.1870
 8756W        W25604   1.506   1.706  11.958 -0.0875  0.0087  0.1024
 8757W        W25605  14.340   1.198   3.656 -0.1987 -0.0229  0.1427
 8758W        W25606  17.292   9.098   0.313 -0.0026 -0.3504 -0.1582
 8759W        W25607   9.626   9.487   5.073  0.0483  0.1183  0.1105
 8760W        W25608  17.950   4.746  13.082  0.2771  0.3544 -0.2963
 8761W        W25609   4.258   5.687  13.240  0.2418 -0.1619 -0.1709
 8762W        W25610   8.002   6.292   1.605 -0.1884 -0.1215  0.0211
 8763W        W25611   8.029   2.638  11.222 -0.0722 -0.2017  0.0678
 8764W        W25612  10.924  13.796   3.159 -0.0026 -0.0301 -0.0094
 8765W        W25613  12.491   3.245   2.009 -0.1735 -0.0199  0.0096
 8766W        W25614  14.571   1.717   0.667  0.1220  0.2578 -0.1256
 8767W        W25615   2.004   6.621   4.834  0.2833 -0.0894  0.1383
 8768W        W25616   6.145   0.712   4.971  0.2332  0.0132 -0.1942
 8769W        W25617   0.607   2.677   3.352  0.1960  0.6524 -0.1010
 8770W        W25618   2.942   5.512   0.763 -0.0522  0.1020  0.0217
 8771W        W25619  11.861   4.393  11.621  0.0364  0.2696 -0.0492
 8772W        W25620   7.142  12.676  11.783 -0.2491 -0.0015 -0.3264
 8773W        W25621  13.112   8.226  13.644  0.2441  0.0965 -0.2728
 8774W        W25622   6.247  16.641   2.331  0.3748  0.2363  0.2621
 8775W        W25623   1.980  11.791  15.398 -0.1944  0.1012 -0.0787
 8776W        W25624  12.483  14.301  11.554 -0.1618  0.0559  0.3744
 8777W        W25625  10.211   5.994  15.229  0.0317 -0.0393  0.0760
 8778W        W25626   2.569   1.633   4.686 -0.0892  0.2734 -0.0337
 8779W        W25627   2.552  12.813   4.020 -0.0894  0.0212  0.0309
 8780W        W25628  12.897   2.964  12.505  0.2776 -0.0874 -0.1057
 8781W        W25629   7.270  15.401   4.165  0.1803  0.1531  0.0617
 8782W        W25630   1.898   0.822   2.257 -0.0008 -0.2237 -0.1310
 8783W        W25631   2.264  14.255   3.560  0.4541  0.0595 -0.1696
 8784W        W25632   5.446  12.949  15.659  0.0730 -0.0033  0.0749
 8785W        W25633   8.923  16.317  12.886  0.1520  0.2013  0.0132
 8786W        W25634   7.071   1.854  13.546 -0.1496 -0.3129 -0.0603
 8787W        W25635  13.904   9.609   2.745  0.1289  0.1253 -0.1056
 8788W        W25636  15.342   1.138   1.523  0.1158  0.3248 -0.0270
 8789W        W25637  10.740   3.488  11.369 -0.1729 -0.3281  0.0368
 8790W        W25638  12.891   8.137  15.312  0.3319 -0.3654 -0.0964
 8791W        W25639   0.466   3.898   4.723 -0.0320 -0.0263 -0.1827
 8792W        W25640   9.081  17.953   4.062  0.1269  0.0800  0.1457
 8793W        W25641   6.653  17.631  15.829  0.1638  0.0156 -0.1298
 8794W        W25642  15.440   5.084  15.052 -0.3451  0.1689 -0.0923
 8795W        W25643  16.077  11.599   2.222 -0.0361 -0.0542  0.0415
 8796W        W25644  11.106  10.206   4.453 -0.1395 -0.1309  0.1560
 8797W        W25645   8.990  17.319  15.581  0.2878 -0.0343 -0.1609
 8798W        W25646  17.921   8.217  12.721 -0.0809  0.0429  0.0639
 8799W        W25647  16.222   1.840  15.901 -0.1765 -0.1782  0.5069
 8800W        W25648   8.247  12.725  13.480  0.0256 -0.0398 -0.1685
 8801W        W25649   5.214   8.786  13.873  0.2231  0.0938  0.1336
 8802W        W25650   0.408   9.397  13.154 -0.1048  0.0812  0.0067
 8803W        W25651  10.897   5.195   1.467 -0.0983  0.2225  0.1578
 8804W        W25652  14.743   8.936   2.492 -0.0328 -0.0779 -0.1175
 8805W        W25653   3.869   8.046  12.177 -0.0331 -0.3000 -0.0146
 8806W        W25654   7.221   1.272   3.679 -0.0588  0.0265  0.2805
 8807W        W25655   7.869  16.145  11.568  0.0659  0.0214 -0.0308
 8808W        W25656  16.349  16.356  14.643  0.0280  0.1678  0.1175
 8809W        W25657  10.072  14.131   3.428 -0.2390  0.1542  0.1766
 8810W        W25658  16.138  12.144  14.462  0.0702  0.0959  0.0992
 8811W        W25659   4.173   0.668   0.285  0.2720 -0.0005  0.0617
 8812W        W25660   0.841   6.190  15.258  0.0521 -0.2430 -0.0334
 8813W        W25661  11.700   0.368  16.062 -0.2163  0.0495  0.0982
 8814W        W25662  17.029   2.213  11.578 -0.3169 -0.0138  0.1420
 8815W        W25663  17.348   5.576   3.011  0.3206 -0.1382  0.0007
 8816W        W25664   5.175   7.069   1.924  0.1188 -0.0417  0.0826
 8817W        W25665   6.352  14.991   0.061  0.0986 -0.2207  0.0545
 8818W        W25666   8.527   1.343  11.434 -0.0540  0.0811  0.1374
 8819W        W25667   7.189   7.310   1.931 -0.1701  0.1115 -0.1547
 8820W        W25668   3.055  15.845  15.435  0.1672 -0.1277 -0.0504
 8821W        W25669  12.199  12.080  14.439  0.1294  0.0649  0.3960
 8822W        W25670   6.654   7.328  11.130  0.1569  0.0725  0.1120
 8823W        W25671   2.056   8.260  13.460  0.0655  0.0238  0.2510
 8824W        W25672   6.079  15.395  14.783  0.0316  0.3582  0.1515
 8825W        W25673   9.013   9.474  12.385 -0.0333 -0.1207 -0.3800
 8826W        W25674   3.654   2.599  12.682 -0.3026  0.0880 -0.2106
 8827W        W25675   8.672   3.659   3.698  0.2321  0.1698  0.0902
 8828W        W25676  11.427  17.434   1.255  0.1080 -0.1381 -0.0625
 8829W        W25677  15.911  17.118   4.587 -0.2173  0.0878  0.1493
 8830W        W25678  15.079   0.456   0.779  0.1583  0.1864 -0.0803
 8831W        W25679  12.253   4.436  13.362  0.0897 -0.1366  0.0775
 8832W        W25680   2.851   4.226  14.794  0.1635 -0.0051  0.1218
 8833W        W25681   2.608  12.606   4.514  0.0274 -0.0831  0.1645
 8834W        W25682  16.909  15.359  14.268 -0.4418 -0.2575  0.3262
 8835W        W25683   6.292  13.342  14.052  0.0028 -0.1875  0.2733
 8836W        W25684  13.882  11.784   4.227  0.3292  0.2762 -0.1096
 8837W        W25685  17.269  16.902  12.623  0.0980  0.2613  0.1616
 8838W        W25686  10.789   2.522  11.999  0.1811 -0.0839 -0.0008
 8839W        W25687   2.892   1.821  11.546 -0.0034  0.1635 -0.0708
 8840W        W25688   2.504   0.536   5.705 -0.1281 -0.3794  0.3430
 8841W        W25689   9.401   1.130   0.342 -0.0410  0.0658 -0.1724
 8842W        W25690   7.316  17.719   3.433  0.0832 -0.0645 -0.4193
 8843W        W25691  11.299  15.972  15.738  0.2029  0.0282 -0.0056
 8844W        W25692   4.442  14.971   0.802  0.1264  0.1825 -0.0084
 8845W        W25693   4.915   1.896  10.513  0.0169  0.0543 -0.0606
 8846W        W25694  11.808   1.956   4.455 -0.1432  0.1421  0.2765
 8847W        W25695   7.927   8.760  12.205 -0.2279 -0.2843  0.2546
 8848W        W25696  13.595  11.973  13.876 -0.1444 -0.1052 -0.1836
 8849W        W25697  10.553   5.774  10.236  0.0433 -0.0726  0.1511
 8850W        W25698  15.273   5.273   1.819  0.1494 -0.2775 -0.0006
 8851W        W25699   4.507   6.069  11.912  0.1754  0.0156  0.2896
 8852W        W25700   0.578   8.350   5.692 -0.0614 -0.1734  0.5238
 8853W        W25701  11.309   8.204  13.796 -0.2047  0.0190 -0.3503
 8854W        W25702   6.294   3.721   5.862 -0.0072  0.6446  0.0377
 8855W        W25703   6.465   8.594  11.689 -0.0793 -0.0063  0.0223
 8856W        W25704   5.115   4.946   5.344 -0.0070 -0.2514  0.0923
 8857W        W25705   4.388   3.374  15.545  0.0406  0.0222  0.0609
 8858W        W25706   0.921   7.523  14.167 -0.2179  0.0293  0.0048
 8859W        W25707  17.298   5.399   1.089 -0.2059  0.2803  0.0993
 8860W        W25708   1.326   3.896   4.445 -0.2491 -0.1721  0.1237
 8861W        W25709   5.439  10.578  15.791  0.0935  0.0143 -0.0317
 8862W        W25710  11.892   1.154  12.987  0.0175  0.0332  0.0126
 8863W        W25711   9.923  16.661   0.745 -0.0160 -0.2612  0.2464
 8864W        W25712   1.549  10.122  15.253 -0.3503 -0.0246 -0.2992
 8865W        W25713   7.153  17.659   0.403  0.1157 -0.1925 -0.3120
 8866W        W25714  13.771  15.086  14.637 -0.1457 -0.2206  0.5469
 8867W        W25715   4.468   0.060   4.588 -0.0467  0.1170  0.3133
 8868W        W25716  14.112   6.660  15.868  0.0078  0.2560  0.1050
 8869W        W25717  10.802   3.383  13.032 -0.0644 -0.1006 -0.4048
 8870W        W25718   0.742   0.371   4.112  0.0440  0.1312 -0.2996
 8871W        W25719   2.125  10.323   0.703 -0.0453 -0.0816 -0.1912
 8872W        W25720   4.556   6.779  11.135 -0.2823 -0.2356  0.0208
 8873W        W25721  10.713  16.989  11.974 -0.0967 -0.0126  0.3774
 8874W        W25722  18.028   8.861  14.146 -0.0312 -0.3443  0.1897
 8875W        W25723  13.785  13.495   2.358 -0.0007 -0.0743  0.0886
 8876W        W25724  13.085   8.627   1.332  0.2986  0.1970  0.0278
 8877W        W25725  17.493   4.605  12.676  0.5733 -0.0239  0.0182
 8878W        W25726  15.831   6.952  13.112  0.0736 -0.0189  0.0967
 8879W        W25727  14.107   0.254   0.793  0.0196  0.0643  0.1179
 8880W        W25728   7.768   9.912  12.856 -0.0341 -0.4200 -0.3137
 8881W        W25729   7.660  14.780   0.551  0.0437  0.0295 -0.0131
 8882W        W25730  15.924  17.649   3.217 -0.2078 -0.1720  0.0611
 8883W        W25731   0.340   7.377  15.091  0.0977  0.0525 -0.0735
 8884W        W25732  11.427  17.097  12.695  0.3768 -0.0615  0.0706
 8885W        W25733   5.313   5.711   4.127  0.1256  0.0141  0.1266
 8886W        W25734  12.976   8.231   0.146  0.1779 -0.0576  0.0539
 8887W        W25735  11.778   9.800   5.008 -0.3890 -0.1634 -0.2160
 8888W        W25736  15.139   1.212  10.820  0.6164 -0.1662  0.1043
 8889W        W25737   7.115   2.662   0.628  0.0186  0.0851  0.1736
 8890W        W25738  11.941   4.240   3.243 -0.0885  0.3301 -0.0228
 8891W        W25739   8.478   2.629  13.445  0.2610  0.1870  0.1734
 8892W        W25740   8.875   7.597  15.880  0.0150  0.0787  0.1613
 8893W        W25741   9.539   7.007   5.495  0.3040 -0.1841  0.4386
 8894W        W25742  13.163   9.803   0.326 -0.1779  0.0260 -0.2143
 8895W        W25743   1.281   0.609   5.523 -0.1501  0.0228  0.0955
 8896W        W25744  12.112  15.469  15.842 -0.2471 -0.3248 -0.1067
 8897W        W25745  13.018  17.858  14.368 -0.3099  0.0785  0.3105
 8898W        W25746   1.662  12.769   2.157  0.2664  0.0760 -0.1650
 8899W        W25747   2.289   5.786  14.563  0.2634  0.3596 -0.2290
 8900W        W25748  16.059   9.511   2.817 -0.0531 -0.0600  0.2703
 8901W        W25749   1.637   5.702   3.112  0.0332 -0.0362  0.2617
 8902W        W25750  13.561  10.698   4.600 -0.0232 -0.1955  0.1250
 8903W        W25751   1.571  12.739   4.440 -0.0556 -0.0608  0.1464
 8904W        W25752  11.704   6.055  12.439 -0.1041  0.1733  0.0519
 8905W        W25753   1.125  14.838  11.488  0.4409 -0.0862 -0.0578
 8906W        W25754  15.784  10.382  12.189  0.0299 -0.1241 -0.0247
 8907W        W25755  10.259   7.727  14.323 -0.1073  0.3409  0.0705
 8908W        W25756   0.334  10.037  14.840 -0.1099 -0.2115  0.1132
 8909W        W25757  15.161   6.526  12.873  0.0005  0.1237  0.2012
 8910W        W25758   7.718  15.520  14.207 -0.1335 -0.1027  0.0073
 8911W        W25759   5.517   1.262  15.373  0.0287  0.0387 -0.2216
 8912W        W25760  14.818  12.921  13.877 -0.0732 -0.1978 -0.0087
 8913W        W25761  12.141  11.259   0.458 -0.0736 -0.2193  0.0595
 8914W        W25762   2.114   8.924  16.045 -0.0826 -0.0311 -0.0201
 8915W        W25763  17.651   0.927   0.682  0.1549 -0.2078  0.3617
 8916W        W25764  11.529   9.408  15.049  0.0245  0.3139  0.0526
 8917W        W25765   4.633   9.788  15.329 -0.1329 -0.0256 -0.1525
 8918W        W25766  10.870  16.478   2.628  0.2314 -0.0299 -0.0179
 8919W        W25767   1.656   2.929   3.767  0.3224 -0.0678 -0.0195
 8920W        W25768  17.840   8.151  12.169  0.1832 -0.1355  0.2305
 8921W        W25769  11.474   7.363   0.314  0.1899  0.0110  0.2969
 8922W        W25770  17.303   3.575  12.899  0.1860  0.0744 -0.1006
 8923W        W25771   2.697  11.895   5.084  0.4091  0.2344  0.3619
 8924W        W25772   9.773   1.078   2.980  0.0762  0.1749 -0.1378
 8925W        W25773  12.097   8.536   2.815 -0.1251  0.0433 -0.1209
 8926W        W25774   6.145   0.483   4.541  0.5405 -0.1726  0.1492
 8927W        W25775   4.229  13.392   3.584 -0.2192  0.0459 -0.1331
 8928W        W25776   6.384   6.179  13.346 -0.3428  0.2994  0.0063
 8929W        W25777   7.234   5.549   4.628  0.0030  0.0566  0.0052
 8930W        W25778   8.618   0.514  12.427  0.1237  0.0926  0.1660
 8931W        W25779  11.944  10.863   0.189  0.1405 -0.1795  0.0640
 8932W        W25780  16.932  12.205   3.001 -0.0436  0.1829 -0.1585
 8933W        W25781  16.507  17.033  14.291  0.0548 -0.0113 -0.1325
 8934W        W25782  17.567   5.970  10.870  0.2310  0.0132  0.0719
 8935W        W25783   7.853  15.585   3.141 -0.0869 -0.2120 -0.2808
 8936W        W25784   8.394   6.718  15.092 -0.4177  0.1545  0.1147
 8937W        W25785   1.852   2.331   0.579  0.0776 -0.0790  0.0035
 8938W        W25786   0.103  17.927  15.607  0.2479 -0.0752  0.0109
 8939W        W25787   1.973   0.006   0.628  0.2512 -0.0667 -0.2602
 8940W        W25788   2.015  15.739   2.927 -0.2677  0.2370 -0.2051
 8941W        W25789  15.122   5.520   4.620  0.2533  0.1525 -0.1513
 8942W        W25790   8.578  17.503   3.140 -0.0627  0.3375 -0.3843
 8943W        W25791   3.212   1.315  11.909 -0.1825 -0.2441 -0.0262
 8944W        W25792  13.353  12.078   2.084 -0.0219 -0.3393 -0.0887
 8945W        W25793  17.532   3.547   2.570 -0.2595 -0.2638 -0.0984
 8946W        W25794   1.789   5.197  12.996  0.0281 -0.0720 -0.0253
 8947W        W25795   9.809   2.729   2.803  0.1770 -0.0854  0.0004
 8948W        W25796  16.936  17.699   3.444 -0.3326 -0.1953  0.1168
 8949W        W25797   8.267   5.766  16.046  0.1861  0.0421 -0.1165
 8950W        W25798   9.156  17.096  11.387 -0.2912  0.2918 -0.0393
 8951W        W25799  12.326  15.523  13.560 -0.0379  0.2022 -0.1161
 8952W        W25800   5.808  17.498   4.670 -0.1940 -0.1487  0.0776
 8953W        W25801   3.921  15.461   2.706  0.2907 -0.0432 -0.2293
 8954W        W25802  10.032   4.967  15.464  0.4758 -0.1458  0.0646
 8955W        W25803   1.615   0.665  14.346 -0.0609 -0.0353 -0.0632
 8956W        W25804   1.237   1.287  11.766 -0.0743 -0.0703  0.1812
 8957W        W25805   9.283   9.904  14.534  0.3561 -0.0008  0.1497
 8958W        W25806   5.426   1.902  13.612  0.2672 -0.0811  0.3694
 8959W        W25807  12.138   8.588   1.945  0.2414  0.1127 -0.0016
 8960W        W25808  15.363  10.476   4.825 -0.2144  0.2201 -0.1182
 8961W        W25809   3.495   7.920   0.864  0.1104 -0.0070 -0.1064
 8962W        W25810  10.178   2.204  13.230  0.0168  0.1274  0.1602
 8963W        W25811   4.826   0.602  15.657 -0.1076 -0.0730 -0.1219
 8964W        W25812   7.426   3.380  13.213  0.0786 -0.6016 -0.2467
 8965W        W25813  11.238   9.168  15.441 -0.3426  0.1367 -0.1599
 8966W        W25814   7.429  12.834   0.773 -0.2002 -0.3548 -0.0465
 8967W        W25815  15.983  17.096   0.773 -0.0056  0.0483  0.1662
 8968W        W25816   8.833  17.440  11.643 -0.0052  0.0695  0.0193
 8969W        W25817  12.044   4.529  15.157 -0.2984  0.2446  0.2754
 8970W        W25818   5.454   7.492   0.132 -0.1952  0.1575 -0.0778
 8971W        W25819   5.705   7.675  13.168  0.5721 -0.1019  0.1112
 8972W        W25820   5.324  10.505   4.949 -0.1323 -0.4176  0.1330
 8973W        W25821   0.263   2.930  15.392 -0.2170  0.0153  0.2761
 8974W        W25822   1.041  11.203  13.976  0.0784 -0.2460  0.2726
 8975W        W25823   7.003   7.720   3.567 -0.1507  0.1636 -0.1421
 8976W        W25824   0.589   3.220  14.025 -0.1486  0.1458 -0.0705
 8977W        W25825  11.692  15.068  11.053 -0.1794 -0.0537 -0.1594
 8978W        W25826   5.643   4.848   3.443  0.0838 -0.2576 -0.2064
 8979W        W25827   4.035  15.149   4.608  0.0288  0.0041  0.3185
 8980W        W25828   1.387   6.272   1.322  0.0246  0.0835 -0.0640
 8981W        W25829   0.468   0.108   4.554  0.1974 -0.1597  0.0332
 8982W        W25830  11.636   7.184   4.523  0.2803  0.0253  0.1127
 8983W        W25831   9.072   3.811   5.876  0.0827  0.0791 -0.1524
 8984W        W25832  14.520  12.068  12.655 -0.0156 -0.1040 -0.3260
 8985W        W25833   4.244   8.071  14.796 -0.2113 -0.1351  0.0271
 8986W        W25834  15.584  17.101   4.221 -0.3418 -0.0070  0.2146
 8987W        W25835   0.128  17.262  11.185  0.0378 -0.3459 -0.0148
 8988W        W25836   1.023  17.363   0.430  0.1779  0.2111 -0.1249
 8989W        W25837  11.963  15.300  13.799  0.0383  0.0934  0.0377
 8990W        W25838   7.903   9.568  12.558 -0.2283 -0.0506  0.1716
 8991W        W25839  17.808  13.456   3.260  0.1954  0.0623 -0.1088
 8992W        W25840   9.719   8.378   0.845 -0.1007  0.5230  0.0828
 8993W        W25841   0.891   3.639  15.722 -0.1688  0.0785  0.1153
 8994W        W25842   7.274  13.545   2.382  0.1405  0.3357  0.0220
 8995W        W25843   3.028   0.125  11.872 -0.0071 -0.2264  0.2539
 8996W        W25844   3.029  10.526  14.912  0.2712  0.1315  0.1093
 8997W        W25845   8.459  14.358  13.576  0.1757 -0.2418  0.0318
 8998W        W25846   1.196  16.744   4.148  0.3807 -0.3516 -0.0541
 8999W        W25847   1.159   1.428  12.205  0.0078  0.1231 -0.0072
 9000W        W25848   0.861   9.150   0.120  0.1499 -0.1433 -0.1836
 9001W        W25849  15.946   5.089  14.924  0.0042 -0.0269 -0.0220
 9002W        W25850   3.244   4.713   4.865 -0.4870 -0.0817 -0.0967
 9003W        W25851   2.723   0.043   2.335 -0.3053 -0.2629 -0.2536
 9004W        W25852   4.298   4.596   3.340  0.2537  0.2492 -0.0382
 9005W        W25853   8.438  14.244   0.577  0.1370  0.1445 -0.2595
 9006W        W25854   3.684   7.711   0.490  0.1715  0.0443  0.1412
 9007W        W25855   7.901  14.622  15.072 -0.1124  0.0879 -0.1241
 9008W        W25856  17.451  16.767  14.858  0.0435 -0.1453  0.1961
 9009W        W25857   6.463  10.799   2.597 -0.2542  0.1056  0.1983
 9010W        W25858   0.242  16.277  11.303 -0.0487 -0.1341  0.0295
 9011W        W25859   2.354   2.495   1.307  0.0978 -0.0503 -0.0929
 9012W        W25860  11.150   0.278  15.234 -0.1112 -0.0667  0.2212
 9013W        W25861   7.223   2.117  16.093 -0.1582 -0.1088 -0.2135
 9014W        W25862  12.243   3.885  15.086  0.0875  0.0531 -0.2229
 9015W        W25863   6.639  17.119   1.789 -0.2234  0.1149 -0.1953
 9016W        W25864  17.686   4.112   5.480 -0.1643  0.2461  0.1780
 9017W        W25865  10.993   5.878   4.013 -0.0027  0.2119 -0.0839
 9018W        W25866  14.820  14.800   3.028  0.1610  0.0973 -0.4537
 9019W        W25867  11.646  15.279  14.971  0.0775  0.1942  0.0857
 9020W        W25868  16.854   3.491  15.344  0.2310 -0.1222 -0.2098
 9021W        W25869  12.726   0.971  13.302  0.0037  0.1854 -0.1469
 9022W        W25870  10.637  15.822  12.179  0.0665  0.2948 -0.0584
 9023W        W25871   1.482   6.462  12.973 -0.0518 -0.0480  0.0098
 9024W        W25872   7.691   8.987  15.334  0.0417  0.3190 -0.1154
 9025W        W25873   2.938  17.013  15.760  0.1694  0.1107  0.0465
 9026W        W25874   8.809  16.093  14.263 -0.3318 -0.1791  0.0169
 9027W        W25875   4.562  11.298   0.530  0.0671  0.0634 -0.1424
 9028W        W25876   3.089   6.283   2.319  0.2410  0.1301  0.1603
 9029W        W25877   9.062   4.898  13.830 -0.1230 -0.1104  0.0405
 9030W        W25878   2.781   7.617   4.932 -0.0460  0.0769 -0.1667
 9031W        W25879  15.384  15.027   4.979 -0.2333 -0.0753  0.0266
 9032W        W25880  10.931   2.841   0.149 -0.0977  0.0277  0.0677
 9033W        W25881   9.534   7.722  14.713  0.0259 -0.1468 -0.3287
 9034W        W25882   7.170  17.425  11.354  0.1325 -0.2673 -0.1619
 9035W        W25883  15.905   0.458   3.276  0.2895  0.0830 -0.0466
 9036W        W25884  12.495  12.735  13.929  0.2191 -0.0127  0.0718
 9037W        W25885   3.508  15.722  15.190  0.0990  0.3163 -0.1212
 9038W        W25886  14.409   3.132   2.121 -0.1103  0.0949  0.3060
 9039W        W25887   8.288   9.799   1.053 -0.0611  0.0182 -0.1129
 9040W        W25888   2.920   5.570  13.005 -0.0330 -0.1190 -0.1504
 9041W        W25889  16.116  17.217  10.677 -0.1857 -0.1739  0.0518
 9042W        W25890   5.760  16.188  11.987  0.3741  0.1690  0.0237
 9043W        W25891   4.182   4.950  14.606 -0.0712  0.1327  0.1398
 9044W        W25892   7.918  16.842   3.358  0.0462  0.0189  0.2203
 9045W        W25893  16.728  10.324  11.285  0.1188  0.1017  0.0766
 9046W        W25894  12.408  14.249   2.688 -0.2268  0.1496  0.2132
 9047W        W25895  17.531  10.757  15.537  0.0850 -0.1304 -0.0171
 9048W        W25896  13.178  12.744   0.084  0.1806 -0.2051  0.1010
 9049W        W25897   7.182   4.235   5.745 -0.1767 -0.0876  0.2961
 9050W        W25898   5.968   9.931   2.998  0.2895 -0.0641  0.0907
 9051W        W25899   4.574   9.024   5.411  0.0337 -0.0766 -0.0941
 9052W        W25900  15.793   4.606  15.083 -0.3204 -0.0304 -0.0482
 9053W        W25901  10.597  10.075  14.266  0.1222  0.0670  0.1256
 9054W        W25902   4.474  12.312   0.803  0.1212 -0.2704  0.0382
 9055W        W25903   5.491  11.272   0.529 -0.0380  0.1302 -0.3253
 9056W        W25904   7.712   1.560  12.861  0.1304 -0.2140  0.0160
 9057W        W25905   8.739   8.080  13.790  0.0539 -0.0234  0.1408
 9058W        W25906   0.353  15.272   4.798 -0.0275  0.1584  0.3072
 9059W        W25907   1.564   3.117  15.245  0.0591 -0.0812  0.1073
 9060W        W25908   9.706   7.868  11.881 -0.0110 -0.1397 -0.0463
 9061W        W25909   8.484   2.455  12.378 -0.1405  0.0495 -0.3889
 9062W        W25910   7.891  12.050  12.864 -0.0380  0.0490 -0.0514
 9063W        W25911   8.649   2.896  12.900 -0.1955  0.1145 -0.0703
 9064W        W25912   4.814  15.074   4.546  0.1503  0.1504 -0.1863
 9065W        W25913   1.279   1.523  14.889 -0.0838 -0.1905 -0.0212
 9066W        W25914   9.757  15.166  13.732  0.3111  0.3860 -0.5178
 9067W        W25915  11.409   2.677  14.763 -0.3605 -0.1613 -0.0579
 9068W        W25916  10.550  17.826  11.604  0.2377 -0.4123 -0.0175
 9069W        W25917   9.880   9.533  12.377 -0.0620  0.2932 -0.0382
 9070W        W25918   0.693  11.969  12.844  0.0557  0.2766 -0.0541
 9071W        W25919   8.143   9.290  12.094  0.3650  0.1806 -0.2452
 9072W        W25920  13.837  12.219   2.951  0.1510  0.0721 -0.0237
 9073W        W25921  16.920  10.671  14.418 -0.2639 -0.2130 -0.2433
 9074W        W25922  13.842  14.813   1.855  0.0223 -0.0194 -0.0634
 9075W        W25923  11.132   4.007   3.719 -0.3691  0.3651 -0.0854
 9076W        W25924   4.515  12.474   5.713  0.1336 -0.0471 -0.0487
 9077W        W25925  12.192   7.009   2.890  0.0712  0.2581 -0.3416
 9078W        W25926   9.414  14.142  11.160 -0.0535 -0.1583  0.0150
 9079W        W25927   3.135  15.703  12.766  0.1492  0.2862  0.2741
 9080W        W25928   5.660  17.865  11.689 -0.0407  0.0903  0.1410
 9081W        W25929  11.501  17.947   6.094 -0.0359  0.0187 -0.1358
 9082W        W25930   6.316   8.330   0.651 -0.3547 -0.1328  0.1653
 9083W        W25931   8.716   4.570   1.676 -0.0774 -0.0319 -0.0602
 9084W        W25932  16.002  16.946  11.912 -0.0757  0.0744  0.1770
 9085W        W25933   2.424   9.545   0.228 -0.0961 -0.1198  0.1172
 9086W        W25934  13.986  15.985   2.656  0.0379 -0.0534 -0.1898
 9087W        W25935   7.493   3.126   4.299  0.3156 -0.1508 -0.0517
 9088W        W25936  17.314   7.929  15.294 -0.1002  0.2053  0.1704
 9089W        W25937   6.804  11.917  14.007 -0.2594 -0.1050  0.0424
 9090W        W25938   8.022   9.653  15.239 -0.2529  0.1803 -0.0083
 9091W        W25939   2.079   4.520   4.266  0.0187 -0.2789 -0.3674
 9092W        W25940  12.935   1.975   2.359 -0.2674  0.0848  0.1166
 9093W        W25941   1.147  16.744  14.732 -0.0229 -0.1267  0.0410
 9094W        W25942   4.995   8.550  16.029  0.0288 -0.3751  0.1403
 9095W        W25943  15.105   9.504   4.770  0.0925  0.1185  0.1516
 9096W        W25944   5.876  16.199   1.466 -0.0903  0.0448  0.0415
 9097W        W25945   3.170   9.118   0.949  0.1409 -0.1399  0.2618
 9098W        W25946  13.060   7.777  13.018  0.1235 -0.1743  0.0002
 9099W        W25947   4.553   5.349   0.532 -0.2142 -0.1308 -0.1610
 9100W        W25948  11.150   3.214  12.211  0.0009  0.2503 -0.0786
 9101W        W25949  17.170  15.708  10.124 -0.3466 -0.2682  0.0466
 9102W        W25950  14.400  13.331  13.871  0.2696  0.1721  0.3336
 9103W        W25951  14.436   8.377  14.672 -0.2601 -0.3451  0.1768
 9104W        W25952  13.416   8.749  14.357  0.0220 -0.0254 -0.1422
 9105W        W25953  10.053  10.607  13.059  0.0672 -0.0365  0.0134
 9106W        W25954   6.733  16.692  12.389 -0.1770  0.1603 -0.1208
 9107W        W25955  14.220   0.425   0.264  0.1624 -0.2044 -0.3024
 9108W        W25956   2.531   0.901  12.025 -0.1044  0.1960  0.1131
 9109W        W25957  10.698   8.419   2.218  0.2637 -0.1681 -0.1540
 9110W        W25958   1.989   1.048   3.301  0.0061 -0.2421 -0.0704
 9111W        W25959   8.908  13.646  13.018  0.0413 -0.3884 -0.4047
 9112W        W25960   8.956  11.540  13.057  0.3657  0.1944 -0.0619
 9113W        W25961  16.227   7.147  11.405  0.1254  0.0308  0.0381
 9114W        W25962   8.845   7.045   4.874 -0.3675  0.0134 -0.2538
 9115W        W25963  10.683   4.677  15.737  0.0052  0.0461  0.1521
 9116W        W25964  15.034   9.213   5.151  0.0653  0.2609  0.1156
 9117W        W25965   8.512  16.734   1.265  0.0945 -0.2553  0.0498
 9118W        W25966   2.951   7.319   2.356 -0.2370  0.1938  0.1464
 9119W        W25967   6.938   3.425   1.710  0.0360 -0.0499  0.0710
 9120W        W25968  17.271   6.440  16.011 -0.0852  0.0106 -0.3106
 9121W        W25969   9.591   7.005   1.278  0.0466  0.3920 -0.1723
 9122W        W25970   6.665   0.484  12.803 -0.1749 -0.0773  0.1014
 9123W        W25971  16.302  11.375  12.509  0.4268  0.3352  0.2270
 9124W        W25972   4.847  14.414  14.882 -0.1460 -0.1743 -0.1512
 9125W        W25973  14.950   1.531  11.452 -0.0465 -0.0716 -0.0599
 9126W        W25974  10.227  10.915   2.131  0.0270 -0.0530  0.1633
 9127W        W25975   0.235  17.415   2.787 -0.0442  0.1225 -0.1539
 9128W        W25976   5.159   0.912  12.064  0.2125  0.1617  0.0265
 9129W        W25977  13.467   0.156   3.975  0.0716 -0.0777 -0.0839
 9130W        W25978  16.493   1.361   0.555  0.2859  0.1856  0.0718
 9131W        W25979   0.334   6.615  11.468  0.0949  0.0064 -0.2035
 9132W        W25980   0.546  15.502   0.071  0.1704 -0.0774  0.0017
 9133W        W25981  14.828  13.872  15.421 -0.1964 -0.0115 -0.0125
 9134W        W25982   7.437   9.291   0.833  0.2994  0.0416  0.2491
 9135W        W25983  14.826  14.391   3.804  0.2411 -0.0285 -0.1028
 9136W        W25984   9.370   2.094  12.562 -0.2297 -0.0354 -0.0183
 9137W        W25985  14.106   3.991  15.781  0.1134 -0.1392  0.0044
 9138W        W25986  14.145  16.104  11.629  0.0528  0.0606  0.1928
 9139W        W25987   7.174   6.460   4.947 -0.1689  0.2233 -0.6542
 9140W        W25988   2.985  12.624   5.429  0.0802  0.1697 -0.3036
 9141W        W25989  16.997   3.253   0.409 -0.2940 -0.0834 -0.0662
 9142W        W25990   1.066  13.547   1.383 -0.1105  0.4869 -0.0193
 9143W        W25991  10.108  12.603  15.450 -0.1541 -0.0974  0.1262
 9144W        W25992  13.855   9.529  15.322  0.1508  0.1677 -0.0160
 9145W        W25993   5.327  11.705   0.397  0.2219 -0.1014 -0.0411
 9146W        W25994   5.418  17.683  15.673 -0.0792  0.2769  0.0499
 9147W        W25995  12.828   9.830  12.450 -0.0848  0.0295 -0.2082
 9148W        W25996   8.623  11.512   3.625 -0.2777 -0.1695  0.3171
 9149W        W25997  17.228  12.455   0.973  0.1062 -0.1448 -0.0356
 9150W        W25998   8.708  11.360   4.092 -0.0992 -0.0584  0.0361
 9151W        W25999   1.525   2.085   1.796 -0.0224 -0.3336 -0.3138
 9152W        W26000   6.385  17.265   0.547 -0.0126  0.0132 -0.3300
 9153W        W26001   6.653  12.723   4.176  0.1002 -0.4717 -0.2526
 9154W        W26002  13.519   6.263   6.153  0.2107 -0.0803 -0.1639
 9155W        W26003  17.954   6.107  13.113 -0.0648 -0.1158  0.3550
 9156W        W26004  10.680  14.637  15.999  0.0804  0.4483  0.0079
 9157W        W26005   7.789  14.414  14.663  0.3259  0.1364  0.0620
 9158W        W26006   4.447  16.946   3.271  0.2609  0.2217  0.1029
 9159W        W26007   2.803  10.585  11.543 -0.0322  0.2282 -0.2608
 9160W        W26008  10.124  11.881  14.278 -0.0507 -0.1214  0.2245
 9161W        W26009   7.228  17.783  13.770  0.1007  0.2643 -0.3492
 9162W        W26010  14.869   9.697  13.941  0.1562 -0.1137  0.0223
 9163W        W26011   3.652   6.783   2.838  0.3736 -0.0054 -0.1039
 9164W        W26012  10.627  12.996  14.114 -0.1967  0.0066  0.0263
 9165W        W26013   4.154   6.813  14.913 -0.0904  0.0477  0.1232
 9166W        W26014   8.473  14.964  11.961 -0.0174 -0.2180 -0.2447
 9167W        W26015  11.753  10.132   4.655  0.0843 -0.1897 -0.3126
 9168W        W26016   2.870   1.313   5.002 -0.0657 -0.1905 -0.2674
 9169W        W26017   1.908   2.323   2.139 -0.1396 -0.1621  0.1196
 9170W        W26018   5.325  11.122   4.898  0.2837  0.0348  0.0196
 9171W        W26019  13.895  14.275   2.517 -0.2806 -0.2044  0.0192
 9172W        W26020  10.892   9.330  12.500  0.2326  0.1967 -0.0797
 9173W        W26021   7.256  11.540  11.969 -0.1416 -0.0817  0.2134
 9174W        W26022   3.951   8.455   0.825 -0.2589 -0.1088 -0.2239
 9175W        W26023  16.337   5.321  11.523  0.0186  0.1384 -0.0333
 9176W        W26024  13.234  15.362  12.757 -0.0930  0.2437  0.0561
 9177W        W26025   1.329  16.776  15.795 -0.0330  0.0410 -0.2041
 9178W        W26026   4.981   6.324  14.228  0.1832  0.1707 -0.0894
 9179W        W26027   1.844   6.240   5.139 -0.2398  0.1835 -0.1973
 9180W        W26028  11.186   4.363  10.531  0.1668 -0.0045 -0.2380
 9181W        W26029  12.464  10.683  14.418  0.2103  0.3529  0.1462
 9182W        W26030  17.979   6.976  14.710  0.0526  0.2026  0.1522
 9183W        W26031   9.575  16.917  12.786  0.1159  0.2593  0.0767
 9184W        W26032   5.771   5.146  12.548  0.0607  0.1713  0.2121
 9185W        W26033   9.967   5.643  14.991  0.1279  0.2126  0.1096
 9186W        W26034   7.865   4.719   2.721  0.1289  0.2344 -0.0773
 9187W        W26035  12.935   0.489  14.345 -0.0770  0.0722 -0.0114
 9188W        W26036   6.563  12.586  15.143  0.1633  0.3813  0.1923
 9189W        W26037   2.246  11.396   4.193 -0.0387  0.1451  0.0866
 9190W        W26038   6.403   4.972  12.545 -0.2487 -0.2575  0.1148
 9191W        W26039   9.672  12.088   1.584 -0.0284 -0.3385  0.0984
 9192W        W26040   1.005  13.400  14.085 -0.1436  0.1049  0.1772
 9193W        W26041  18.061   9.072  11.436  0.1694  0.0072  0.3939
 9194W        W26042  16.306   7.678   4.864  0.0452  0.5169 -0.4081
 9195W        W26043   9.804   5.959  12.352 -0.1514 -0.0998  0.1280
 9196W        W26044   9.657  18.141  11.051 -0.1875 -0.0286  0.2913
 9197W        W26045  11.646   2.983  15.072 -0.0535 -0.1268 -0.0698
 9198W        W26046  16.094  13.799   3.511 -0.0159 -0.1458  0.1118
 9199W        W26047   3.447  10.292  13.454  0.0825  0.1245 -0.1060
 9200W        W26048   3.393   7.690   3.135 -0.0411 -0.1540 -0.3561
 9201W        W26049  12.518   0.053  15.386 -0.3017  0.2144 -0.2617
 9202W        W26050   3.343   1.513  11.406 -0.5709  0.3231 -0.0441
 9203W        W26051  14.730  11.590  13.897 -0.2720  0.1244  0.2158
 9204W        W26052   1.593  14.540  14.089  0.0385  0.0224  0.0700
 9205W        W26053   1.927  13.165   0.969  0.3949 -0.1447 -0.0560
 9206W        W26054  15.835   3.920  15.700  0.1626  0.2753  0.2154
 9207W        W26055   2.690   2.155   3.909  0.3080 -0.1479  0.0270
 9208W        W26056   0.112   1.879   3.425  0.4187  0.1844  0.1118
 9209W        W26057  15.590   8.728  12.545  0.1149 -0.0730 -0.4683
 9210W        W26058  10.179  14.663   2.926  0.1308 -0.0363 -0.0379
 9211W        W26059  16.145   0.953   5.146  0.3584 -0.5113  0.2119
 9212W        W26060  13.763  10.164   2.104 -0.0632 -0.2036  0.3493
 9213W        W26061  15.622   1.627  13.365 -0.0846 -0.2081  0.0495
 9214W        W26062   2.123  11.030  14.564  0.2402 -0.1237 -0.3176
 9215W        W26063   6.477   4.698  15.421  0.0035  0.1712  0.3559
 9216W        W26064   2.564   8.752   2.044 -0.3106 -0.0932 -0.0235
 9217W        W26065   7.363   2.045  13.147 -0.4703 -0.0991 -0.0336
 9218W        W26066   6.964  15.316   2.745 -0.0943  0.4984 -0.1320
 9219W        W26067  13.950  11.888  11.358 -0.2114  0.1023  0.1495
 9220W        W26068  11.700   7.601  12.216 -0.1292  0.1418 -0.1624
 9221W        W26069   5.375   4.663   0.604 -0.2500 -0.1282  0.0768
 9222W        W26070   3.521   1.401  12.323  0.0335 -0.2035  0.0069
 9223W        W26071  15.060   5.093   3.799 -0.0823 -0.2266 -0.1317
 9224W        W26072   1.481   4.552  13.589 -0.2192  0.3153 -0.1026
 9225W        W26073   2.335   4.664   4.709 -0.3284  0.2432 -0.0647
 9226W        W26074   1.666  18.171  14.858 -0.0436 -0.1415  0.0170
 9227W        W26075   8.203   1.618  12.965 -0.0060 -0.0262 -0.1855
 9228W        W26076   6.882  11.013   0.868  0.1235 -0.1363 -0.2966
 9229W        W26077   2.873  13.204   4.548  0.4177  0.1024  0.0495
 9230W        W26078   1.870  15.225  15.136 -0.2026 -0.0078 -0.1115
 9231W        W26079   6.464  17.941   2.340 -0.0326 -0.1187 -0.2319
 9232W        W26080  15.179  13.507  15.633  0.2929 -0.2948 -0.0150
 9233W        W26081  12.243   1.424   3.161  0.2418  0.0477 -0.0991
 9234W        W26082   2.812   6.663   2.607 -0.1191 -0.1574 -0.0384
 9235W        W26083   9.747   6.207   2.749 -0.1554 -0.1424 -0.0450
 9236W        W26084  15.278  12.872   5.044 -0.1067  0.0055 -0.0717
 9237W        W26085  11.344   0.530   1.040 -0.2589 -0.3699 -0.3094
 9238W        W26086   8.426  10.883   2.574 -0.0448 -0.0162 -0.2652
 9239W        W26087  13.014   5.395  13.971 -0.0010  0.2005  0.1133
 9240W        W26088  15.980   6.301   0.512 -0.0976 -0.2571  0.0193
 9241W        W26089   1.216   4.765   4.491 -0.2154  0.0716 -0.4011
 9242W        W26090   0.852  14.541  13.140  0.1145  0.2184 -0.0046
 9243W        W26091   4.768  13.648  14.437  0.3925  0.1315  0.2742
 9244W        W26092  10.266  14.696   4.926  0.1806  0.1853  0.4094
 9245W        W26093   2.346  11.629  12.232  0.2065  0.1518 -0.2365
 9246W        W26094   2.478  11.574   2.775 -0.0286 -0.0035  0.1005
 9247W        W26095  17.015   5.095  13.157  0.0156 -0.4118 -0.0074
 9248W        W26096   4.974  13.659  15.743 -0.0225 -0.0063  0.2068
 9249W        W26097   0.839   1.737  13.943 -0.3913  0.3954 -0.0420
 9250W        W26098   4.430  11.703   2.771 -0.0379  0.3288  0.0927
 9251W        W26099   9.420  10.797   3.072 -0.0413  0.0682  0.3136
 9252W        W26100  14.338  16.090  12.061  0.0446  0.2456 -0.1224
 9253W        W26101   4.346   0.008   4.032  0.0401 -0.1680 -0.1515
 9254W        W26102   0.020   9.558  11.447  0.0573  0.0305 -0.2052
 9255W        W26103   8.788   3.439   0.771  0.1699  0.2342 -0.1164
 9256W        W26104  17.132   6.041  11.796  0.0567 -0.0040 -0.1697
 9257W        W26105  16.215  13.201  12.984 -0.1797 -0.1796  0.1220
 9258W        W26106   9.799   3.541   1.694  0.0520  0.3294  0.2307
 9259W        W26107   5.767   3.372   2.478  0.2253  0.2216 -0.3393
 9260W        W26108  17.319  13.330   3.236 -0.3196  0.0394 -0.0383
 9261W        W26109   5.551   8.820   0.848  0.4610  0.1130 -0.1090
 9262W        W26110   5.460   7.939  13.557 -0.3571 -0.1344  0.0194
 9263W        W26111   4.058   7.841  12.621  0.0154  0.1761  0.1776
 9264W        W26112  15.528   5.135   3.903 -0.1971 -0.3300  0.2106
 9265W        W26113   0.387  12.233   1.565 -0.2482 -0.1968 -0.0933
 9266W        W26114   7.423   4.885   3.337 -0.0374 -0.1631  0.0822
 9267W        W26115   1.878  11.367   0.704 -0.1946 -0.0598 -0.1604
 9268W        W26116  12.882  10.518   4.012  0.0226 -0.0987  0.3976
 9269W        W26117   1.213   3.465  12.228  0.2343  0.0854 -0.2639
 9270W        W26118   1.419  12.607  15.146 -0.1426  0.0518  0.3886
 9271W        W26119   7.007   9.774   4.716  0.3098 -0.0232  0.1004
 9272W        W26120  13.335  13.521   2.153 -0.0342 -0.0752 -0.1372
 9273W        W26121   2.500   1.096  11.219 -0.1323 -0.2452 -0.0701
 9274W        W26122   6.587  12.445   5.057  0.0237  0.0721  0.1639
 9275W        W26123   3.431  11.175   9.895 -0.0798  0.0148 -0.0413
 9276W        W26124   9.356   9.058  12.920  0.2245 -0.0699  0.1800
 9277W        W26125  12.185  17.052   2.596 -0.1077 -0.3669  0.0928
 9278W        W26126   6.806  14.199  15.770  0.0549 -0.3156 -0.2303
 9279W        W26127   0.908  12.127   4.152  0.2000  0.3834 -0.2063
 9280W        W26128   6.154   0.763  12.892  0.1725  0.1225 -0.2152
 9281W        W26129  10.930   1.652  11.209  0.0536 -0.0347  0.0822
 9282W        W26130  15.403   0.094  12.288  0.2274 -0.0768  0.0418
 9283W        W26131  12.651   2.864   4.440  0.0059 -0.0132 -0.1456
 9284W        W26132  10.281   1.239  15.984  0.1025 -0.1203  0.1893
 9285W        W26133  17.031   3.453   2.962  0.1104  0.1484 -0.1992
 9286W        W26134   3.903   4.071  14.139 -0.0410 -0.0588  0.1564
 9287W        W26135   9.757  17.293   4.873  0.1788 -0.1408  0.2698
 9288W        W26136   0.244  15.056   2.507  0.0026 -0.0009 -0.1021
 9289W        W26137   1.577   5.873  12.131 -0.3738  0.4020  0.0704
 9290W        W26138   2.247   6.004  15.496  0.1419 -0.1443  0.2881
 9291W        W26139  11.014  10.276  11.923 -0.0810 -0.2020  0.1762
 9292W        W26140   0.536  10.677   2.156  0.1135  0.0289 -0.0700
 9293W        W26141   8.830   3.516  14.799  0.0676  0.1043  0.2299
 9294W        W26142   4.252   8.999   5.001 -0.1504 -0.1337 -0.1633
 9295W        W26143   1.483   6.739  11.727  0.1877  0.0767  0.2821
 9296W        W26144   6.752   7.249  14.893 -0.0120  0.2471  0.0249
 9297W        W26145   6.276  13.084   4.140  0.0003 -0.1537 -0.0704
 9298W        W26146   1.464  10.020   4.365  0.2117  0.0251  0.1109
 9299W        W26147   5.871   9.934   5.947 -0.2385 -0.1050 -0.1711
 9300W        W26148  13.561  17.807   4.351  0.1568 -0.2852 -0.5016
 9301W        W26149  15.882   8.152   1.652  0.2798  0.0814 -0.2530
 9302W        W26150   5.534  16.429  14.451 -0.0640 -0.1105  0.0077
 9303W        W26151  17.011   6.801   5.199 -0.1803 -0.1362  0.0911
 9304W        W26152  15.460   7.192   0.966 -0.1288  0.0756 -0.2012
 9305W        W26153   0.306  15.833   0.489 -0.1393  0.2895 -0.0272
 9306W        W26154  15.151  17.461  13.121  0.1071  0.0579  0.1939
 9307W        W26155   1.918  12.707   1.197  0.3536  0.0565  0.0375
 9308W        W26156  10.320  18.164   4.085 -0.0977 -0.3005  0.3541
 9309W        W26157  13.511   8.805   3.149 -0.1795 -0.1946 -0.0118
 9310W        W26158   8.393   5.296   2.212 -0.0458  0.3435  0.2042
 9311W        W26159  15.530   5.862   3.223 -0.0979  0.2566 -0.3695
 9312W        W26160   1.485  16.878   2.493  0.1014 -0.0997  0.0787
 9313W        W26161  13.569   2.825   1.149  0.3268  0.0471 -0.0452
 9314W        W26162  18.090   2.900   4.415  0.1767 -0.0976 -0.0496
 9315W        W26163   2.452   4.402  13.845 -0.2108 -0.1921  0.0858
 9316W        W26164  17.420  15.981   4.670  0.0490 -0.0472 -0.2161
 9317W        W26165   9.736   4.858   6.334  0.0287 -0.1641  0.0819
 9318W        W26166  11.871   0.054   3.275 -0.1314 -0.3075  0.1080
 9319W        W26167   8.381  12.432  14.495  0.0358 -0.2956 -0.3043
 9320W        W26168  17.436   6.236   1.968  0.0259  0.3268 -0.2468
 9321W        W26169  13.297   5.063  12.552  0.0948 -0.1117  0.0443
 9322W        W26170  17.031  10.411  15.815 -0.0857 -0.1260 -0.1223
 9323W        W26171   4.461   6.148  12.947 -0.2487  0.1185 -0.1418
 9324W        W26172  18.022   8.364   1.056 -0.0898 -0.1133 -0.0695
 9325W        W26173   2.580  16.321   3.654  0.2175  0.2250  0.1137
 9326W        W26174   7.886  10.109   2.383  0.4089 -0.3142 -0.0027
 9327W        W26175   4.522   7.239  14.117  0.0543  0.0478 -0.2516
 9328W        W26176   4.477  17.806   4.356  0.1621 -0.0433 -0.0629
 9329W        W26177  14.313  12.699  14.485 -0.1484 -0.1830 -0.1267
 9330W        W26178  17.883   5.114  13.447  0.4263 -0.0435 -0.3085
 9331W        W26179  10.631   6.691  14.713 -0.1688  0.3290 -0.1357
 9332W        W26180   7.563   8.240  11.033  0.1728  0.0450  0.0560
 9333W        W26181   3.268   3.034   3.016 -0.1338 -0.0974  0.0125
 9334W        W26182   7.150  15.563   0.832  0.1910 -0.1452 -0.2299
 9335W        W26183   9.728  17.688  13.809  0.2903  0.1407 -0.2355
 9336W        W26184  15.403   4.006   3.946  0.1400 -0.2464  0.0155
 9337W        W26185   8.943   1.077   4.516 -0.2513  0.2184 -0.1167
 9338W        W26186   3.077   3.043  14.180  0.0224  0.1707  0.0121
 9339W        W26187   2.853  12.365   5.044  0.2817  0.0452  0.0539
 9340W        W26188   0.171   7.378   3.886  0.0429  0.2287 -0.1189
 9341W        W26189  15.100   0.825  14.588 -0.0944  0.0235  0.1252
 9342W        W26190   8.467   5.033  14.349  0.3581  0.1541 -0.0702
 9343W        W26191   0.557   5.375   2.045  0.0111 -0.1020  0.0211
 9344W        W26192  12.916  18.067   1.739  0.2629  0.0231  0.0539
 9345W        W26193   1.455  12.231   2.263 -0.0872 -0.1022  0.0650
 9346W        W26194  11.519  12.303   0.748  0.1758  0.2797  0.1061
 9347W        W26195   1.865  15.074   4.851 -0.5896  0.2055  0.0028
 9348W        W26196  14.179  10.338  11.356  0.1167  0.2538 -0.0428
 9349W        W26197  17.349   8.364   4.321 -0.0709 -0.1022  0.0212
 9350W        W26198  17.755   4.423  14.392 -0.4288  0.1479 -0.0621
 9351W        W26199   7.862  13.150   3.149 -0.0091 -0.1539  0.0580
 9352W        W26200   1.563  17.874   2.915 -0.2345  0.0170  0.1839
 9353W        W26201  11.422   9.182  12.692  0.0482 -0.4080 -0.0205
 9354W        W26202   0.737   8.076  15.914  0.2289  0.4075  0.0884
 9355W        W26203   3.306  15.944   6.064  0.0287  0.1475  0.0013
 9356W        W26204  10.943   9.049   3.361 -0.0096 -0.4042  0.1342
 9357W        W26205  17.076  16.836   4.033 -0.2084 -0.0581 -0.3116
 9358W        W26206  14.613   8.362   6.331 -0.2412  0.1171 -0.0596
 9359W        W26207   5.232   4.752  15.269  0.0131  0.2361  0.0740
 9360W        W26208   4.060  11.286   2.776 -0.2200  0.0524 -0.1454
 9361W        W26209   4.041  10.791   2.524 -0.0125 -0.2140  0.0609
 9362W        W26210  11.801   4.288  13.121  0.1854 -0.0930  0.0484
 9363W        W26211   1.045   9.223   4.858 -0.0819 -0.1796 -0.0984
 9364W        W26212  10.174   1.619  15.646  0.3914 -0.1457 -0.1189
 9365W        W26213   6.569   0.603   2.268 -0.0395 -0.1255 -0.0105
 9366W        W26214   4.963   9.673   5.175  0.2763 -0.2218  0.0726
 9367W        W26215   4.832  11.965   3.011  0.2631  0.0724 -0.0971
 9368W        W26216   3.325  11.972  12.921  0.0844 -0.2510  0.2779
 9369W        W26217   1.583   2.651  15.010 -0.1133  0.2466  0.2131
 9370W        W26218  11.295   8.039   4.423  0.0971 -0.1259 -0.0461
 9371W        W26219  17.481  13.636   2.161  0.1471  0.3170 -0.1070
 9372W        W26220  16.430   6.358   3.346 -0.0220 -0.2057  0.1011
 9373W        W26221  13.723  13.073   0.259  0.2131  0.0840  0.2064
 9374W        W26222   5.604   7.140  12.095 -0.0642 -0.3702 -0.0966
 9375W        W26223  15.657   0.409   0.214 -0.0047 -0.3752 -0.1245
 9376W        W26224  12.781   8.089  13.273 -0.3039 -0.3013 -0.0163
 9377W        W26225   2.778  15.923  15.969 -0.2050 -0.1392 -0.0182
 9378W        W26226  17.140  11.818   1.982 -0.0378  0.5757  0.0838
 9379W        W26227   8.570   4.406   0.668  0.0922  0.2563  0.0156
 9380W        W26228   0.451  16.802   0.559 -0.0125 -0.3615 -0.2085
 9381W        W26229   2.804  14.409   1.398 -0.0941  0.4745  0.2499
 9382W        W26230  10.049   5.717   3.644  0.2941  0.2291 -0.0177
 9383W        W26231   4.062   9.472   1.704 -0.2211  0.1299 -0.4028
 9384W        W26232   7.337   8.830  12.726 -0.0677 -0.3163  0.1708
 9385W        W26233  11.454  13.218  14.331  0.2068  0.1283  0.1428
 9386W        W26234   3.352   8.994   4.716  0.2899 -0.1574  0.2159
 9387W        W26235  16.606  14.920  16.079  0.1869  0.0102  0.2073
 9388W        W26236  15.776   3.521  15.363  0.0024 -0.1331 -0.2475
 9389W        W26237  14.092  14.267   5.494  0.0009  0.0502  0.0430
 9390W        W26238  10.414   8.516  13.999  0.1092 -0.0168 -0.2116
 9391W        W26239  11.303  14.683  11.106 -0.1502 -0.2626 -0.0773
 9392W        W26240   1.743   4.182   4.357  0.2674 -0.1659  0.0869
 9393W        W26241   4.835  16.381   1.014 -0.2653  0.1618  0.0599
 9394W        W26242  16.060   6.338   3.967 -0.2616  0.3177 -0.2166
 9395W        W26243  10.895  16.392   3.160 -0.1484 -0.1732 -0.1944
 9396W        W26244  17.362  10.672   5.151 -0.2017  0.1378 -0.0510
 9397W        W26245   5.262   9.980  12.350 -0.4695  0.3316 -0.0512
 9398W        W26246   3.960  17.164  14.145 -0.2344  0.4961 -0.0567
 9399W        W26247   7.734  16.717  12.441  0.0020 -0.0303 -0.1499
 9400W        W26248  15.866  17.387  12.132  0.1003  0.1926  0.2402
 9401W        W26249   2.686  11.308   4.381 -0.5031 -0.0510  0.1516
 9402W        W26250  10.309   5.839   5.027  0.0550 -0.0994 -0.2538
 9403W        W26251   0.113  17.214   3.253 -0.0590  0.0504 -0.2363
 9404W        W26252  14.255  14.389  11.596 -0.0554 -0.1765 -0.1150
 9405W        W26253  10.578   6.339   2.094  0.1991  0.1155  0.1407
 9406W        W26254   4.982   2.678  10.374  0.1551  0.1319  0.0269
 9407W        W26255  17.092   9.480   1.183  0.0674  0.0236  0.1806
 9408W        W26256   8.694   1.532   2.250  0.2400 -0.0494 -0.0814
 9409W        W26257  14.226   6.998   0.715  0.2981  0.1414 -0.0044
 9410W        W26258  17.194   9.194   3.501  0.1683 -0.0646  0.2454
 9411W        W26259   5.129  13.891   3.531  0.0396 -0.1368  0.1192
 9412W        W26260   4.206  12.079  14.670 -0.1556  0.1200  0.0532
 9413W        W26261   1.657  14.778  15.888 -0.0934  0.3026 -0.1911
 9414W        W26262   0.727   5.971   2.673 -0.1992 -0.0083 -0.2328
 9415W        W26263  15.088  18.123   1.053 -0.0862  0.2848  0.1425
 9416W        W26264   7.502  10.627   4.356  0.0830 -0.0324  0.1130
 9417W        W26265  12.362  12.112   2.089  0.0788  0.1492 -0.1083
 9418W        W26266   3.655   9.421   0.165 -0.1753  0.0322  0.2757
 9419W        W26267   5.038   2.631  14.205 -0.2388  0.0551  0.0210
 9420W        W26268   7.597   0.386   3.522  0.2106  0.1665  0.0482
 9421W        W26269   1.301   3.290   3.548 -0.0683  0.0008  0.0136
 9422W        W26270  12.759  11.555  14.489 -0.1043 -0.3301  0.0331
 9423W        W26271  12.170   0.388   0.069 -0.0528 -0.0307 -0.2607
 9424W        W26272   0.625   1.663  12.866 -0.4191  0.3508  0.2729
 9425W        W26273  12.447   4.773   5.784  0.3481  0.0058 -0.1097
 9426W        W26274   4.774   9.724  14.801 -0.2703  0.0244  0.0161
 9427W        W26275   7.701   4.961  11.960 -0.0936  0.0572  0.0585
 9428W        W26276   4.253   6.625   2.992 -0.0523  0.0615 -0.0156
 9429W        W26277   4.190   7.975  11.770  0.2432  0.0819  0.0905
 9430W        W26278   0.270   2.113   1.097  0.1597  0.0844  0.1231
 9431W        W26279  16.356   6.648  11.783 -0.2083 -0.0385  0.1334
 9432W        W26280   4.540  15.498   0.598 -0.0905  0.1844 -0.1742
 9433W        W26281   3.878  16.595   0.536  0.1690 -0.1506  0.2525
 9434W        W26282   3.593  10.444  12.514 -0.0990  0.0768  0.0538
 9435W        W26283   9.438   0.099  13.941 -0.0804  0.1203  0.1526
 9436W        W26284   0.406  10.358  11.547  0.0679  0.0303  0.1668
 9437W        W26285  11.159   1.293   3.431 -0.1542 -0.1701  0.0475
 9438W        W26286   5.114  18.217   0.338 -0.1775 -0.3893  0.0386
 9439W        W26287  12.291   6.757  15.131  0.1092  0.0512  0.0855
 9440W        W26288  14.182  17.943   4.476  0.2413  0.2491 -0.1114
 9441W        W26289   1.780   1.151  11.730  0.0017 -0.1280 -0.2650
 9442W        W26290   7.252   1.600  12.391 -0.1690  0.2239  0.2125
 9443W        W26291   7.777   5.767  11.451  0.0981  0.0719 -0.2739
 9444W        W26292  16.347  12.846   3.229  0.1008  0.2451 -0.1784
 9445W        W26293  15.865  12.795   3.032  0.0605 -0.0544  0.1188
 9446W        W26294   9.959  12.501   1.695 -0.0490 -0.1274  0.1432
 9447W        W26295  13.596   3.904  11.918  0.0723 -0.0529 -0.1170
 9448W        W26296  10.361   5.744  14.731  0.0476 -0.3001  0.2769
 9449W        W26297   0.839  10.333   1.717 -0.0588 -0.1074 -0.0509
 9450W        W26298   2.020   0.966  13.012 -0.1248 -0.0106 -0.1020
 9451W        W26299   5.176  10.642   1.072 -0.1000  0.3242 -0.0372
 9452W        W26300  11.105   0.019  14.060 -0.0298  0.0601  0.3447
 9453W        W26301   5.735   7.839   4.714 -0.0644  0.0955  0.1925
 9454W        W26302  16.833   6.750   0.656  0.0592 -0.0042 -0.2196
 9455W        W26303  15.708  11.809   2.524 -0.0371 -0.0681 -0.2728
 9456W        W26304   0.371  14.125   1.008  0.1077 -0.0315  0.2916
 9457W        W26305   6.735  12.732  12.653 -0.3485  0.1523 -0.3029
 9458W        W26306   1.592   1.154   0.235  0.0253 -0.0049 -0.2168
 9459W        W26307  13.743   6.169  13.417 -0.0290 -0.1575 -0.0454
 9460W        W26308  18.189  12.031  11.968 -0.1302 -0.0572  0.0097
 9461W        W26309   7.272   0.488  14.214  0.0034  0.1420 -0.0220
 9462W        W26310   5.398   9.616   1.245  0.1289  0.2516  0.0402
 9463W        W26311  14.233   7.664   4.953 -0.2437  0.1006 -0.2026
 9464W        W26312   2.899   9.280   1.331 -0.0604  0.1091  0.1028
 9465W        W26313  10.980   7.219   3.787 -0.1223  0.0277  0.2385
 9466W        W26314   6.396   3.708  15.308  0.0917 -0.0459  0.2862
 9467W        W26315  12.391  11.202  12.343  0.1992  0.1707 -0.1976
 9468W        W26316   2.983  13.599   0.592  0.3270  0.3688 -0.1259
 9469W        W26317  10.815  16.799  15.883 -0.1179  0.2281 -0.1987
 9470W        W26318  18.172   3.081  12.491  0.2073  0.1369 -0.0378
 9471W        W26319   3.023  15.828   4.290 -0.1825 -0.1407 -0.0576
 9472W        W26320   1.182  11.744  14.128  0.1048  0.2489  0.0327
 9473W        W26321  14.395   6.968   5.513 -0.0137 -0.0190 -0.0096
 9474W        W26322   2.171   3.880  13.824 -0.2868  0.2316  0.2681
 9475W        W26323   0.275   2.351  13.475 -0.2873  0.0401  0.0813
 9476W        W26324   0.137   5.996   0.481  0.2146  0.2707 -0.0157
 9477W        W26325   5.801   9.198  13.632  0.2228 -0.0281  0.1622
 9478W        W26326  13.773   8.408   3.957  0.0250  0.1040 -0.2662
 9479W        W26327   6.281  14.247  15.471  0.0446  0.0891 -0.2246
 9480W        W26328   8.800  10.804  15.871  0.0429  0.1417  0.1233
 9481W        W26329   2.634   5.365   2.753 -0.3798 -0.0233 -0.0899
 9482W        W26330   2.088   8.546  15.671 -0.2660 -0.3172 -0.0678
 9483W        W26331  13.294   8.577  10.797 -0.1283  0.0515 -0.0515
 9484W        W26332   9.659  12.653  11.335 -0.0119 -0.0098  0.1643
 9485W        W26333  10.886  16.948   3.806  0.1042  0.2230  0.0119
 9486W        W26334   0.538  15.063   1.252 -0.0756  0.0567 -0.0248
 9487W        W26335  10.525   0.744   2.357  0.0935  0.0489  0.2253
 9488W        W26336  10.032   2.542  11.819 -0.0086  0.2205  0.1475
 9489W        W26337   6.690   4.276   2.367 -0.1419 -0.0900  0.1030
 9490W        W26338  17.880   5.398  15.429  0.0032 -0.0127  0.5606
 9491W        W26339  15.450   7.912  15.557 -0.0377 -0.0585  0.1595
 9492W        W26340  11.627   7.971  13.427  0.0636 -0.1858 -0.1418
 9493W        W26341   1.617  10.809   4.606 -0.0890  0.0137 -0.3472
 9494W        W26342  14.074  13.111   1.521 -0.1736 -0.0950  0.1888
 9495W        W26343  12.142   0.479  11.633  0.1959  0.0494  0.1212
 9496W        W26344   5.769  16.576   0.530  0.1869  0.1194 -0.0957
 9497W        W26345   8.634   5.040   1.828 -0.3977  0.0142 -0.0935
 9498W        W26346   0.343   6.463   0.577  0.1506 -0.0800  0.1602
 9499W        W26347   6.420  11.650  15.980  0.0535 -0.1686 -0.2647
 9500W        W26348  11.069   1.796   5.455  0.1022  0.0422  0.2904
 9501W        W26349   5.561  14.038   4.919  0.0014  0.1023  0.1265
 9502W        W26350   4.291   6.912  13.320  0.1015 -0.0918 -0.2073
 9503W        W26351  11.752  17.959   0.682  0.1563  0.1777 -0.3002
 9504W        W26352  10.059  14.386   1.669  0.0852  0.4036 -0.1024
 9505W        W26353  17.681  13.973  11.313 -0.0166 -0.1353 -0.0180
 9506W        W26354   6.098  17.570  13.058  0.0217  0.4140 -0.1657
 9507W        W26355   0.578   9.852  13.354 -0.3460  0.0460 -0.2574
 9508W        W26356   7.603  14.192  15.101  0.3314  0.0579 -0.0376
 9509W        W26357   3.522   1.030   4.457 -0.1358 -0.0418 -0.0013
 9510W        W26358  13.203  14.472   0.671  0.0325  0.0790  0.1920
 9511W        W26359   1.289   4.369  11.699 -0.0459  0.0764 -0.1482
 9512W        W26360   5.457  13.671  13.787 -0.3031 -0.1065 -0.0898
 9513W        W26361  11.203   7.825  10.946  0.0771  0.0578 -0.0227
 9514W        W26362   1.333   5.023  13.213 -0.0142 -0.1467  0.3654
 9515W        W26363   3.129   1.196   2.779  0.0746 -0.1166  0.2747
 9516W        W26364   0.830   5.826  13.383 -0.2586  0.0393 -0.2430
 9517W        W26365  12.270  15.486  14.087 -0.1388 -0.0759 -0.1536
 9518W        W26366   0.733   4.633   3.852  0.0064 -0.1654  0.0081
 9519W        W26367   2.677   6.156   2.587 -0.1301 -0.0932 -0.2512
 9520W        W26368   1.388   3.919  11.954  0.0914 -0.2670  0.1800
 9521W        W26369  14.881  11.807  15.127  0.3528 -0.2588  0.6571
 9522W        W26370   1.074   5.534  12.903  0.3541 -0.1832  0.1478
 9523W        W26371   6.026  13.472  10.663  0.3595  0.3946 -0.0384
 9524W        W26372  11.435  14.061   3.487 -0.0776  0.1852  0.2249
 9525W        W26373  11.569   9.817   4.144  0.1441 -0.1469 -0.0884
 9526W        W26374  11.230  11.080  13.064  0.1017 -0.0242  0.0006
 9527W        W26375   0.652   5.435  14.710 -0.4517  0.1882 -0.1394
 9528W        W26376   1.634   4.659   1.687 -0.3907  0.1149  0.0243
 9529W        W26377  17.268  11.806  13.883  0.0167  0.0359 -0.3825
 9530W        W26378  12.039   8.969   4.638  0.0738 -0.0253  0.0130
 9531W        W26379  17.548   7.621  13.306 -0.1675  0.0799 -0.0524
 9532W        W26380   6.948   6.097  12.450 -0.1785 -0.0611  0.0523
 9533W        W26381   8.087  16.111  13.675  0.1807 -0.1202 -0.0079
 9534W        W26382  16.009  18.146   2.409  0.1650 -0.1908 -0.2378
 9535W        W26383   0.056  15.402  12.140 -0.0120 -0.0274  0.2381
 9536W        W26384   8.287  15.022  15.014 -0.0157 -0.0967 -0.2214
 9537W        W26385   4.072  10.622  11.073 -0.0531 -0.0959 -0.2363
 9538W        W26386   5.365  17.759   4.763  0.0661 -0.1246 -0.1253
 9539W        W26387   0.750   5.398   0.271  0.0913  0.2225 -0.4344
 9540W        W26388  16.441  14.266  11.597 -0.1019 -0.0070  0.0025
 9541W        W26389  11.484   4.456   3.579 -0.1132 -0.0676  0.2276
 9542W        W26390   8.698   4.916   1.143 -0.1145 -0.0384 -0.1578
 9543W        W26391   2.985   1.366   2.323 -0.2803  0.0254 -0.1680
 9544W        W26392  12.105   9.797   5.390 -0.2994 -0.1294  0.1262
 9545W        W26393   6.995   4.279   0.094 -0.0594  0.3153 -0.1418
 9546W        W26394   6.645   5.340  12.960 -0.0669 -0.1740  0.1615
 9547W        W26395  10.801   3.464   1.808 -0.1220 -0.0586 -0.1898
 9548W        W26396  15.708  13.241   0.411  0.0553 -0.2763 -0.2289
 9549W        W26397   4.402  14.767   2.297  0.1110 -0.3200  0.2307
 9550W        W26398  10.097  13.199  14.060  0.1755  0.1003  0.0435
 9551W        W26399  10.388  13.278  13.059 -0.1774 -0.1258 -0.3144
 9552W        W26400  17.702  11.995  12.650  0.1774  0.1207 -0.2329
 9553W        W26401   2.457  12.135   0.478  0.1918  0.0493 -0.2102
 9554W        W26402   2.904   6.423   4.276 -0.1121 -0.3042 -0.0439
 9555W        W26403   3.706   1.616  15.843  0.2062  0.0419 -0.0671
 9556W        W26404   2.680   2.014  12.579 -0.1031  0.1363  0.1231
 9557W        W26405  13.947   4.326   2.815  0.1781 -0.1582 -0.0466
 9558W        W26406   0.106   5.049   3.708  0.0750  0.2935  0.3938
 9559W        W26407  12.376   7.167  14.790  0.2044  0.2405 -0.3699
 9560W        W26408   9.373   1.012  13.628  0.0785 -0.0073 -0.3655
 9561W        W26409   5.367  17.543   2.332 -0.1274 -0.2788 -0.1772
 9562W        W26410   5.069  17.133   0.015  0.1504  0.1609  0.0910
 9563W        W26411   4.960  16.823   2.633  0.2763 -0.0707  0.0369
 9564W        W26412  12.700   1.262  13.735 -0.2823 -0.1805 -0.0438
 9565W        W26413   4.452   8.658  12.848  0.0346  0.1637 -0.0551
 9566W        W26414   4.552   5.269  11.538 -0.1895 -0.0662 -0.3420
 9567W        W26415   9.762   2.730  10.385 -0.1537 -0.0047 -0.3707
 9568W        W26416  14.775  16.673   2.141 -0.3905  0.0586  0.3349
 9569W        W26417   7.347   3.478   5.240  0.1820 -0.0200 -0.0434
 9570W        W26418  16.303   3.816  15.946 -0.0648  0.1611 -0.0368
 9571W        W26419  10.455   5.803  15.663 -0.0826 -0.1869 -0.2610
 9572W        W26420   8.458   9.430  12.476 -0.0059  0.0232  0.4136
 9573W        W26421  11.611   0.291   0.441 -0.0437 -0.2826  0.1239
 9574W        W26422  13.105   5.911   0.814  0.0644 -0.0311 -0.2287
 9575W        W26423  12.286   7.686  11.846  0.3378 -0.0493  0.1236
 9576W        W26424   8.208  14.905  15.823  0.0235  0.5029 -0.0169
 9577W        W26425   6.702   7.876  16.109 -0.1526 -0.2085  0.0074
 9578W        W26426  11.835  11.858   4.881 -0.0536 -0.0604 -0.4387
 9579W        W26427   7.130  14.887   5.122 -0.0974  0.2150 -0.2009
 9580W        W26428  11.744  13.117   0.375  0.2209 -0.0175 -0.2849
 9581W        W26429   5.219   0.431  16.028  0.0709 -0.3357  0.2448
 9582W        W26430  12.695   8.640  15.248  0.0859  0.0901 -0.0714
 9583W        W26431   3.457   9.786  11.695  0.2579  0.2214  0.2897
 9584W        W26432   7.495   6.000  15.618  0.1942  0.0751  0.3155
 9585W        W26433  12.234   4.690  11.421  0.2691  0.1528 -0.0220
 9586W        W26434   2.970  14.200  15.761  0.4627 -0.1895  0.0578
 9587W        W26435  11.524  15.124  14.012  0.0989  0.0664  0.0284
 9588W        W26436  11.851  17.554  13.790  0.0139  0.0993 -0.0671
 9589W        W26437  11.825  14.516   4.684 -0.0405  0.0766  0.0328
 9590W        W26438   3.472  16.913   1.520  0.2501  0.2777 -0.0750
 9591W        W26439  11.498   6.650  13.089  0.0040 -0.0796 -0.0016
 9592W        W26440   3.502   7.903  14.199 -0.0315 -0.1401  0.2744
 9593W        W26441  17.359   9.098   0.836  0.0021  0.1208  0.2034
 9594W        W26442   9.511  13.616  14.859 -0.3900  0.1317 -0.0386
 9595W        W26443   1.288   5.908  14.471  0.2634  0.2841  0.1803
 9596W        W26444   6.316  12.023   4.846 -0.1249 -0.0680  0.1585
 9597W        W26445   1.100  10.026   3.998 -0.0242  0.0409  0.1151
 9598W        W26446  16.433   0.210  15.581 -0.2862  0.4546 -0.1302
 9599W        W26447  17.872  14.992   4.494  0.0162  0.1504  0.2995
 9600W        W26448   7.147  12.427   1.799 -0.1874  0.0875  0.0850
 9601W        W26449  16.393  15.576  14.475 -0.2473  0.0039  0.2468
 9602W        W26450   6.793   6.722  13.996 -0.0769  0.1877  0.1415
 9603W        W26451   2.295  14.432   2.743  0.0321  0.0288  0.1260
 9604W        W26452  11.141   9.261  15.986 -0.0948 -0.1370  0.0488
 9605W        W26453  15.891  12.459  13.300  0.1430 -0.2192  0.0347
 9606W        W26454   4.824   7.335   1.690  0.1538 -0.0061  0.1495
 9607W        W26455  15.746   9.933   2.666 -0.0631  0.2740 -0.1249
 9608W        W26456  17.346  15.877  15.865  0.4750 -0.3457  0.2065
 9609W        W26457   4.297  12.564   3.303  0.2923  0.0994  0.0098
 9610W        W26458   7.745   8.851   2.651 -0.2629 -0.0635  0.1135
 9611W        W26459   7.341   6.324   2.719  0.0654  0.2363  0.1724
 9612W        W26460   7.983   2.920  15.009  0.1192 -0.1522  0.1562
 9613W        W26461  11.442   5.483   1.806 -0.0448 -0.1292 -0.0904
 9614W        W26462   4.418  16.386  15.268  0.0172 -0.0037 -0.0562
 9615W        W26463  12.949   1.023  15.113  0.1677  0.4736  0.1424
 9616W        W26464  16.840  11.170  15.757  0.0243 -0.0090 -0.1573
 9617W        W26465   7.814  11.733  10.898 -0.1057 -0.0466  0.0738
 9618W        W26466  14.494  17.896  16.048 -0.1789 -0.0545  0.1248
 9619W        W26467  17.422   2.968  13.759  0.1793 -0.0884  0.0984
 9620W        W26468  12.990  15.681   1.315 -0.0486 -0.0708  0.4892
 9621W        W26469  11.099   1.801   1.368  0.0487 -0.3904  0.1051
 9622W        W26470  12.830   4.081   3.261  0.1587 -0.2066  0.0276
 9623W        W26471  10.462  16.762  14.509  0.1059  0.1664  0.0085
 9624W        W26472   3.474   1.182  14.188  0.1538  0.0794  0.4155
 9625W        W26473   5.651  12.555   3.810  0.1465 -0.0177 -0.3107
 9626W        W26474  10.080   1.599  14.054 -0.0647 -0.2039  0.0580
 9627W        W26475   7.615   3.250  12.798  0.0573  0.0957  0.4945
 9628W        W26476   1.492   8.548  10.371  0.3815  0.1026  0.3035
 9629W        W26477  10.511  11.959  10.436  0.1430 -0.0046  0.1153
 9630W        W26478  15.018  14.991  12.499 -0.1028 -0.5641  0.1398
 9631W        W26479   5.867   7.116  10.721  0.0300  0.2216  0.0719
 9632W        W26480   9.908  10.657   5.407  0.2285  0.1821 -0.1849
 9633W        W26481   8.527   6.682   1.333  0.0392 -0.2753  0.2862
 9634W        W26482   9.913  16.550  13.127  0.2050  0.4038  0.4081
 9635W        W26483   6.832   7.530   1.594  0.0946 -0.3798  0.0978
 9636W        W26484   8.597   0.617   1.920 -0.3380 -0.0207  0.0371
 9637W        W26485  13.526  12.201  11.475  0.1283  0.0989  0.3698
 9638W        W26486  15.531  14.843   2.384  0.0936 -0.3928  0.3685
 9639W        W26487  10.568   9.620  11.209  0.0023 -0.2564  0.1611
 9640W        W26488  17.255  16.433   2.765  0.1196 -0.1539 -0.1346
 9641W        W26489  16.950   9.212  14.907 -0.1055 -0.2506 -0.2775
 9642W        W26490  12.792  15.934  15.761  0.3449  0.3363  0.3292
 9643W        W26491   2.157  13.584  12.864 -0.0994  0.1138 -0.1306
 9644W        W26492   8.330  13.272  14.781 -0.1121 -0.1456 -0.2314
 9645W        W26493  10.380  10.124  12.874 -0.0536 -0.0847 -0.1836
 9646W        W26494   7.988   2.698  15.454  0.1261 -0.2658 -0.0782
 9647W        W26495  11.320   1.485   0.988  0.0693 -0.0939 -0.1277
 9648W        W26496   9.909  11.026  13.603 -0.0377 -0.1995  0.0559
 9649W        W26497   5.471  15.684   1.222  0.2660 -0.2714  0.0329
 9650W        W26498  18.086  16.193  15.288 -0.1512 -0.0275  0.3104
 9651W        W26499  11.796   3.191   2.768 -0.1207 -0.3211 -0.3094
 9652W        W26500  16.779  13.986  11.953 -0.2754  0.1651  0.2557
 9653W        W26501  13.674   2.618  12.622 -0.0266 -0.1848  0.0863
 9654W        W26502  17.608  17.477   2.270 -0.1623 -0.3119 -0.1146
 9655W        W26503  16.903  18.061   4.774  0.0836 -0.0114  0.3349
 9656W        W26504   6.809  17.871   0.072 -0.0824  0.0776  0.1787
 9657W        W26505  11.301   6.928   0.502  0.0818  0.0500 -0.0999
 9658W        W26506  16.139  10.611   2.008  0.1320 -0.2905  0.0982
 9659W        W26507  16.942  14.571   2.905 -0.1002 -0.0049 -0.3426
 9660W        W26508   5.746   2.150  14.633  0.1679 -0.4913  0.1579
 9661W        W26509   0.855  16.413  11.997  0.0813 -0.0989 -0.1001
 9662W        W26510   2.780  17.450  12.645 -0.0543 -0.0797  0.1055
 9663W        W26511   9.933  11.851  13.792 -0.1506  0.1405 -0.0312
 9664W        W26512   0.607   2.086  12.524 -0.1924  0.0444 -0.1678
 9665W        W26513   8.514   2.798  11.104  0.1509  0.1680 -0.1936
 9666W        W26514   5.351  15.082   3.814 -0.0575  0.0534 -0.0139
 9667W        W26515  15.247   7.340   5.733 -0.1732  0.0178 -0.2063
 9668W        W26516   5.263   9.898  11.476  0.3462 -0.0903 -0.0291
 9669W        W26517   1.508   3.844  11.055 -0.0080  0.2693 -0.0398
 9670W        W26518  13.874  10.883   5.378 -0.2164  0.0379 -0.0794
 9671W        W26519   7.620  10.519  13.636  0.1607  0.0248 -0.2678
 9672W        W26520   7.026   9.059   3.431 -0.0210  0.0525  0.0269
 9673W        W26521  15.637  11.376  11.307  0.2486  0.1670  0.0433
 9674W        W26522  12.105  15.310   1.636  0.1802  0.1630 -0.1503
 9675W        W26523   9.493   4.755  14.020 -0.2120 -0.2993 -0.0751
 9676W        W26524  15.448  11.205   0.622  0.2399  0.3037  0.3803
 9677W        W26525  11.487   1.165  11.967 -0.0483 -0.3461  0.1220
 9678W        W26526   7.768   7.036  13.573  0.0404  0.3305  0.2248
 9679W        W26527   5.662   6.542   5.045  0.2675 -0.0395 -0.0086
 9680W        W26528   9.382  14.908  12.442  0.1308 -0.2358  0.0410
 9681W        W26529   2.190   0.313   3.837 -0.0122 -0.2660  0.0167
 9682W        W26530  14.088   2.408  14.335 -0.4571 -0.0951 -0.0419
 9683W        W26531   8.909  16.172   3.975  0.0380  0.2565  0.1601
 9684W        W26532   8.478   4.080   5.444 -0.0707  0.1497  0.1740
 9685W        W26533  14.862   3.706  10.780  0.1468 -0.2004  0.1106
 9686W        W26534  14.314   2.593  11.895  0.0505 -0.3590  0.0063
 9687W        W26535  11.741  12.322   3.808  0.1443  0.1241 -0.2240
 9688W        W26536  15.435   5.688  11.548  0.3124 -0.4608  0.2932
 9689W        W26537  15.249   8.127   5.079  0.0453  0.1628 -0.1653
 9690W        W26538  17.561   7.600   1.401 -0.0671 -0.1179 -0.0486
 9691W        W26539   5.174   7.825   2.503  0.0337 -0.2174  0.1868
 9692W        W26540  10.915   6.953  15.441 -0.0701  0.0863 -0.0656
 9693W        W26541  14.605  14.097  14.421 -0.0318 -0.0915 -0.0019
 9694W        W26542   5.216   6.487   1.942 -0.2475  0.0157  0.0935
 9695W        W26543   2.384   6.257  11.666  0.1793 -0.3605 -0.1071
 9696W        W26544   0.328  16.947  13.643 -0.1830 -0.1274 -0.0962
 9697W        W26545   0.224  14.282  15.190  0.1391 -0.2372  0.1574
 9698W        W26546  14.915  16.303  12.399  0.0047 -0.1743  0.0451
 9699W        W26547   7.349   3.831   0.113  0.0414 -0.1038 -0.1933
 9700W        W26548   5.883   5.027  11.195 -0.1787  0.1603  0.3335
 9701W        W26549  11.170  11.292   4.657  0.1641  0.0297  0.3501
 9702W        W26550   7.522   3.393   2.590  0.0049  0.4022  0.0851
 9703W        W26551   5.044  11.023   1.637  0.2497  0.0941  0.1626
 9704W        W26552  17.051  13.688   3.374  0.0682 -0.0541  0.1256
 9705W        W26553  14.861  13.308  11.788  0.0183  0.0144 -0.0608
 9706W        W26554  17.387  13.801   4.244  0.0386  0.0949 -0.0272
 9707W        W26555   2.983  11.813   2.289  0.3579 -0.2072  0.0287
 9708W        W26556   5.784  17.515  15.963  0.0136 -0.2999  0.1493
 9709W        W26557   0.145   0.502   1.791 -0.1297  0.1176 -0.1131
 9710W        W26558   2.749  16.823  12.093 -0.3231 -0.0332  0.0233
 9711W        W26559  15.500   7.486  13.231 -0.0526  0.0602  0.0042
 9712W        W26560   7.877  13.404  10.353  0.1078  0.2525 -0.0264
 9713W        W26561   6.967   0.623  13.829  0.1083 -0.1974 -0.0070
 9714W        W26562  11.517   1.896  15.888  0.0306 -0.4039 -0.0030
 9715W        W26563  14.632   0.405   0.508 -0.1122  0.2025  0.0075
 9716W        W26564   3.557  11.465   3.333  0.2705 -0.1089  0.0827
 9717W        W26565  17.171  15.534  13.286  0.2652  0.2672  0.0452
 9718W        W26566  17.078  11.744  15.736  0.1768 -0.0054 -0.1208
 9719W        W26567   7.073  11.883   2.011  0.2395 -0.2969 -0.0831
 9720W        W26568   8.259  15.876   4.001  0.1326  0.1669  0.0946
 9721W        W26569   8.910   0.273   2.100 -0.2248  0.1406 -0.0589
 9722W        W26570   7.227   5.294   3.711  0.3329 -0.1545 -0.1353
 9723W        W26571   6.566   0.551  12.172 -0.0303 -0.3116  0.0408
 9724W        W26572   1.609  11.435   3.271 -0.0224 -0.0303 -0.0309
 9725W        W26573   5.133  10.964  12.225 -0.0797 -0.1262  0.0554
 9726W        W26574   4.379  16.043  11.819 -0.2110  0.1027  0.0712
 9727W        W26575   0.306   3.200   4.267  0.1401 -0.0335 -0.3190
 9728W        W26576  13.024   0.783   0.259 -0.1792  0.1420 -0.0149
 9729W        W26577   4.152   0.503  14.388 -0.0472  0.2399  0.1683
 9730W        W26578   6.139   5.208  14.722 -0.1398  0.0334  0.1429
 9731W        W26579  16.779  16.600   0.826  0.2008 -0.1387  0.1076
 9732W        W26580   7.134   1.112   1.778  0.1151  0.0404  0.3976
 9733W        W26581  15.419  12.588  14.574  0.1590 -0.0461 -0.0923
 9734W        W26582   5.280  16.521   4.217 -0.2935 -0.2130 -0.1403
 9735W        W26583   9.426   9.329   6.160  0.2621 -0.2317 -0.2054
 9736W        W26584  13.117  17.057   4.273  0.0096  0.0197  0.2952
 9737W        W26585  11.803   9.298  13.092 -0.2194  0.1710 -0.1782
 9738W        W26586  11.277  12.433   5.440  0.3658 -0.0819 -0.1609
 9739W        W26587  15.671  13.498   4.642 -0.1016 -0.2635 -0.1029
 9740W        W26588   0.620  12.066   2.554  0.2614  0.1144 -0.1713
 9741W        W26589  12.001  10.808   4.880 -0.1048 -0.0028 -0.0470
 9742W        W26590  11.867   3.611  14.835  0.1036 -0.2339 -0.1149
 9743W        W26591   9.819  12.582  12.898 -0.0991 -0.2440  0.0592
 9744W        W26592  14.531   4.673   0.846 -0.0792 -0.0510  0.1735
 9745W        W26593   3.529  17.933   4.763  0.0736 -0.0424 -0.1646
 9746W        W26594  16.363   5.184  15.301  0.1757 -0.0705  0.0726
 9747W        W26595   0.370  17.836   4.454 -0.0251 -0.1883 -0.1544
 9748W        W26596   7.992   3.964  14.825  0.0867  0.1385  0.0016
 9749W        W26597  11.879   4.758   0.459  0.0190  0.1669  0.0085
 9750W        W26598  16.119   9.688  11.863 -0.1165 -0.0006  0.0701
 9751W        W26599   6.710  11.034   3.777  0.0118  0.2035 -0.1594
 9752W        W26600  13.208  15.812   3.006 -0.1707  0.0430 -0.3051
 9753W        W26601  11.933  15.199   5.422  0.2436 -0.2066  0.0629
 9754W        W26602   4.777   5.498   1.011  0.4731 -0.0467  0.1793
 9755W        W26603   6.610  11.438  10.378 -0.1223  0.2511  0.0078
 9756W        W26604  13.657  13.394  14.847 -0.1284  0.1925  0.1946
 9757W        W26605   6.219  10.648   3.410 -0.0364 -0.1997  0.1699
 9758W        W26606  11.643  15.753   4.813  0.0764  0.1498 -0.0537
 9759W        W26607   7.507  13.477  13.129 -0.1500 -0.2617 -0.0909
 9760W        W26608  10.212   6.673  11.915 -0.1253  0.0492  0.0462
 9761W        W26609   6.332  11.949   1.222  0.0719 -0.1194  0.1628
 9762W        W26610   7.712  15.311   0.836  0.0789 -0.0310 -0.0990
 9763W        W26611   8.739   8.400   0.665  0.1561 -0.1996 -0.1840
 9764W        W26612   3.304   2.875   0.530 -0.0324 -0.1752  0.0839
 9765W        W26613   9.565   9.262  13.511  0.0799 -0.0812  0.1255
 9766W        W26614   1.918  17.325  10.633  0.2475 -0.2847  0.1323
 9767W        W26615   6.701   0.226  13.906  0.1434 -0.1714 -0.2055
 9768W        W26616  14.179  10.417  12.824  0.1484 -0.2928 -0.2964
 9769W        W26617  16.428   7.186  13.577 -0.1031  0.0396 -0.0441
 9770W        W26618   6.449  11.370  14.727  0.2642  0.0407  0.1245
 9771W        W26619   7.818   4.908  12.573  0.0515 -0.2804  0.1394
 9772W        W26620  12.115  17.992  14.724  0.1877  0.1385 -0.3155
 9773W        W26621   4.010   5.492   4.935  0.1017 -0.0541 -0.4181
 9774W        W26622   5.199   2.880  13.373 -0.0134 -0.1176  0.0046
 9775W        W26623   4.448   2.146   2.593  0.0134  0.1560  0.1342
 9776W        W26624   6.473   7.616  12.696 -0.2755  0.0783 -0.1085
 9777W        W26625   4.458  17.738   1.484 -0.0299 -0.0926 -0.0977
 9778W        W26626   1.113  14.937  10.486 -0.3105  0.3786  0.0377
 9779W        W26627   0.246   0.572   4.234  0.1079  0.1494  0.1655
 9780W        W26628   4.586   6.191  14.749  0.0348 -0.0167 -0.0488
 9781W        W26629  16.846  15.110  13.416 -0.0444 -0.1419 -0.0566
 9782W        W26630   0.542  12.098  14.168 -0.1221 -0.1722  0.1533
 9783W        W26631   2.978  14.713  11.422  0.1069  0.3635 -0.0288
 9784W        W26632  10.718   3.169  11.992  0.0433 -0.0025  0.3141
 9785W        W26633  12.929   7.522  12.597  0.2200 -0.2531  0.0526
 9786W        W26634  11.209  17.249   5.428 -0.1714  0.0430 -0.0380
 9787W        W26635   4.952  17.149  11.335  0.1451  0.0371  0.4425
 9788W        W26636   3.381  13.241   3.906  0.1317 -0.0306 -0.1903
 9789W        W26637  14.001   9.082   0.574  0.2282  0.1438  0.2807
 9790W        W26638   2.499  13.323  13.806  0.0066 -0.1227  0.0756
 9791W        W26639  12.263  17.254  15.535  0.4318  0.1828 -0.1168
 9792W        W26640   7.234  12.286   2.296  0.1336 -0.0039 -0.1562
 9793W        W26641   6.630   7.227  13.875  0.0487  0.1907  0.1442
 9794W        W26642  14.922   4.452   2.599 -0.3870  0.1170  0.2003
 9795W        W26643  15.740  13.292   2.953  0.2383  0.0127 -0.0375
 9796W        W26644  17.277   7.536  10.761  0.0264  0.0712  0.0579
 9797W        W26645  12.550   4.758  13.120  0.2219 -0.2940  0.0768
 9798W        W26646   0.682  10.024  13.811 -0.0432  0.1538  0.0032
 9799W        W26647   1.118   3.710  12.629 -0.0934 -0.1205 -0.1113
 9800W        W26648   0.514   4.216  12.014 -0.0790 -0.1344 -0.0633
 9801W        W26649  15.734  16.960  14.930  0.1615  0.0309  0.2127
 9802W        W26650   0.108   3.330  15.603 -0.1316  0.1388  0.1434
 9803W        W26651   4.385   8.869  14.799 -0.1902 -0.1491  0.0557
 9804W        W26652  17.016  15.646   4.664 -0.2121  0.2043  0.0644
 9805W        W26653   8.719  16.534  15.805  0.3759 -0.0794  0.1248
 9806W        W26654  13.150   1.268  11.843 -0.2588  0.2318  0.0903
 9807W        W26655   1.600   0.211  13.102 -0.4002  0.3483 -0.1353
 9808W        W26656   2.012  10.274   3.097 -0.0288 -0.1546  0.2907
 9809W        W26657  16.080   1.153   2.034  0.3044  0.2367  0.0365
 9810W        W26658   3.639   9.396  15.258 -0.1669  0.0013  0.2464
 9811W        W26659   2.984  10.814   0.989  0.0488  0.1537  0.0072
 9812W        W26660  13.083   1.122  11.401 -0.2529  0.2116 -0.0096
 9813W        W26661  17.923  15.790  15.745 -0.0827 -0.3158  0.0162
 9814W        W26662   3.666   8.306  14.490  0.2033 -0.2854  0.3838
 9815W        W26663  11.361  15.658  12.731  0.1983 -0.2610  0.1636
 9816W        W26664   1.170   8.364  14.235  0.0319  0.1166  0.0989
 9817W        W26665  11.338   1.537   1.829  0.1483  0.2207 -0.2875
 9818W        W26666   1.222  16.116  14.152  0.3772 -0.2336 -0.1316
 9819W        W26667   7.892  13.759   2.986  0.0162  0.0551 -0.2562
 9820W        W26668   8.689  16.808  12.940 -0.4878 -0.2440 -0.4061
 9821W        W26669  10.694  11.877  15.302  0.2297  0.1275  0.0658
 9822W        W26670   8.370  10.030  14.634  0.0144 -0.0165  0.0921
 9823W        W26671  18.177  13.957   2.518  0.2531 -0.2661  0.1252
 9824W        W26672  14.899  10.872   3.865 -0.2645  0.2296  0.0246
 9825W        W26673  13.389  15.619   3.717  0.1342  0.0148  0.0727
 9826W        W26674  14.282   5.611   4.402  0.0500 -0.1501  0.0976
 9827W        W26675  11.554  16.566   3.880 -0.0264  0.3124  0.1901
 9828W        W26676   7.195  10.099   1.617  0.0190  0.1759  0.1226
 9829W        W26677  13.714   3.147  12.492 -0.0802 -0.0499 -0.0537
 9830W        W26678   0.001   2.036   2.116 -0.1743  0.0094 -0.0663
 9831W        W26679   6.358   1.985   5.017  0.0405 -0.2707  0.1916
 9832W        W26680  13.371   8.195  13.164 -0.2738  0.0487 -0.2252
 9833W        W26681   5.846   8.215  10.886  0.1177 -0.0719  0.0814
 9834W        W26682   0.725   4.732  14.076 -0.2205  0.1977  0.0070
 9835W        W26683  17.827   4.851  13.908 -0.0132  0.0170 -0.4857
 9836W        W26684   6.521   1.021   1.931 -0.0217 -0.0915  0.0097
 9837W        W26685   8.303   1.083   1.718 -0.2839 -0.2073 -0.3128
 9838W        W26686  12.439   4.073  13.660  0.1422  0.0652 -0.2020
 9839W        W26687  18.067   1.245  12.687  0.0434 -0.0624  0.1686
 9840W        W26688   9.523   4.176   5.818 -0.0005  0.1105 -0.0722
 9841W        W26689  10.575  11.038   5.029  0.0223  0.0379  0.1373
 9842W        W26690  16.593  13.905   3.636  0.0743 -0.0497  0.1661
 9843W        W26691   7.441   4.576   1.428 -0.4038  0.2760 -0.4119
 9844W        W26692   2.882   8.404   3.911 -0.0748 -0.2835 -0.1170
 9845W        W26693   9.539   8.080  13.211  0.2230  0.2314  0.0790
 9846W        W26694   5.357  16.644  12.850 -0.1668  0.2388 -0.0314
 9847W        W26695  13.502   6.271  12.002  0.2001  0.2578  0.0852
 9848W        W26696   9.446  15.551   4.388  0.1091  0.0521  0.1869
 9849W        W26697  17.482  17.772   3.212  0.1842  0.0665 -0.2708
 9850W        W26698  14.055  11.018  14.814 -0.1916  0.0169 -0.2348
 9851W        W26699  11.592  13.498   4.277  0.2221  0.0394  0.0072
 9852W        W26700  15.045  10.548   4.338 -0.3007  0.2162 -0.1445
 9853W        W26701   0.333   6.110   0.055  0.3305  0.0663  0.0693
 9854W        W26702   9.528   5.978  13.171 -0.0892  0.2180  0.0403
 9855W        W26703   3.000  17.389  11.265 -0.3040  0.0524  0.0715
 9856W        W26704   8.650   5.403   3.636 -0.2661 -0.1069  0.0250
 9857W        W26705   8.961  12.554  12.315  0.0439  0.1386  0.2635
 9858W        W26706  14.636   8.795   5.053 -0.2758 -0.3321  0.2380
 9859W        W26707   9.068  13.795  14.963 -0.3182  0.3075  0.0109
 9860W        W26708  12.770   8.924  15.612  0.1923  0.2875  0.0853
 9861W        W26709   3.083  10.921   1.731 -0.1460  0.2368  0.2426
 9862W        W26710   7.283   7.945   1.558  0.1927 -0.0318  0.2433
 9863W        W26711  10.455  15.128  11.528 -0.3538  0.3326 -0.0453
 9864W        W26712  11.335  15.321   2.268 -0.2319 -0.2787 -0.2916
 9865W        W26713   1.717  11.790  15.906  0.0151  0.1476  0.4684
 9866W        W26714  14.360  17.036   0.301  0.1274  0.3806  0.2238
 9867W        W26715   1.134   1.361   3.268  0.0239  0.2245 -0.0191
 9868W        W26716   4.804  15.793   4.920  0.0334  0.1500  0.2693
 9869W        W26717  16.268   2.328   4.385  0.3885  0.0331 -0.2349
 9870W        W26718   7.798   6.132   0.807 -0.1596  0.2486  0.2293
 9871W        W26719  17.138  13.329   4.189  0.3352  0.2901  0.1256
 9872W        W26720  15.983  11.741  11.689 -0.0626  0.0723 -0.1703
 9873W        W26721   0.276  14.332  12.384  0.2661 -0.1299 -0.0590
 9874W        W26722  10.403   8.218   0.326 -0.1546  0.1908 -0.1988
 9875W        W26723   2.509   9.004   2.508  0.1085 -0.0878  0.0147
 9876W        W26724  16.243   1.495   2.374 -0.2043 -0.1267  0.0602
 9877W        W26725  15.165   0.662  10.877  0.0953  0.2719  0.0467
 9878W        W26726  15.609   8.816   0.158 -0.3416 -0.0028  0.2908
 9879W        W26727   6.394  10.183   3.254  0.1568  0.0328 -0.1192
 9880W        W26728   4.616  10.891  12.353  0.3247  0.0069  0.0477
 9881W        W26729   1.336   1.726   0.952 -0.1592  0.2928 -0.0957
 9882W        W26730   3.724   4.722   1.922 -0.3593 -0.4561  0.2161
 9883W        W26731  10.407  15.112  13.727 -0.0953  0.0647  0.0902
 9884W        W26732   4.219   2.953   4.732 -0.2025  0.2628  0.0045
 9885W        W26733   3.445  16.645   3.046  0.0645 -0.2659 -0.0971
 9886W        W26734   0.929  11.422  14.463 -0.2705  0.4948  0.1222
 9887W        W26735   8.539  10.697  12.732  0.0639  0.0385  0.3005
 9888W        W26736   3.742  14.056  12.788  0.0553  0.2456 -0.3355
 9889W        W26737  12.390  13.588  14.066 -0.1178  0.5058 -0.1434
 9890W        W26738  14.140   3.519  13.534  0.1933 -0.0667  0.0577
 9891W        W26739   2.767   4.268  11.840 -0.0046 -0.0375 -0.0839
 9892W        W26740   3.082  11.766   1.800  0.4427 -0.0451 -0.0185
 9893W        W26741  16.422   6.558  14.111 -0.1479 -0.0331  0.0687
 9894W        W26742   3.068  14.724   1.702  0.1933 -0.2285  0.1322
 9895W        W26743  16.150   0.769  13.207 -0.0616 -0.2857  0.0923
 9896W        W26744  15.524   6.554  11.006 -0.2008  0.0382  0.2340
 9897W        W26745   2.867  17.587  15.945 -0.4872 -0.1555  0.0655
 9898W        W26746  14.694  10.442   5.347  0.3151 -0.0550  0.0465
 9899W        W26747   6.777  16.635   2.117 -0.0059 -0.1025 -0.1783
 9900W        W26748  18.123  18.127  12.834  0.2126 -0.0227  0.1188
 9901W        W26749  15.836  14.387   3.821 -0.0357 -0.1798 -0.2646
 9902W        W26750  18.194  15.614  11.041 -0.0189 -0.2840  0.2950
 9903W        W26751  17.228   8.695   2.131  0.0167  0.0180  0.0508
 9904W        W26752   3.207   0.478   1.225 -0.0553 -0.0670  0.1767
 9905W        W26753  14.111   5.331   2.791  0.2803  0.0581 -0.2415
 9906W        W26754   6.254   8.144  14.745  0.5233  0.0845 -0.2098
 9907W        W26755   2.667   8.948  13.627 -0.0377 -0.0580  0.0280
 9908W        W26756  12.618   3.990  12.658 -0.1875 -0.3442 -0.0967
 9909W        W26757  16.783   2.155   0.521  0.1269  0.0840 -0.1912
 9910W        W26758   5.454   5.647  12.822  0.1273  0.3411 -0.0195
 9911W        W26759   9.728   2.502  16.122  0.2034 -0.1331  0.1570
 9912W        W26760  11.594   2.383   2.438 -0.1512 -0.1313  0.1207
 9913W        W26761  10.273   5.707  12.405  0.1597  0.2585  0.3096
 9914W        W26762   0.065   2.637   3.343  0.1744 -0.0261 -0.1921
 9915W        W26763   9.310  13.877  12.052 -0.1306  0.0160  0.0994
 9916W        W26764  13.102  12.060   1.626  0.1233  0.2162  0.1596
 9917W        W26765   8.388   7.139  10.797 -0.2235 -0.0003 -0.1390
 9918W        W26766   8.137   1.394  15.062 -0.1690 -0.2522  0.0588
 9919W        W26767   3.865   5.500  13.023  0.2810  0.0074  0.3891
 9920W        W26768   5.846  16.941  11.265  0.0860  0.1666 -0.2812
 9921W        W26769   6.483   1.661   4.126 -0.0820  0.1100 -0.1094
 9922W        W26770   2.418  16.192  12.590 -0.1023  0.0250 -0.1897
 9923W        W26771   3.122   7.600  15.303  0.3409  0.0504  0.2544
 9924W        W26772   3.838  17.394  12.074  0.0187  0.1446  0.1124
 9925W        W26773   7.630   0.879   5.169  0.1531  0.0965  0.0870
 9926W        W26774   3.732  17.125  13.747 -0.1461  0.0339  0.0452
 9927W        W26775   2.796   4.933  12.284 -0.0755  0.4403  0.0310
 9928W        W26776   5.158  11.413   1.341 -0.0644  0.1231  0.4758
 9929W        W26777  10.184  14.114  15.198 -0.0552 -0.2517  0.1958
 9930W        W26778  10.204   4.245   2.869 -0.0291 -0.2541  0.1278
 9931W        W26779  16.288   5.104  15.885  0.2648  0.1078 -0.0019
 9932W        W26780   1.599   6.875   4.404 -0.2114  0.1789  0.1524
 9933W        W26781  16.140  12.598  15.244 -0.0459 -0.4388 -0.0926
 9934W        W26782  17.328   1.334   0.063 -0.2159 -0.0319  0.2197
 9935W        W26783   9.858   6.725   1.661 -0.0782 -0.2295 -0.2940
 9936W        W26784  15.169  13.314   2.729  0.4017 -0.2146 -0.1223
 9937W        W26785  13.610   8.453   2.234 -0.0056 -0.0464 -0.1039
 9938W        W26786  17.313  13.160   1.596  0.0204 -0.0343  0.0559
 9939W        W26787  15.549  12.586   4.149  0.4291  0.1366 -0.2185
 9940W        W26788   0.693   2.080  10.190 -0.0639  0.0669 -0.0235
 9941W        W26789  10.245   0.526  11.328 -0.2009 -0.0408 -0.3678
 9942W        W26790  16.392  11.889   0.269  0.2159 -0.3057 -0.1010
 9943W        W26791  10.934  12.421   1.885 -0.0921 -0.2844 -0.1111
 9944W        W26792  13.710  17.311   2.026  0.4368  0.0865 -0.0254
 9945W        W26793  13.644  15.225   1.473  0.0462 -0.2711  0.1962
 9946W        W26794   6.575  10.678   5.180 -0.1610  0.0728 -0.3075
 9947W        W26795   3.144  14.074   4.636 -0.1157  0.0715  0.2085
 9948W        W26796  17.225  15.451  11.230  0.0309 -0.0442  0.2762
 9949W        W26797   8.977   6.642  13.423 -0.0625  0.2906 -0.0788
 9950W        W26798   3.703  15.817  11.130 -0.3069  0.1018 -0.0066
 9951W        W26799   8.277   7.804   4.913 -0.0822 -0.0777  0.2901
 9952W        W26800   3.997   1.502   0.577  0.1556 -0.0331  0.0846
 9953W        W26801  11.135   1.896   2.818 -0.3123  0.0308  0.0864
 9954W        W26802  13.278   2.661   0.041  0.0981  0.0844  0.1901
 9955W        W26803   8.830   1.094  14.739  0.2529  0.0016  0.1140
 9956W        W26804   6.372   8.539  15.126 -0.0389 -0.1258 -0.2444
 9957W        W26805   8.641  12.994   2.754 -0.0868 -0.3619 -0.2101
 9958W        W26806  14.018   3.822   4.473 -0.0834  0.0031 -0.3181
 9959W        W26807   6.550  14.670   4.162 -0.1257  0.2144 -0.0748
 9960W        W26808  16.369   3.750   1.682  0.1384 -0.2208 -0.2787
 9961W        W26809  17.889  14.654   0.193  0.1164  0.0843  0.1025
 9962W        W26810   7.979   8.885  16.082  0.0436 -0.0434 -0.1194
 9963W        W26811  13.578  14.907   5.941 -0.2945 -0.0914 -0.1214
 9964W        W26812   3.378   4.173   0.271  0.2650 -0.0951  0.1816
 9965W        W26813   1.896  16.479  15.349  0.0180  0.1915  0.1729
 9966W        W26814   0.814  13.450   2.395 -0.0549 -0.1655  0.2695
 9967W        W26815   6.190  16.602  12.869 -0.2528  0.0098 -0.1576
 9968W        W26816   7.329  12.613  15.601 -0.1249  0.1275 -0.2087
 9969W        W26817   8.143  13.078   1.399 -0.0198  0.2740 -0.2221
 9970W        W26818  12.616  13.970   1.253  0.0248 -0.2284 -0.0320
 9971W        W26819   5.936   6.367  12.448  0.0197  0.2899  0.2515
 9972W        W26820   4.078   4.255   4.909  0.2113 -0.2050 -0.1178
 9973W        W26821  16.000   7.256   5.027  0.2162 -0.2813 -0.2640
 9974W        W26822   5.078   2.066   3.374  0.0531  0.2104 -0.0734
 9975W        W26823  14.197  13.985   1.501 -0.0930  0.1970  0.2512
 9976W        W26824   1.296  13.496   2.611  0.1670 -0.2092  0.1064
 9977W        W26825  16.013   3.908   4.899 -0.0261 -0.0258 -0.1087
 9978W        W26826   2.236   2.232  10.065 -0.1319 -0.4054  0.1293
 9979W        W26827   7.307  14.072  12.239  0.0611  0.2419 -0.4036
 9980W        W26828   7.995  12.246  14.853 -0.0105 -0.1339  0.2563
 9981W        W26829  10.615   6.258  14.466  0.0349 -0.3625 -0.1513
 9982W        W26830   3.921   1.697  12.321  0.1130 -0.0991  0.0151
 9983W        W26831   6.002  15.550  12.654  0.4637  0.2378 -0.0125
 9984W        W26832  11.065   7.689  14.953 -0.2625  0.3379  0.2478
 9985W        W26833   4.403  17.141  12.829  0.0423  0.1239  0.0981
 9986W        W26834  10.054  14.559  11.095 -0.0319 -0.0107 -0.0460
 9987W        W26835  14.927   5.355   0.709 -0.1616  0.0200  0.0066
 9988W        W26836   8.391   5.490   2.687 -0.1107 -0.0337  0.0958
 9989W        W26837   9.013   6.872   1.610 -0.1585  0.2134  0.0154
 9990W        W26838   9.819  10.738   4.268 -0.1633 -0.1494 -0.0593
 9991W        W26839  10.414  16.780   0.640 -0.1140 -0.1550  0.1659
 9992W        W26840   5.512  10.558  13.722  0.0267  0.3345  0.2111
 9993W        W26841   8.559   2.504  15.930  0.0161  0.1799 -0.2250
 9994W        W26842   4.133   9.180  14.514 -0.1312 -0.0363 -0.1740
 9995W        W26843  16.011  11.679   3.372  0.1703 -0.0158 -0.0392
 9996W        W26844  17.724   1.001  11.820 -0.0730 -0.0429 -0.0709
 9997W        W26845  10.383  12.011   5.477  0.1610 -0.4117  0.1334
 9998W        W26846  10.939  16.525   4.642 -0.2731 -0.0929 -0.1359
 9999W        W26847  15.403  12.489  11.879 -0.0204 -0.0946 -0.1028
10000W        W26848  12.035   8.998  10.486  0.0806  0.1678 -0.0797
10001W        W26849  15.657   7.127  15.804  0.1666  0.0881 -0.1212
10002W        W26850  18.091   9.540   3.815 -0.0623 -0.2026  0.2045
10003W        W26851  16.514  16.643  12.006  0.0332 -0.1633 -0.2300
10004W        W26852  14.471  13.105   1.218  0.0629  0.0175  0.0811
10005W        W26853   7.040  11.041   5.229  0.0227  0.0243  0.0127
10006W        W26854  10.894   8.884  13.364 -0.2197  0.0108  0.0069
10007W        W26855   8.183   2.564   1.724  0.0545  0.1077 -0.1018
10008W        W26856  12.888   1.136   2.374 -0.1678 -0.1224 -0.2888
10009W        W26857  17.944   7.803   3.627 -0.0859 -0.2126  0.4508
10010W        W26858   2.436   8.020   1.470  0.1565 -0.1775  0.1123
10011W        W26859  12.656   8.492  13.602 -0.2137 -0.2262 -0.1022
10012W        W26860  11.947  16.625   2.289 -0.0991  0.2391  0.0452
10013W        W26861  17.320  11.323  15.970  0.2173  0.2938 -0.2255
10014W        W26862   4.166   0.051   3.486  0.0107  0.1897  0.2074
10015W        W26863  11.505   2.543  13.660 -0.0782  0.0080 -0.0911
10016W        W26864  14.607  10.269   0.263 -0.1041  0.0147 -0.1810
10017W        W26865  16.829   5.893   1.669 -0.1128 -0.0092  0.1162
10018W        W26866   2.376  11.780  15.098  0.1433 -0.0515 -0.0035
10019W        W26867  18.208   8.536   4.237  0.2347  0.3448  0.1419
10020W        W26868  17.295   9.988  15.970  0.0334  0.0369 -0.3889
10021W        W26869   4.555  10.371   3.693 -0.1407  0.1997 -0.1045
10022W        W26870   1.483  14.513   1.897  0.2209 -0.0678 -0.0501
10023W        W26871  10.221   2.653   0.185  0.0000  0.2233  0.2982
10024W        W26872   5.674   7.814   5.302 -0.0400  0.2065  0.0514
10025W        W26873  12.390   1.886   4.861 -0.1360 -0.0086  0.0303
10026W        W26874   4.555  12.516  14.463  0.1952 -0.4190 -0.0671
10027W        W26875  14.357   1.250   0.263 -0.5044  0.2729  0.1613
10028W        W26876  13.355   2.371  13.252 -0.0624  0.1271 -0.1909
10029W        W26877   4.723  17.989   2.774 -0.1543  0.1141  0.1334
10030W        W26878   8.087   7.078  12.351 -0.0028 -0.0239  0.0497
10031W        W26879   8.268   5.776  14.734  0.0020 -0.2798  0.1010
10032W        W26880  15.180   6.590   5.294 -0.1897  0.0529  0.1477
10033W        W26881  12.857  10.331   1.740  0.0975  0.1029 -0.0786
10034W        W26882  10.385   3.269  11.598 -0.1920 -0.2659 -0.0349
10035W        W26883   9.773   8.704  13.493  0.2816  0.1971 -0.0088
10036W        W26884   2.503   1.590  12.444  0.0798 -0.0150  0.0445
10037W        W26885  17.891  10.926  13.689  0.2356  0.0961 -0.2230
10038W        W26886   9.585   1.120  12.315 -0.0127  0.2853 -0.2235
10039W        W26887   9.180   5.219   0.445  0.1160  0.0958  0.0794
10040W        W26888  15.455  15.764  15.942  0.0707  0.2833 -0.2995
10041W        W26889  16.151   7.879  14.043  0.4660 -0.0565  0.0732
10042W        W26890   1.094  17.674  15.737  0.0771 -0.0417  0.2679
10043W        W26891  16.167  14.231  15.030  0.1648 -0.1139 -0.0621
10044W        W26892   6.150   4.457   4.199  0.0595  0.3487  0.2870
10045W        W26893  14.321  14.405  13.096  0.1225 -0.0102  0.1007
10046W        W26894   1.580   2.458  13.381  0.1629  0.2520 -0.1862
10047W        W26895   7.334   7.728   3.155 -0.1636  0.2233 -0.0852
10048W        W26896   1.566  18.113   0.900 -0.1274  0.0214  0.2920
10049W        W26897   8.025  15.536   1.358  0.0612 -0.0411 -0.0781
10050W        W26898   1.466   7.857   4.467  0.0784  0.2297 -0.0893
10051W        W26899   4.021   9.995  15.672  0.3156  0.0681 -0.1069
10052W        W26900   5.945   4.867  12.916 -0.2037 -0.1436  0.0189
10053W        W26901   6.899  15.774   4.031  0.3892  0.1040  0.0909
10054W        W26902   0.465  14.146   4.822 -0.1421 -0.2243 -0.2318
10055W        W26903   8.710  11.954   5.334  0.3303 -0.2563  0.2298
10056W        W26904   0.963  12.609  11.077  0.1163 -0.2342  0.3096
10057W        W26905   2.104   6.537   5.571  0.0881 -0.0814 -0.0778
10058W        W26906   0.186   5.058   1.664  0.2810  0.0130 -0.1700
10059W        W26907  13.533  12.487   2.333  0.1198  0.1247 -0.0286
10060W        W26908  14.163  14.624   0.342 -0.1662  0.2579  0.5175
10061W        W26909   4.862   3.559  12.391 -0.0458 -0.2689 -0.1115
10062W        W26910  15.891  16.683  15.961  0.0072 -0.0816  0.2050
10063W        W26911  17.045   4.518  12.880 -0.0845 -0.1845  0.3627
10064W        W26912  11.823   4.248  12.571  0.2722 -0.0831  0.2049
10065W        W26913   8.341   0.513   5.936  0.2285  0.0491 -0.0605
10066W        W26914   1.798  13.268   5.723 -0.0287 -0.4005  0.0514
10067W        W26915  15.977   9.033  13.894 -0.0496 -0.0422 -0.0586
10068W        W26916  14.384  11.686  14.439  0.2170  0.0720  0.0236
10069W        W26917   4.467   0.088  15.327  0.0322 -0.1204  0.0309
10070W        W26918  12.354   6.184  14.414 -0.0378  0.0504 -0.0063
10071W        W26919  12.992   4.012   4.671 -0.0700  0.1448 -0.0685
10072W        W26920   2.492   0.065   0.483  0.0806 -0.2679 -0.1040
10073W        W26921   6.271  16.390  14.485 -0.1089 -0.1567  0.2070
10074W        W26922  14.042   2.453   0.533 -0.0015  0.2156  0.4154
10075W        W26923  15.391   1.689  11.263 -0.0044  0.0912  0.2212
10076W        W26924  14.775  14.824   4.116 -0.0442  0.0330 -0.0150
10077W        W26925   8.409  17.635   1.485 -0.0915 -0.0852  0.1671
10078W        W26926   1.992   3.495   1.364 -0.1433 -0.1937  0.0784
10079W        W26927  14.673  13.213   2.858 -0.2280 -0.0705 -0.1030
10080W        W26928  15.185  14.725   1.906  0.1698  0.3146  0.0577
10081W        W26929   4.470   2.589   4.186 -0.0411  0.3214  0.1542
10082W        W26930   0.840   8.176  14.545 -0.0089  0.0576 -0.1588
10083W        W26931   9.051  14.979   2.100 -0.1860  0.3303  0.0666
10084W        W26932   0.469  15.154  14.674  0.2920 -0.2665 -0.6799
10085W        W26933  13.117   7.066   5.372  0.4053  0.2785  0.2073
10086W        W26934   1.893   8.952  13.089 -0.0958  0.0675  0.1170
10087W        W26935  12.294  16.916   0.747  0.0640 -0.0479 -0.0564
10088W        W26936   5.715   9.050  11.468 -0.3463 -0.1673 -0.2129
10089W        W26937   4.255   9.692  11.439 -0.2428  0.1154 -0.2209
10090W        W26938  10.991  10.685  13.271 -0.3741 -0.0364  0.0978
10091W        W26939   9.575  14.365   4.666  0.0994 -0.0233  0.0230
10092W        W26940   9.825   1.041   2.058  0.0985 -0.1252  0.1333
10093W        W26941   5.897  13.747   4.582 -0.0903 -0.1579 -0.0373
10094W        W26942  12.607  15.371   0.436 -0.1083 -0.3591 -0.0878
10095W        W26943   0.194   1.117   0.174  0.0825 -0.0489 -0.0418
10096W        W26944   4.800   9.434   5.625  0.0794  0.0451 -0.0090
10097W        W26945  13.205   4.085   1.301 -0.0926 -0.1042 -0.0471
10098W        W26946   6.026  14.273  14.981 -0.0884  0.1055  0.0258
10099W        W26947  16.325  10.129   2.146  0.5069  0.1559  0.2701
10100W        W26948  14.390   2.620   2.055  0.4483  0.3062 -0.0897
10101W        W26949  12.447   1.159   2.045 -0.1532 -0.0950 -0.0701
10102W        W26950   5.288   6.822   2.340 -0.0349 -0.0178  0.2619
10103W        W26951   7.449  11.962   1.086 -0.3830  0.4693 -0.2284
10104W        W26952  14.931  15.864   1.267 -0.2635  0.0261  0.0969
10105W        W26953   3.004   7.442  11.111 -0.0015 -0.0702  0.0475
10106W        W26954   4.543   7.515  11.850  0.1632 -0.1097  0.0980
10107W        W26955  11.078  12.392  13.065 -0.2079  0.3202 -0.1965
10108W        W26956   2.715   2.188  14.049  0.0199  0.0581  0.0740
10109W        W26957   7.653  12.526   1.872  0.1212  0.1609 -0.1359
10110W        W26958   3.921   5.071   1.432  0.1474 -0.0259  0.0812
10111W        W26959  14.693  16.909  15.410  0.1065 -0.2159 -0.2916
10112W        W26960  18.172   7.720   5.015  0.1256  0.0341  0.0328
10113W        W26961   3.174  14.463   3.147  0.2798 -0.1008 -0.1555
10114W        W26962  12.858   9.490   0.580  0.1525 -0.0279  0.2614
10115W        W26963   4.047   0.356   1.221 -0.0673 -0.0203  0.0682
10116W        W26964   0.194  15.028  14.311 -0.1268  0.0703 -0.1331
10117W        W26965   9.251  17.359  13.954 -0.1922  0.5143  0.1344
10118W        W26966  17.098  12.401   5.297 -0.0103  0.2865  0.0833
10119W        W26967   6.868   0.821   0.215  0.1443 -0.2707 -0.0203
10120W        W26968   5.304   0.299  11.404 -0.1548 -0.1879 -0.1362
10121W        W26969   8.364   4.932   0.768  0.0315 -0.0418  0.2502
10122W        W26970  18.002  12.983  14.727  0.2766  0.1084  0.0467
10123W        W26971  12.069  16.971  13.704  0.1055  0.0220  0.4388
10124W        W26972  10.932   8.262  15.093  0.1170 -0.0293  0.0052
10125W        W26973   2.411  18.129  11.188 -0.0224 -0.0084 -0.3162
10126W        W26974   1.518   1.044   4.593  0.0209  0.2306  0.4475
10127W        W26975  16.285   7.034   2.725 -0.0608  0.1517  0.2279
10128W        W26976  14.550   2.663  14.311  0.1632  0.1698 -0.1500
10129W        W26977   3.744  15.870   0.013  0.0560 -0.0509  0.0658
10130W        W26978  16.308   2.428  15.176 -0.1316  0.1425 -0.1052
10131W        W26979  14.276   7.458   3.888  0.1454 -0.0125  0.3226
10132W        W26980  17.976   7.917   2.570  0.2048 -0.3009  0.0527
10133W        W26981  17.930   2.830  15.067  0.0768  0.3229 -0.0915
10134W        W26982  11.454  16.140  11.298 -0.3023 -0.1148  0.0407
10135W        W26983  12.132  15.453  15.345 -0.3856  0.0397  0.0325
10136W        W26984  11.494   3.457  15.723  0.1779  0.0259 -0.3725
10137W        W26985  13.923   8.409  15.192  0.1266 -0.2153 -0.1148
10138W        W26986   8.297   5.733  12.289 -0.0238  0.2180  0.1770
10139W        W26987   8.187   4.949  15.616 -0.1531 -0.1409  0.2578
10140W        W26988   0.413   4.006  11.504 -0.0585 -0.0938 -0.0973
10141W        W26989   6.115   8.008   3.611  0.1310  0.1875  0.0226
10142W        W26990  13.431  17.440   1.173 -0.1881 -0.2876 -0.0709
10143W        W26991  12.943  15.012  15.672  0.4323  0.1966 -0.1977
10144W        W26992  16.748   8.140  12.915 -0.3014 -0.2173  0.1598
10145W        W26993   0.937   5.639   2.197  0.1613 -0.1381 -0.1449
10146W        W26994  13.334  17.035  13.675 -0.1375  0.2000  0.0675
10147W        W26995  12.528   5.430  13.302  0.1027 -0.0467  0.2666
10148W        W26996   7.977   3.323   0.548  0.0547  0.3704 -0.1302
10149W        W26997   2.165  16.235   2.698 -0.0377  0.0187 -0.0307
10150W        W26998  16.768   6.950  13.894  0.0340 -0.0620 -0.0847
10151W        W26999   6.041  10.549  14.627  0.0422  0.1937  0.1778
10152W        W27000  14.896   6.110  14.425  0.0495 -0.1958 -0.1688
10153W        W27001  14.371   9.360  15.315 -0.2539  0.3131 -0.2637
10154W        W27002  11.035   2.875  11.753  0.1811 -0.2135  0.4321
10155W        W27003  16.830   6.493  14.412 -0.0795  0.0925 -0.1200
10156W        W27004   0.866   1.767   3.034 -0.1033  0.1631  0.0993
10157W        W27005   5.317   0.671   5.043  0.2273 -0.1698  0.1450
10158W        W27006   0.530   8.922   1.324 -0.4169 -0.1286  0.1739
10159W        W27007   8.626  12.966   3.717  0.2425 -0.2365 -0.0397
10160W        W27008   6.803  12.482   5.983 -0.2125 -0.3556 -0.1316
10161W        W27009   6.903  16.416   2.634 -0.1008  0.2517 -0.3627
10162W        W27010   3.846  16.120   4.798  0.0590 -0.1614  0.1255
10163W        W27011   0.995   8.389   0.742 -0.1461 -0.2389  0.1226
10164W        W27012   1.154   5.826   3.410 -0.4792  0.0146  0.0560
10165W        W27013  12.889  15.597  14.431 -0.0278  0.1929 -0.0246
10166W        W27014   6.527  13.507   2.750 -0.1003 -0.2887  0.0399
10167W        W27015  14.099  16.851  15.356  0.2977 -0.1518 -0.3895
10168W        W27016   6.518   5.000  14.468  0.0241 -0.0310 -0.0937
10169W        W27017   4.446   9.638  12.703  0.1309  0.0407 -0.0460
10170W        W27018  14.120   3.870  12.686  0.0943  0.2916 -0.0534
10171W        W27019   7.492   3.545  14.162  0.0532 -0.2045  0.2347
10172W        W27020  16.199   8.150  13.572  0.1090 -0.1205  0.2526
10173W        W27021   1.718  13.960  16.003  0.2784 -0.3939  0.1084
10174W        W27022  16.891  11.944  10.315 -0.1297  0.1163 -0.4020
10175W        W27023   7.259   7.750  15.943 -0.1787 -0.0246 -0.4955
10176W        W27024   2.765   8.721  12.372  0.3747  0.0620  0.0147
10177W        W27025  16.036  13.467  14.091  0.1011  0.4650 -0.3174
10178W        W27026  12.163  15.085   1.190  0.0658  0.0479  0.5806
10179W        W27027   1.367  12.091  14.880  0.2682 -0.0395 -0.1379
10180W        W27028  14.847   3.657  16.064 -0.1935  0.1849 -0.0579
10181W        W27029  16.355   8.693   3.241 -0.1036 -0.0284 -0.3361
10182W        W27030  12.804   9.647  13.416 -0.3238  0.1082  0.0438
10183W        W27031  16.902   0.553   5.711 -0.1053 -0.1094  0.1025
10184W        W27032  14.675  11.587   2.996  0.1267  0.2445 -0.0181
10185W        W27033   1.922  15.273   3.950  0.0985  0.3470  0.1566
10186W        W27034   1.984   7.773   0.394 -0.5310 -0.0186 -0.2610
10187W        W27035   4.748   7.382  12.325  0.1704 -0.1435  0.1245
10188W        W27036   0.261   4.803  10.160  0.1311  0.3505 -0.2415
10189W        W27037   0.790   5.689   1.289 -0.1946 -0.2344  0.1227
10190W        W27038   8.260  15.407  11.265 -0.1061 -0.0872 -0.0392
10191W        W27039   1.560  11.512   4.112  0.1918  0.0507  0.1873
10192W        W27040   5.851   2.573  15.219  0.0015  0.0116 -0.0684
10193W        W27041   4.480   3.553   0.355 -0.1325  0.2848  0.0263
10194W        W27042   6.956   6.586   2.551 -0.1441 -0.1080 -0.1116
10195W        W27043   1.033  16.390   4.966  0.0871 -0.2144 -0.1278
10196W        W27044   5.050  14.537  11.735  0.3352  0.1322 -0.0519
10197W        W27045   4.587   6.982   4.023  0.1328 -0.2981  0.3257
10198W        W27046   6.126  15.525   3.764 -0.0198 -0.4562 -0.0061
10199W        W27047   4.171  15.736  13.260 -0.2646  0.2756  0.0517
10200W        W27048   9.761  11.310   2.391 -0.1371  0.1303  0.1456
10201W        W27049  13.958  15.689  13.450  0.0170  0.1496  0.3912
10202W        W27050   5.454   8.715   3.883 -0.2217 -0.0920 -0.1292
10203W        W27051   8.230  15.856  13.275 -0.1380  0.3658  0.0383
10204W        W27052  16.263   0.974  12.767 -0.0843  0.0734  0.1207
10205W        W27053   0.127  15.916   1.429  0.1841 -0.0132  0.1438
10206W        W27054   3.243   7.438   0.539 -0.3225 -0.1178  0.0657
10207W        W27055  10.646   1.227  12.388 -0.1377  0.0554 -0.2502
10208W        W27056   8.222   2.999  13.079 -0.0050 -0.1829 -0.0095
10209W        W27057   5.649  17.108   3.728 -0.0094 -0.1021 -0.0678
10210W        W27058   6.169   9.893   4.100  0.0414 -0.1832 -0.0718
10211W        W27059  10.288   9.599   4.607 -0.1710 -0.0409  0.2953
10212W        W27060   8.793   2.438  15.006  0.6642 -0.1425  0.1043
10213W        W27061  14.191   5.452  13.562  0.0473  0.1057 -0.4589
10214W        W27062   6.628   5.853   0.390  0.1554 -0.0722 -0.0956
10215W        W27063  15.993  14.734   2.571 -0.1876 -0.3699  0.1545
10216W        W27064  14.815   1.069  11.942 -0.0914  0.1515 -0.0269
10217W        W27065  15.276   1.939  12.943 -0.1570  0.0635  0.0375
10218W        W27066   4.426   5.773   0.826 -0.1558 -0.0190 -0.0291
10219W        W27067   0.416   2.672   4.222  0.0094 -0.2290  0.1550
10220W        W27068  16.883   8.372  12.005  0.1199 -0.1314  0.1275
10221W        W27069  15.413  11.514  12.838 -0.1258 -0.0925 -0.0563
10222W        W27070  11.930   1.994   2.417 -0.0517  0.4036 -0.1986
10223W        W27071  14.086  12.754  12.425  0.0357 -0.2956 -0.0098
10224W        W27072   4.447  13.850  15.832  0.1385  0.0448  0.1063
10225W        W27073   4.817  17.086   3.045  0.0644  0.2457 -0.1687
10226W        W27074  10.648   2.291   1.930  0.1751  0.3280 -0.3240
10227W        W27075   8.326   6.371   0.051 -0.4743  0.0652 -0.0329
10228W        W27076  11.227  13.946   0.281  0.2616  0.2258 -0.1225
10229W        W27077   9.412  15.755   3.801 -0.0428  0.0242 -0.4298
10230W        W27078  12.172   6.429   0.949 -0.3380 -0.0195 -0.1133
10231W        W27079   2.060   9.594   0.672  0.0334 -0.0845 -0.1697
10232W        W27080   0.652   1.407   0.259  0.0418 -0.1677  0.2889
10233W        W27081  18.170   5.022   4.213  0.1009  0.0793  0.0642
10234W        W27082   5.736   0.007   4.627 -0.2233 -0.0775  0.0463
10235W        W27083   4.811  13.704   0.237 -0.3461  0.3222 -0.1890
10236W        W27084  16.209   8.141  15.659 -0.0295  0.1541 -0.0902
10237W        W27085   6.023   0.113   3.571  0.0650  0.1989 -0.1347
10238W        W27086   6.154  17.022  10.158  0.1917  0.0347 -0.1446
10239W        W27087  12.576   3.629   2.989  0.2080  0.1570 -0.1666
10240W        W27088   4.827  17.032  12.490 -0.2407  0.0988 -0.0819
10241W        W27089   7.124  11.254  12.810  0.0241 -0.1139  0.0657
10242W        W27090   4.365  18.035   5.596  0.1789 -0.0629 -0.0332
10243W        W27091  13.809   6.326  10.867 -0.1672  0.0543 -0.2662
10244W        W27092  17.416  17.079   1.367 -0.1815  0.2378 -0.0808
10245W        W27093  13.500   5.208  15.228  0.4378  0.1957  0.1030
10246W        W27094   3.555  17.516   2.285 -0.1985 -0.3167  0.0006
10247W        W27095  16.956  12.013  11.106 -0.2742  0.2867  0.1137
10248W        W27096  13.468  15.578  15.165  0.1162 -0.2559 -0.2102
10249W        W27097   1.227  16.858  10.886 -0.2136 -0.0485 -0.0104
10250W        W27098   5.288  16.701   3.677  0.2839  0.1678 -0.0617
10251W        W27099   1.730   3.666  15.151 -0.0228  0.0967  0.0516
10252W        W27100   9.556  12.382  13.729  0.2161 -0.1271 -0.0093
10253W        W27101   2.453  16.927   4.842 -0.1611  0.3039 -0.0907
10254W        W27102   5.929   3.672   3.549  0.0649 -0.0768  0.0859
10255W        W27103   6.993  16.631  15.522  0.0335  0.0921  0.1151
10256W        W27104   7.867  16.253  15.034 -0.0164  0.0111  0.2351
10257W        W27105  14.471   7.054   2.461  0.0010  0.0522 -0.3081
10258W        W27106   3.919  12.127  15.125  0.4076 -0.4531 -0.2071
10259W        W27107   7.122   4.610   4.299  0.3876 -0.0381 -0.0450
10260W        W27108   9.338   1.377   4.584  0.3152  0.0004  0.1639
10261W        W27109   7.179   6.826   0.060  0.2900 -0.2743 -0.0439
10262W        W27110  13.158   3.728   3.507  0.0196 -0.1005 -0.1918
10263W        W27111  13.475  14.701  12.163 -0.2034 -0.1586  0.0073
10264W        W27112  16.807   6.717  12.734 -0.1421 -0.1826 -0.0962
10265W        W27113   1.274   0.441   4.847  0.1037  0.0867  0.3000
10266W        W27114  11.650  14.527   2.055  0.2506 -0.0321  0.0009
10267W        W27115   8.975  10.269   4.621 -0.2159 -0.1317 -0.1218
10268W        W27116  10.139   0.308  12.744 -0.3004 -0.3131  0.0622
10269W        W27117   7.269   8.269  12.614  0.0029  0.2692  0.1859
10270W        W27118  17.043   6.399   4.113  0.1486  0.1300  0.1786
10271W        W27119   3.534   9.159  10.610  0.0052  0.2222  0.3145
10272W        W27120   8.450  10.223  13.071  0.1466  0.0988 -0.0550
10273W        W27121   6.505   6.781  12.554  0.0927 -0.2224 -0.0182
10274W        W27122   1.323  12.529  14.656 -0.0779 -0.2727  0.0953
10275W        W27123   8.963   9.032  12.590  0.3974 -0.0377  0.2596
10276W        W27124   5.950  15.990  12.458  0.2935 -0.0349  0.0589
10277W        W27125   7.759  18.081  11.342 -0.0982 -0.1495 -0.3810
10278W        W27126   4.936  12.270  12.402  0.2085 -0.1758 -0.0076
10279W        W27127   4.895  14.822   1.076 -0.1022  0.0375 -0.0138
10280W        W27128  13.167   7.939  12.519  0.2073 -0.1266  0.2618
10281W        W27129  16.700   8.831  14.706  0.0202  0.3429  0.0963
10282W        W27130  11.295   9.272  13.421 -0.1699 -0.2749  0.0569
10283W        W27131   2.316  16.410   0.489 -0.0309 -0.0057 -0.1609
10284W        W27132  12.105   8.413   0.437 -0.2266 -0.1995  0.0912
10285W        W27133   3.627  10.045  12.868  0.2142  0.0130  0.0441
10286W        W27134   6.060   5.796  14.727  0.2820 -0.1712  0.0301
10287W        W27135  16.456  17.667   0.008  0.0960 -0.1045 -0.4174
10288W        W27136   4.784   7.972   2.841 -0.1462  0.1434 -0.1487
10289W        W27137   1.428  14.362  15.822 -0.0113 -0.1692  0.0823
10290W        W27138  17.821  14.415   0.856  0.1739  0.0995  0.1019
10291W        W27139  12.404   3.349  14.146  0.2504 -0.3779  0.1998
10292W        W27140   1.341   6.774   2.329 -0.0296 -0.2345  0.0023
10293W        W27141   4.750   9.158  15.996 -0.0538  0.0604 -0.0974
10294W        W27142   1.391  10.469  12.590 -0.3167  0.0815 -0.0111
10295W        W27143   5.539   4.848   3.940 -0.0723 -0.1417 -0.1964
10296W        W27144  13.508   6.039   2.466 -0.2541 -0.1978 -0.2951
10297W        W27145  15.886   0.504   3.812  0.1847  0.2527 -0.3208
10298W        W27146   6.855  14.320  11.627  0.2712 -0.0180  0.0954
10299W        W27147  14.360  11.786   3.342  0.1091 -0.2580 -0.2402
10300W        W27148   2.505  13.872   1.379  0.1363  0.0929  0.1343
10301W        W27149   6.904   0.565  15.360 -0.0543 -0.2384  0.0263
10302W        W27150   9.133   7.445   3.518  0.2648  0.0695  0.1555
10303W        W27151   7.684   5.122   3.761  0.0200 -0.1370 -0.4748
10304W        W27152   0.187   0.458   3.310  0.0962 -0.0728  0.0359
10305W        W27153   5.016  15.816   0.835  0.0293 -0.0079 -0.2626
10306W        W27154   6.348  13.338  11.229 -0.2260  0.0003  0.1774
10307W        W27155  10.326   0.748   1.869 -0.0815  0.1334 -0.0016
10308W        W27156   6.924  13.205   2.233  0.0238 -0.2145 -0.1132
10309W        W27157  16.050  17.231   3.490  0.4287 -0.1355 -0.2773
10310W        W27158   3.844  16.952   4.041 -0.1691 -0.3064  0.0796
10311W        W27159   9.209   6.904  13.062 -0.0703 -0.0457 -0.1282
10312W        W27160  12.760   6.099   2.101  0.2567 -0.3476 -0.2012
10313W        W27161  15.398   3.945   0.541  0.1740  0.3974 -0.1652
10314W        W27162   8.271   1.119  12.956 -0.0989  0.0854 -0.3557
10315W        W27163   2.959   9.074   3.956  0.1524 -0.1789 -0.4382
10316W        W27164   6.738   9.976   2.922  0.0399  0.0156  0.5364
10317W        W27165   5.734   4.542  13.171  0.3476 -0.0857  0.1504
10318W        W27166  14.038   1.573   3.289 -0.1251 -0.1667  0.1733
10319W        W27167  13.589   4.157   0.939  0.1668 -0.1812 -0.0426
10320W        W27168   4.008  13.364  15.320  0.1074  0.2158 -0.2294
10321W        W27169  10.522   8.534  12.483 -0.1375 -0.0199  0.0299
10322W        W27170   6.551  11.497  10.982 -0.0338 -0.4759  0.2405
10323W        W27171  16.070   5.515   4.434  0.0268  0.4233  0.2281
10324W        W27172  15.570   0.134   3.270 -0.0438 -0.0258 -0.2400
10325W        W27173   4.331   8.796   0.664  0.0186  0.0935 -0.1242
10326W        W27174   5.889  12.548  14.487  0.2598 -0.0348 -0.0857
10327W        W27175   6.961  10.567   1.637 -0.1188  0.0683 -0.0256
10328W        W27176   9.095   9.356   3.134 -0.0320 -0.1342  0.3800
10329W        W27177   3.913   4.529  11.043  0.0248 -0.0270 -0.1172
10330W        W27178  10.885   8.442  12.045  0.0654 -0.1547  0.1363
10331W        W27179  11.782  14.973   4.844 -0.0434  0.1453 -0.1927
10332W        W27180   5.756   9.514   4.099  0.5005  0.0119 -0.1848
10333W        W27181   6.278  10.203  13.825  0.2607  0.1119  0.1985
10334W        W27182   3.469  17.769  15.435  0.1496  0.0320  0.2881
10335W        W27183  13.664  13.515  11.159  0.0682 -0.1593 -0.4863
10336W        W27184  12.535   4.213   1.567 -0.0565 -0.0964 -0.0906
10337W        W27185   2.959  12.573   3.237 -0.1021 -0.2017 -0.2143
10338W        W27186   3.722   3.573  15.388  0.1436 -0.1051  0.0171
10339W        W27187  13.001   0.058  15.101  0.1304 -0.1117 -0.0495
10340W        W27188  16.428  18.013   3.712 -0.1055  0.1762 -0.0742
10341W        W27189  11.096   5.312   3.990 -0.0828 -0.0205 -0.0646
10342W        W27190   1.145   5.973   4.339 -0.1007 -0.1447 -0.0797
10343W        W27191  16.952   4.873   2.747  0.0163 -0.3141  0.0121
10344W        W27192   5.409   7.582  12.715 -0.0149  0.2882 -0.1103
10345W        W27193  13.786  13.714   1.566  0.2456 -0.1047  0.2581
10346W        W27194   9.979  15.316   1.907  0.2301 -0.3157  0.2767
10347W        W27195   9.446   6.494   2.455 -0.1892  0.0503  0.1211
10348W        W27196  11.222   0.294  14.686  0.2062 -0.1122  0.0157
10349W        W27197  12.952   5.753   3.439  0.2350 -0.0589 -0.0464
10350W        W27198  14.793   1.247  12.425  0.1669  0.0515 -0.1865
10351W        W27199  10.578   7.464  14.823 -0.0343  0.0955  0.0610
10352W        W27200  18.191  14.335   0.499  0.1110 -0.1172  0.0093
10353W        W27201   2.735   7.238  14.953  0.1214 -0.2359 -0.1027
10354W        W27202  15.192  13.956  10.934 -0.3896  0.3554  0.2001
10355W        W27203   8.208   3.004   2.042 -0.2110 -0.0296 -0.0369
10356W        W27204   6.484  14.521  14.944  0.2113  0.0457  0.2128
10357W        W27205   9.826  15.376   0.154  0.3021 -0.2572  0.0132
10358W        W27206   5.031   2.367  15.374  0.1492  0.2467  0.1929
10359W        W27207   5.309  14.072  15.182  0.1985  0.1409  0.1008
10360W        W27208  16.252  11.323   3.684  0.2557  0.0554 -0.0411
10361W        W27209   0.908   6.572  13.810 -0.1819 -0.2301  0.1348
10362W        W27210  18.045   7.274   1.353 -0.0735  0.0051 -0.3066
10363W        W27211  17.199   4.763   5.679  0.0259 -0.1384  0.2409
10364W        W27212  13.590  15.796  13.767 -0.1334 -0.1684 -0.0191
10365W        W27213  15.293  13.531  10.523 -0.1135  0.0635  0.0195
10366W        W27214  11.955  13.724  10.632  0.1426  0.0948  0.1794
10367W        W27215   9.809   3.527   3.962  0.0718 -0.1519  0.0214
10368W        W27216  17.671  12.597  14.959  0.0739 -0.0801 -0.1064
10369W        W27217   1.924  17.409  15.134  0.1048  0.2413  0.0960
10370W        W27218  10.002  11.518  12.785  0.0351  0.1312 -0.0071
10371W        W27219   4.709  15.957   3.956 -0.2156 -0.2571 -0.0299
10372W        W27220   9.668   2.710  11.495  0.1456  0.1152 -0.2009
10373W        W27221   5.051  17.346  12.196 -0.1050  0.1217 -0.2360
10374W        W27222  11.747   4.633  15.608  0.1135 -0.1545 -0.1537
10375W        W27223  16.961  11.178   2.801  0.1103 -0.0031  0.2535
10376W        W27224   6.288   7.317   1.673  0.0635  0.1172  0.0583
10377W        W27225   2.960   1.763  12.015 -0.0564  0.0975  0.2591
10378W        W27226  17.602   6.906  12.725 -0.0309  0.1479 -0.0906
10379W        W27227  16.146  18.130  12.266  0.0861  0.1184 -0.1876
10380W        W27228  14.000   6.867   3.914 -0.3960  0.0580  0.4462
10381W        W27229   0.293   1.365   9.752  0.1271 -0.2652  0.1906
10382W        W27230   5.390   0.348   0.975 -0.0075 -0.0538  0.1746
10383W        W27231   7.055   6.855  15.108 -0.1431 -0.2028  0.2865
10384W        W27232  17.574   3.033  15.437 -0.1998 -0.0563 -0.0696
10385W        W27233  17.186  17.478   0.861 -0.0923  0.0217  0.0875
10386W        W27234   1.205   0.207   0.106  0.0027 -0.1080 -0.1064
10387W        W27235   6.515   7.182   5.310 -0.1246 -0.1831 -0.0095
10388W        W27236   4.428   5.437   3.796 -0.2625  0.2588  0.1000
10389W        W27237  15.898  13.686   0.077 -0.0636  0.4080 -0.0586
10390W        W27238   2.989   7.059   1.694 -0.0144 -0.2771 -0.2613
10391W        W27239   1.202   0.514  11.215  0.0053 -0.0989  0.3300
10392W        W27240   3.722   1.870  11.199  0.5506  0.0762  0.2277
10393W        W27241  15.252  10.409  11.183 -0.3669  0.0045  0.0654
10394W        W27242   2.153  12.841  11.674 -0.0227  0.0461  0.0834
10395W        W27243   3.521   5.733  14.475  0.2743 -0.0204  0.0380
10396W        W27244  13.323   4.470  16.086  0.1284  0.2178  0.0165
10397W        W27245   1.242   6.749   3.578  0.5664  0.3783 -0.0154
10398W        W27246   0.444   3.521   5.794 -0.1843  0.3674 -0.0374
10399W        W27247   1.183   5.448  15.357 -0.0989 -0.0099 -0.1792
10400W        W27248  15.978  13.887  14.364 -0.0102 -0.1294  0.1634
10401W        W27249   5.968  11.893   2.855 -0.0401 -0.0304 -0.2053
10402W        W27250  11.638  17.541  12.355 -0.1895 -0.3216 -0.1596
10403W        W27251  14.744   1.659  13.730  0.1315  0.0720 -0.0054
10404W        W27252   1.250  15.705  12.473  0.1327 -0.0856  0.1204
10405W        W27253  17.742  17.000   0.199  0.0409  0.2510  0.3633
10406W        W27254   5.585  12.304  14.804  0.3165 -0.0971  0.1717
10407W        W27255   7.472  18.199   4.875 -0.2746  0.0479 -0.1326
10408W        W27256  13.994   2.381  10.948  0.0653 -0.3936  0.0057
10409W        W27257  16.759  12.154   4.437  0.0512 -0.2452  0.0823
10410W        W27258  16.443  12.084  12.034  0.3852 -0.0048  0.1264
10411W        W27259  12.689   0.682  12.870 -0.2879 -0.1068  0.0754
10412W        W27260   3.526   2.943  12.297 -0.1702  0.1209 -0.3159
10413W        W27261  15.010   7.680   0.669 -0.1509 -0.0453 -0.0865
10414W        W27262  11.339   6.778   3.038 -0.0317 -0.2194  0.0962
10415W        W27263   2.525   0.387  15.190  0.0177 -0.0636 -0.0912
10416W        W27264  11.917  13.615   1.616  0.0887  0.3890  0.1649
10417W        W27265   9.021   5.167   0.916  0.2636 -0.0578 -0.0479
10418W        W27266   6.753   0.301   3.671  0.2163 -0.0478 -0.1277
10419W        W27267  12.573  12.668   3.073  0.2690 -0.0193  0.2185
10420W        W27268   6.913  15.218   2.149  0.1853 -0.0488 -0.0377
10421W        W27269  13.616   0.171  13.784 -0.0084 -0.2224  0.1047
10422W        W27270  11.095  15.469   6.024 -0.2543 -0.0637  0.1472
10423W        W27271  18.118   8.133  15.387  0.1723 -0.0387 -0.2614
10424W        W27272  14.502   8.372  13.304  0.1844 -0.1810 -0.1299
10425W        W27273   1.139  17.211  13.315  0.1080 -0.1552  0.1729
10426W        W27274   2.392  11.229  16.014  0.1723 -0.1520 -0.0847
10427W        W27275  12.055   9.755  13.040  0.2327  0.2360 -0.1564
10428W        W27276   2.079  17.970   2.150  0.2206  0.2422 -0.3369
10429W        W27277   9.235   8.036  13.868  0.4581 -0.2911  0.1968
10430W        W27278   4.210  12.506  14.951  0.1514 -0.2603 -0.0952
10431W        W27279   6.690  16.494  13.566 -0.2470  0.0096  0.1922
10432W        W27280  11.760   1.006  12.381 -0.2439 -0.1353  0.0024
10433W        W27281   8.666   6.635  13.818  0.0864 -0.1456 -0.2725
10434W        W27282  17.395  11.603   0.785 -0.2321 -0.1423 -0.0220
10435W        W27283  11.846  16.631  14.683 -0.1881  0.2797  0.6754
10436W        W27284  17.359  11.116   4.912 -0.1573 -0.0610 -0.2046
10437W        W27285  16.213  17.968   0.415 -0.1137  0.2434  0.1251
10438W        W27286   9.375   7.779   0.837  0.1430 -0.2184  0.1360
10439W        W27287   1.267   2.975   4.341 -0.2758  0.1595  0.1009
10440W        W27288   4.171   3.704   1.373  0.0926  0.4077 -0.0996
10441W        W27289   2.292   1.109  11.677  0.0338  0.1503  0.0363
10442W        W27290   7.168  16.827   2.487  0.1088  0.1962  0.0395
10443W        W27291   3.784  17.860   2.714 -0.0674 -0.0947 -0.1903
10444W        W27292  11.140  11.966   1.937  0.1378  0.0970  0.3522
10445W        W27293   2.223   3.451  14.849  0.1297  0.1794  0.0462
10446W        W27294  17.970   6.368  15.791  0.0447 -0.1973  0.0874
10447W        W27295   7.745   2.204   3.555  0.1585 -0.1213 -0.2364
10448W        W27296  14.197  16.476  14.760 -0.0835 -0.0925  0.0903
10449W        W27297  12.196   8.144  14.656 -0.0686  0.0336  0.1951
10450W        W27298   0.687  15.054   2.682  0.0360  0.2954  0.0415
10451W        W27299  11.181   6.769   3.540  0.1969  0.1525 -0.2494
10452W        W27300  14.291  13.675   4.287  0.0885  0.3189  0.1418
10453W        W27301  14.601   4.399  10.151 -0.0766 -0.0084 -0.0503
10454W        W27302   2.361   2.487   0.555  0.1902  0.2484 -0.1572
10455W        W27303   4.516   7.661  12.716  0.1439  0.0875  0.0495
10456W        W27304  12.574   4.878   2.682  0.0726  0.0502 -0.3547
10457W        W27305  16.072   9.005   3.801  0.0262  0.1886  0.0108
10458W        W27306   1.215   7.875  13.878 -0.3633  0.3369 -0.1176
10459W        W27307  16.952  18.171   3.560 -0.0807  0.1324 -0.1745
10460W        W27308  10.877  16.679   0.957  0.0550 -0.2655 -0.2638
10461W        W27309  14.961  10.354  12.487 -0.2059 -0.1751  0.2102
10462W        W27310   8.479  12.180  11.746  0.4923 -0.0958  0.1628
10463W        W27311  17.220  14.722  12.372 -0.1274 -0.3498 -0.0049
10464W        W27312   9.497   2.149   4.035  0.3337 -0.0048  0.3107
10465W        W27313  12.638  13.455   5.147 -0.2296  0.5437  0.0132
10466W        W27314   1.986  17.940   1.251 -0.1619  0.2034 -0.3375
10467W        W27315   0.319   8.430  10.693 -0.1624  0.0243 -0.3195
10468W        W27316  13.297   2.932  12.234 -0.2310  0.1557 -0.1489
10469W        W27317   5.254   2.210   0.804 -0.3401  0.2156  0.2056
10470W        W27318   0.067   0.830   4.668 -0.0958  0.0726 -0.3739
10471W        W27319   5.470  11.335  11.228  0.2079  0.1758  0.0619
10472W        W27320  16.417   1.192  15.368  0.0103 -0.1569 -0.0718
10473W        W27321  17.509   8.671   3.089  0.1277  0.0700 -0.3000
10474W        W27322   9.926   5.236   2.894 -0.0067 -0.2929  0.0484
10475W        W27323  12.420   4.652  14.787  0.2507 -0.0916  0.3961
10476W        W27324   3.489   5.273   4.235  0.0608  0.1706  0.1644
10477W        W27325   6.835   3.888   4.490 -0.1054 -0.0465 -0.1855
10478W        W27326   7.492   0.522   1.185  0.0155 -0.0321  0.2172
10479W        W27327   7.802   7.484   1.088  0.1933 -0.2651 -0.0569
10480W        W27328  15.394  16.449   1.554  0.0466 -0.0983  0.0305
10481W        W27329   0.340   6.914   3.950 -0.0530  0.3160 -0.0392
10482W        W27330  11.098  14.757  15.769  0.0531 -0.1726 -0.0740
10483W        W27331   9.557   1.328  14.073 -0.1338  0.1825  0.0187
10484W        W27332   7.759   6.147  15.085  0.0515 -0.0288 -0.1667
10485W        W27333  12.829  11.949   1.183 -0.3029 -0.0215 -0.2990
10486W        W27334  11.261  16.553  14.774 -0.1543  0.1705 -0.0237
10487W        W27335   5.288  11.622   1.817  0.0676  0.4319 -0.1123
10488W        W27336   7.810   7.969  13.255  0.1193  0.0300 -0.0664
10489W        W27337   7.630  10.061  13.364  0.2072  0.0885 -0.5103
10490W        W27338  13.066  10.769   1.637  0.6465  0.1450  0.2936
10491W        W27339  12.666   7.184   4.258  0.2572  0.1719  0.1073
10492W        W27340  10.954  13.064  15.891 -0.2728  0.1859  0.0535
10493W        W27341  15.626  17.977   2.997  0.0230  0.0468  0.1109
10494W        W27342  14.014  16.195  11.141 -0.3547  0.1096  0.1221
10495W        W27343  13.267   7.850   4.681  0.2598  0.0191 -0.0152
10496W        W27344   6.444   1.096   5.229 -0.1884  0.2296  0.1639
10497W        W27345   3.143   2.247   4.970  0.0247  0.1349  0.1368
10498W        W27346  16.319   6.567   2.941  0.0507  0.0485  0.0687
10499W        W27347   5.493  12.453  15.246  0.3871 -0.1219  0.1343
10500W        W27348  14.655  18.063   4.409  0.1304  0.0440  0.2047
10501W        W27349   6.299   2.935  13.010 -0.0258  0.0007 -0.0736
10502W        W27350   9.793   0.112  15.346  0.0842  0.2231  0.0716
10503W        W27351   1.302  11.466  14.928  0.2407  0.1011  0.1082
10504W        W27352   8.430   4.298  15.033 -0.3033 -0.0002 -0.0775
10505W        W27353   2.484  10.111   1.668  0.4366  0.2281  0.1565
10506W        W27354  12.963   6.547   5.303 -0.0793  0.0869 -0.2487
10507W        W27355   5.948   4.713  15.793  0.0242  0.1091 -0.1723
10508W        W27356   6.729   2.461  14.253  0.2056 -0.3405  0.2270
10509W        W27357  10.481   6.625   0.955  0.2399  0.1229 -0.2307
10510W        W27358  15.972  17.913  13.164 -0.2862 -0.0481  0.0138
10511W        W27359   4.457   0.903   0.889 -0.0771 -0.1217 -0.1210
10512W        W27360  13.347   3.758  13.724  0.0408  0.2313  0.0448
10513W        W27361  11.076  16.178   0.431  0.1201  0.1103  0.0635
10514W        W27362  16.277   0.656  13.830 -0.0291  0.1661 -0.0222
10515W        W27363  17.940   0.393   4.445 -0.3526 -0.0736 -0.3046
10516W        W27364   4.240  10.466   2.184  0.2181 -0.0088  0.0378
10517W        W27365  13.384   1.677   2.240  0.1854  0.0736  0.0134
10518W        W27366  18.131   5.214   2.101 -0.0439 -0.0930 -0.2057
10519W        W27367   2.668   4.327   4.988 -0.2865  0.3474  0.0138
10520W        W27368  16.842   4.938   4.923  0.1290  0.0829  0.1209
10521W        W27369   2.590  17.144  14.492 -0.2019 -0.1002 -0.0080
10522W        W27370   1.694   7.843   2.470  0.0384 -0.1381  0.0665
10523W        W27371  12.157   0.997   2.837 -0.0716  0.0540  0.3586
10524W        W27372  17.515  16.724   3.618  0.2071  0.2912 -0.1628
10525W        W27373  12.767   3.572  13.907  0.1615  0.0318  0.0519
10526W        W27374  16.165   2.964   1.084  0.3091  0.1103 -0.2422
10527W        W27375   6.234  16.657   4.903 -0.1924 -0.0833 -0.1318
10528W        W27376  12.887  10.066   4.376  0.0863  0.0119 -0.1597
10529W        W27377   6.009  10.628  12.421 -0.0525 -0.0687 -0.0426
10530W        W27378   3.180   5.950   0.936 -0.3767  0.1296 -0.1264
10531W        W27379  17.645   4.633   3.585  0.2040  0.2533  0.0272
10532W        W27380   9.095   0.849  12.287 -0.3489  0.0353 -0.0903
10533W        W27381   3.955   4.616  14.135 -0.1706  0.2012  0.0655
10534W        W27382  17.861   1.577  12.311 -0.0922 -0.0371 -0.1778
10535W        W27383   1.463  12.217   0.690 -0.1160  0.1622  0.0274
10536W        W27384   9.889  15.089  12.593  0.0515 -0.0772 -0.2167
10537W        W27385   3.774   9.221   2.990 -0.1111  0.1960 -0.0305
10538W        W27386  13.611   7.787  15.806 -0.3830 -0.2104 -0.2767
10539W        W27387  17.714   8.169   4.760 -0.0889 -0.0109 -0.0330
10540W        W27388  17.655  12.229   4.807  0.2243  0.1828 -0.4219
10541W        W27389  12.048   7.348   1.532  0.0395 -0.0444  0.0886
10542W        W27390   5.831   5.533   4.784  0.1525  0.4520 -0.0528
10543W        W27391   7.815   1.232   3.256 -0.2243  0.2063 -0.0998
10544W        W27392  14.561   9.863   4.097 -0.1780  0.0459  0.0798
10545W        W27393   5.139   5.866  16.038  0.2256 -0.0287  0.2829
10546W        W27394   0.433   8.555  11.243 -0.4054 -0.4237 -0.1239
10547W        W27395   5.443   6.756  15.757  0.2291  0.1165  0.0200
10548W        W27396  17.830  13.263  12.364  0.2101  0.0029 -0.2396
10549W        W27397   4.700  13.696  11.298 -0.1368  0.1103 -0.1067
10550W        W27398   0.539   9.457  11.427  0.4812 -0.1389  0.2049
10551W        W27399  15.198   1.269   0.261  0.0944  0.1595 -0.1690
10552W        W27400   3.319  16.630  12.328 -0.0215  0.2061  0.0720
10553W        W27401   9.059  16.316  13.370 -0.2138 -0.0270  0.0317
10554W        W27402   8.892   7.882   3.305 -0.1050  0.0966  0.1258
10555W        W27403  11.713  13.799   1.212 -0.2261  0.0740  0.0944
10556W        W27404  17.126   8.521   1.605 -0.1828 -0.1766  0.0831
10557W        W27405   2.355   8.224   0.957  0.1279 -0.0566 -0.0146
10558W        W27406   3.904   0.581   2.209  0.1692 -0.0283 -0.0107
10559W        W27407  10.130   0.637   1.423  0.1260  0.1873 -0.1242
10560W        W27408   6.592  13.080   4.550  0.6193 -0.1173  0.0106
10561W        W27409  12.546   8.173   1.952  0.1012  0.0233  0.0198
10562W        W27410  16.089   6.655  12.780 -0.1938  0.0652  0.1097
10563W        W27411   6.281  12.378  12.262 -0.0981 -0.2365  0.0051
10564W        W27412   7.615   6.065  13.168  0.1061 -0.5080  0.0252
10565W        W27413  14.420   4.833   1.352  0.1199 -0.0532 -0.2402
10566W        W27414   6.449   8.135   2.767  0.2102 -0.1583  0.3030
10567W        W27415   3.236   5.555   0.394 -0.2513 -0.0509  0.1164
10568W        W27416  15.888  16.156  15.920 -0.5027 -0.0057  0.0319
10569W        W27417   8.416  10.688  13.890  0.1645 -0.1250 -0.1736
10570W        W27418   6.073  14.052  12.662 -0.0203 -0.0825  0.0162
10571W        W27419   3.529  17.417   1.493  0.3499  0.1955 -0.1439
10572W        W27420   9.752   6.019  15.415 -0.0658 -0.1395  0.1099
10573W        W27421   0.595   8.281   1.605  0.1288  0.2885 -0.0522
10574W        W27422   1.378   0.808   0.624 -0.0692 -0.2559 -0.2106
10575W        W27423   6.989  11.021   3.302  0.0684  0.1513  0.2004
10576W        W27424   2.541  18.191   3.787 -0.2439 -0.0977  0.2967
10577W        W27425   0.673  14.320  14.259  0.2373  0.2932 -0.1516
10578W        W27426  14.040  13.950  13.116 -0.1854 -0.1313  0.2686
10579W        W27427   9.617   1.472   3.892  0.2065  0.1138  0.2202
10580W        W27428   3.014   0.231  15.037  0.1619  0.0022  0.1526
10581W        W27429  15.715   8.347   4.287 -0.4540  0.2340 -0.2963
10582W        W27430   9.728   4.795   0.513 -0.1841  0.0274  0.2006
10583W        W27431  15.496   7.485   4.271 -0.0771  0.1209  0.0683
10584W        W27432  17.604   3.379   0.719 -0.1124  0.0617  0.0308
10585W        W27433   6.011  16.259   3.204 -0.2047 -0.0564  0.1482
10586W        W27434   2.548  15.474  15.919  0.3325  0.0706  0.1806
10587W        W27435  11.666   6.335   3.354  0.3728 -0.0337 -0.2708
10588W        W27436   1.886  13.594   2.728 -0.3578 -0.2870 -0.0353
10589W        W27437   1.311  11.680  12.597 -0.2045 -0.0707 -0.1632
10590W        W27438   7.582  17.142   5.784 -0.1470 -0.1515  0.1368
10591W        W27439   9.879   3.885   3.002  0.0305  0.2057  0.0032
10592W        W27440   5.318  10.396  11.940 -0.0225 -0.1843 -0.0373
10593W        W27441  10.587  13.677  12.520 -0.3767 -0.0738 -0.0265
10594W        W27442   8.019   6.011  15.690  0.1034 -0.1563  0.0532
10595W        W27443   8.861  16.614   1.750 -0.0018  0.2350  0.0309
10596W        W27444   7.839  13.645   2.194  0.0483 -0.2530 -0.0418
10597W        W27445  14.838   7.541  13.888 -0.0028 -0.0078  0.0467
10598W        W27446   3.349  14.686  14.327 -0.1776  0.0915  0.1377
10599W        W27447  12.161   0.098   0.498 -0.0964 -0.1441 -0.0894
10600W        W27448   6.436   4.219  15.348  0.2149  0.1170 -0.1170
10601W        W27449  12.059   5.087   5.577 -0.3204 -0.0577 -0.2179
10602W        W27450  12.053   8.585  14.317 -0.0042 -0.0586  0.0532
10603W        W27451  16.550   5.400   1.591  0.1839  0.0113  0.2964
10604W        W27452  17.692  17.380   3.574  0.1740  0.2119  0.3832
10605W        W27453  12.391   9.275   0.887 -0.0749 -0.0265  0.2528
10606W        W27454  10.769  10.965  14.693 -0.0043  0.1726  0.4642
10607W        W27455   9.123  14.970   2.574 -0.0132 -0.0675 -0.0816
10608W        W27456  14.127  17.535  13.494 -0.0122 -0.3163  0.2612
10609W        W27457   7.838   9.771   0.080 -0.4961  0.1561 -0.1239
10610W        W27458   4.726   9.974  13.845  0.3403 -0.2591  0.0337
10611W        W27459  12.731  15.849  11.698 -0.2863  0.1712 -0.1985
10612W        W27460   1.041  16.463  16.102  0.1873 -0.1700  0.3507
10613W        W27461   7.779   7.595   3.029 -0.1596 -0.4545 -0.1640
10614W        W27462  15.203  12.117  15.390 -0.1525  0.1520  0.0241
10615W        W27463  16.949  10.460  13.277  0.0420  0.3835  0.2058
10616W        W27464  16.578  11.268   2.009 -0.1309  0.2959 -0.0030
10617W        W27465  13.883  13.200   2.748  0.0188 -0.2905 -0.2673
10618W        W27466   3.633  14.306  14.651  0.2918 -0.1726 -0.0345
10619W        W27467  10.353   5.867  14.234 -0.1856  0.0270 -0.0929
10620W        W27468   2.441   7.981   0.174  0.1953  0.1251  0.2181
10621W        W27469  15.877   6.229   4.912 -0.0888 -0.1440 -0.1198
10622W        W27470   6.487  16.572  15.509  0.3434  0.0383  0.1768
10623W        W27471  12.198  14.776   2.398  0.0675  0.0838  0.0565
10624W        W27472   1.697   0.323   3.915 -0.0157 -0.0845 -0.1647
10625W        W27473   4.370  11.390  11.589  0.1173 -0.3693 -0.0783
10626W        W27474  12.261   6.841   1.271 -0.1011 -0.1063  0.1805
10627W        W27475  17.757  14.652   3.169  0.1003  0.1638 -0.2469
10628W        W27476  18.157   7.787  12.034 -0.3900 -0.1936 -0.0773
10629W        W27477   1.848   2.437  12.956  0.2491 -0.1915  0.4379
10630W        W27478  16.204  13.763  14.796 -0.1414 -0.2703  0.0189
10631W        W27479  15.617   8.638   2.532  0.1142 -0.0312 -0.0570
10632W        W27480  10.276  11.207  14.849 -0.3646 -0.0243  0.0016
10633W        W27481   2.983   7.419  12.130  0.0003 -0.0028 -0.1734
10634W        W27482   5.932  15.732   4.129 -0.1154 -0.1612  0.1458
10635W        W27483   6.479   5.126   2.910  0.1013  0.0765  0.2156
10636W        W27484  15.225  11.247   5.299  0.0529  0.1768  0.0180
10637W        W27485   6.511   0.892   3.827 -0.1693 -0.2415 -0.2034
10638W        W27486  17.398   6.939  12.279 -0.0254  0.2668  0.0776
10639W        W27487   3.291   2.498   3.083 -0.0601  0.0019 -0.1310
10640W        W27488  14.617   2.771  11.481 -0.0155 -0.0692 -0.0420
10641W        W27489   0.642  15.709  12.539  0.0004 -0.1310 -0.1055
10642W        W27490   7.419  11.326   3.251  0.3892  0.0560  0.0247
10643W        W27491   1.133   8.125   1.258 -0.0641  0.0439 -0.3742
10644W        W27492   8.264  10.948   0.846  0.2195 -0.4309  0.2661
10645W        W27493  10.391  11.822  12.744 -0.0536 -0.0329 -0.0301
10646W        W27494   1.965  13.329   1.437 -0.0244  0.1492 -0.1817
10647W        W27495   1.455   5.971   4.860  0.1991  0.1870  0.1169
10648W        W27496   8.345   2.781   4.310  0.0139  0.2511 -0.0442
10649W        W27497  11.374  13.946   0.747  0.0034  0.0599  0.1335
10650W        W27498   4.247   0.479   4.712 -0.2430 -0.1851 -0.1593
10651W        W27499   4.147  17.711  11.280  0.0676  0.1594 -0.3043
10652W        W27500  15.151   1.689   4.511  0.1156  0.1164 -0.3363
10653W        W27501   0.423   2.890  11.890  0.0731 -0.1656 -0.4684
10654W        W27502  16.446  17.643   3.367  0.3080 -0.0092 -0.2379
10655W        W27503   8.219  11.702   2.587 -0.3306  0.0391 -0.0090
10656W        W27504   5.220  10.198   1.368  0.0592 -0.1520  0.2946
10657W        W27505  15.156   3.974   2.604 -0.0774 -0.0123  0.0655
10658W        W27506  14.396   9.966   1.569  0.0155  0.0680  0.1262
10659W        W27507  10.402   9.453  12.567 -0.1786 -0.1684 -0.0226
10660W        W27508   0.374   2.132   0.613 -0.1975  0.0156 -0.1358
10661W        W27509   5.767   8.128  11.657 -0.1508  0.3588  0.0180
10662W        W27510  17.693   8.343   3.722 -0.1272 -0.0550  0.0225
10663W        W27511   7.593  17.844   2.935 -0.0151  0.0585 -0.0046
10664W        W27512  11.200   1.501  10.768  0.0851 -0.0199 -0.1105
10665W        W27513  15.462  16.047   4.694  0.0129 -0.0888  0.3201
10666W        W27514   1.584  14.610  14.580 -0.0352  0.1247  0.0760
10667W        W27515  14.319   4.604  10.854  0.2270 -0.1405 -0.2906
10668W        W27516   7.596  16.644   0.949 -0.2587  0.0169  0.3723
10669W        W27517   4.695  16.155   4.610 -0.1771  0.0514 -0.0075
10670W        W27518   2.640  13.662  15.819 -0.1834 -0.1429 -0.1096
10671W        W27519  17.429   6.703   5.472  0.1323  0.0280  0.0309
10672W        W27520  13.719  11.707   0.595 -0.0288 -0.2423  0.0840
10673W        W27521  15.087   1.425  13.505  0.1366 -0.2722  0.0991
10674W        W27522   9.431  12.708   3.140 -0.0573 -0.1237 -0.2365
10675W        W27523  11.124   1.152  14.776  0.1847  0.2539  0.0898
10676W        W27524   3.359  15.475  13.751 -0.3399 -0.2046  0.0600
10677W        W27525   0.182  17.255  13.188 -0.3774 -0.0716 -0.1463
10678W        W27526   0.508  14.804  12.346 -0.4961  0.1812 -0.1130
10679W        W27527   0.055   3.288  11.994 -0.3361 -0.5489 -0.0228
10680W        W27528  11.161   9.966   6.591  0.0224 -0.0468 -0.1546
10681W        W27529   8.679  15.564  13.076  0.0034 -0.0303  0.0703
10682W        W27530   5.403  11.638   0.978  0.0563 -0.1651  0.0182
10683W        W27531   0.740   8.116   4.534 -0.4131  0.2412  0.0060
10684W        W27532  10.568   0.095  12.997  0.0918 -0.1398  0.0833
10685W        W27533   6.951   0.635   4.054  0.0854  0.1672  0.0249
10686W        W27534   3.818   9.256  14.182 -0.1701 -0.1558  0.1688
10687W        W27535  12.418   1.693  14.201  0.1948 -0.1163 -0.0519
10688W        W27536  10.134  17.882   0.556  0.2417 -0.0058 -0.3481
10689W        W27537   4.543  11.366  15.284 -0.0788  0.1369  0.0435
10690W        W27538  14.314   2.336   3.518  0.1234 -0.0615 -0.4339
10691W        W27539   6.076  17.049  15.858 -0.0368 -0.4201  0.2570
10692W        W27540   3.514   0.383  15.223 -0.4246 -0.1128 -0.1843
10693W        W27541   7.121   7.163  14.079  0.3931 -0.0265  0.0925
10694W        W27542   8.234   6.872  15.549  0.0944 -0.1086  0.0769
10695W        W27543   3.110   8.219   2.558  0.0828  0.0042  0.0299
10696W        W27544  11.312   9.381  14.365  0.0135  0.3736 -0.0748
10697W        W27545  12.914  11.320   3.427  0.1260  0.2754  0.0180
10698W        W27546   2.150  15.071  14.624  0.3421  0.0180  0.0741
10699W        W27547   4.024   8.883  13.123 -0.1049  0.1371 -0.3050
10700W        W27548   6.462  15.976  15.832 -0.2513  0.1579  0.2221
10701W        W27549  12.164   9.784   2.200  0.1580 -0.0027 -0.0300
10702W        W27550  16.204   2.463  14.007 -0.0913 -0.0578  0.2215
10703W        W27551  16.260  15.584   0.889 -0.2456  0.1086 -0.0841
10704W        W27552   9.193   1.183  11.470 -0.3999 -0.0403 -0.0489
10705W        W27553   3.770  17.823   0.697  0.3633 -0.0516  0.0868
10706W        W27554   4.272  16.489   3.364 -0.1459 -0.2834  0.0420
10707W        W27555  14.657  14.248  13.965 -0.1178 -0.2484  0.2973
10708W        W27556  10.154   6.172   3.074  0.0530  0.1603  0.0880
10709W        W27557  12.837  12.497  13.649  0.1482 -0.2820 -0.1631
10710W        W27558  10.066  12.312  13.799 -0.3849 -0.0129 -0.2560
10711W        W27559   5.836   6.991   3.705  0.2779 -0.0115 -0.1048
10712W        W27560  17.855   6.016   0.575 -0.1747 -0.2424 -0.1200
10713W        W27561   4.517   3.058   3.663  0.1623 -0.0100  0.0862
10714W        W27562   5.323   9.089  13.520 -0.2080  0.3012  0.1657
10715W        W27563   9.671   9.083  14.797  0.2176  0.0329  0.0264
10716W        W27564   8.560  15.688   0.123  0.1035  0.0467 -0.2621
10717W        W27565   1.681   8.225   4.168  0.1386  0.1541 -0.0483
10718W        W27566   3.123   4.678   3.496  0.0395  0.0127 -0.0156
10719W        W27567   2.507   6.273  14.807  0.0484  0.0351 -0.3150
10720W        W27568  11.287  15.606   4.340  0.1156 -0.1905  0.0224
10721W        W27569  10.093   8.627   4.256 -0.0083  0.0262  0.0693
10722W        W27570  10.929   5.510   4.434  0.2511  0.0276  0.3491
10723W        W27571   5.705  13.856  10.868  0.2083 -0.3913  0.1266
10724W        W27572  17.811   0.423  15.371 -0.2654 -0.1905 -0.1215
10725W        W27573   0.918   9.498  13.309  0.1115  0.1662  0.2506
10726W        W27574   9.189   1.211  15.569  0.0312  0.0394  0.0727
10727W        W27575   6.228   0.178   1.569 -0.3162  0.4683  0.0350
10728W        W27576  10.432   4.851   5.049  0.1078  0.0677 -0.1898
10729W        W27577   7.576  14.110  13.848  0.0056  0.3050  0.1290
10730W        W27578   0.943  10.308  16.053 -0.2233  0.1435 -0.0590
10731W        W27579   0.117   3.448   3.669  0.0076  0.1932 -0.2886
10732W        W27580  12.112  16.271   0.114  0.0464  0.2752 -0.4926
10733W        W27581  16.145  11.777   0.663  0.3602 -0.2672 -0.1373
10734W        W27582  14.589  15.251   2.942  0.2065 -0.0184 -0.0399
10735W        W27583   4.986  17.458   4.608  0.0400  0.0052  0.0095
10736W        W27584   5.091  11.350  12.800  0.0247  0.0139 -0.1248
10737W        W27585  13.823   6.822  14.045  0.2706 -0.4342 -0.0377
10738W        W27586   9.155  13.915   3.969 -0.1532  0.2583 -0.2659
10739W        W27587   3.214   8.210   0.404 -0.1254 -0.2253  0.0393
10740W        W27588   4.728  13.553  11.871  0.1994  0.0973 -0.2854
10741W        W27589   1.004   3.724   3.546 -0.0083 -0.1449  0.1201
10742W        W27590   0.603  17.360  13.518 -0.0685 -0.0637  0.0028
10743W        W27591   1.729  15.302  11.127  0.2838 -0.1022  0.1953
10744W        W27592   2.286  16.100  14.527  0.0939  0.1085 -0.1558
10745W        W27593   8.632  17.648  11.156 -0.3526  0.1300  0.0562
10746W        W27594  17.370   4.087  11.742 -0.1381  0.2880 -0.1956
10747W        W27595   0.388   4.949  15.434 -0.3428 -0.1260 -0.1363
10748W        W27596   0.959   5.096   2.156  0.0506 -0.0887 -0.3107
10749W        W27597   7.307  13.051   4.921  0.1791  0.2821 -0.1613
10750W        W27598  13.645  11.395  15.425  0.1885  0.2313 -0.2099
10751W        W27599  10.056  17.386  14.627 -0.0197 -0.2609  0.1742
10752W        W27600   4.502  16.803  14.952  0.2628 -0.0068 -0.3601
10753W        W27601  17.345   1.772  14.120  0.0098  0.0539 -0.0084
10754W        W27602   8.121   1.706  11.208  0.2408  0.0516 -0.2663
10755W        W27603  11.314  10.307  15.773  0.2838  0.2977 -0.2501
10756W        W27604  13.629   7.737   3.391 -0.1840 -0.4813  0.2154
10757W        W27605   6.863   2.364   2.034 -0.0457 -0.1136  0.0901
10758W        W27606   6.883  13.476   0.379 -0.2545 -0.0320  0.2707
10759W        W27607   6.006   3.737   2.208 -0.1044  0.0721  0.2551
10760W        W27608  11.128   9.275   0.385  0.0875 -0.1368  0.2579
10761W        W27609  18.025   9.668  11.903 -0.0269 -0.2828  0.0835
10762W        W27610   4.116   5.335  11.197  0.0447 -0.0229  0.4486
10763W        W27611   4.608  11.700   4.279 -0.0777 -0.2887  0.2529
10764W        W27612   4.753   6.496  11.804 -0.2024  0.3018 -0.1787
10765W        W27613   5.355   3.475  12.175 -0.1180 -0.1569 -0.2214
10766W        W27614   3.965   2.757  11.495 -0.0388  0.0588 -0.0798
10767W        W27615   8.518  15.334   2.571  0.1492 -0.0280  0.2332
10768W        W27616  14.610   4.645  15.163 -0.3788 -0.2971 -0.2812
10769W        W27617   1.391   8.668  13.845  0.1175  0.1274 -0.0438
10770W        W27618   5.746   6.705  13.694  0.1342  0.0976  0.1799
10771W        W27619  10.718   1.976   4.513  0.0478  0.1032 -0.1650
10772W        W27620   3.975   7.210   5.122  0.1188  0.3492 -0.0760
10773W        W27621  17.766  12.757   2.564 -0.3479  0.1177  0.2330
10774W        W27622  17.778  10.808   0.611 -0.1761 -0.1473 -0.0577
10775W        W27623   1.963  12.499  11.350 -0.3065  0.2372 -0.0687
10776W        W27624  11.108  11.836  15.544 -0.0465  0.0526 -0.1764
10777W        W27625   0.373   4.944  14.872 -0.0495  0.2264 -0.0991
10778W        W27626   8.329  13.151  14.294 -0.1139 -0.1639 -0.1068
10779W        W27627   5.818   0.464  15.346  0.1143  0.0903 -0.1755
10780W        W27628  15.109  12.934   2.354  0.0454 -0.1441  0.0211
10781W        W27629  17.188  16.412   0.471 -0.1750  0.2939  0.1284
10782W        W27630   4.193  11.274  13.774 -0.1567 -0.2002  0.2490
10783W        W27631  10.829  16.054  14.068 -0.0565 -0.1733 -0.2885
10784W        W27632  16.661   2.380  14.182  0.0911  0.2449 -0.1774
10785W        W27633   7.009  17.007  14.982 -0.0587 -0.0149 -0.1936
10786W        W27634  10.142   0.302   3.323 -0.0003 -0.0051 -0.0739
10787W        W27635   4.999   4.751  12.235 -0.1828  0.0733 -0.3255
10788W        W27636   4.516   4.636  12.109 -0.1346  0.2370  0.1741
10789W        W27637   9.316  16.659  12.294  0.2931  0.2213  0.0785
10790W        W27638   2.564   8.753  15.851  0.0351  0.1035 -0.0533
10791W        W27639   1.430  14.846   4.398 -0.0019  0.0308  0.0510
10792W        W27640   7.117   0.634   0.790 -0.0612 -0.0078  0.2307
10793W        W27641  12.350   1.816  13.445  0.0128  0.2678 -0.0188
10794W        W27642   3.215  10.187  15.249 -0.1532 -0.0547  0.3060
10795W        W27643  16.272  17.369   4.961 -0.0974 -0.2363 -0.1422
10796W        W27644  15.289  13.803  14.935  0.2781 -0.0354  0.3753
10797W        W27645   1.717   8.331  14.160  0.2981  0.1331  0.1444
10798W        W27646   8.180  14.393  15.995  0.0409 -0.2162 -0.0436
10799W        W27647  16.102  13.803  15.283  0.3468  0.0482  0.2373
10800W        W27648   4.696   1.727  12.109 -0.4395 -0.4672 -0.0692
10801W        W27649  12.649   0.182  15.914 -0.0549 -0.0145 -0.0417
10802W        W27650   0.353   8.755   4.011  0.3395 -0.0886 -0.0711
10803W        W27651  14.082  17.687  15.154 -0.0756  0.0861 -0.0308
10804W        W27652   4.522  16.748   1.181  0.3371 -0.1751  0.1360
10805W        W27653   6.758  12.130   1.548  0.1227  0.1666  0.2328
10806W        W27654  16.412   3.344  12.725 -0.0901  0.2747  0.0137
10807W        W27655   8.615  17.015   2.221 -0.0378 -0.0044  0.0546
10808W        W27656  16.779   8.607  13.661 -0.0225 -0.0390  0.2327
10809W        W27657   9.346   5.663   5.189  0.0362  0.0278 -0.0162
10810W        W27658  14.414   1.471   4.054  0.0145 -0.0843  0.1511
10811W        W27659  12.639   3.417  15.019 -0.0302 -0.2004 -0.3148
10812W        W27660   0.588   3.426   2.644  0.2177  0.2392  0.1115
10813W        W27661   0.031  17.834   0.983  0.2495  0.2430 -0.0178
10814W        W27662  17.800  11.969   1.007  0.2670 -0.2110 -0.0577
10815W        W27663   9.567  12.406   2.015 -0.0709  0.1213 -0.0692
10816W        W27664   9.836   0.581   1.018 -0.0796  0.0455 -0.2531
10817W        W27665   9.347  15.129   4.687  0.0270  0.2627  0.0414
10818W        W27666   0.603   0.909   2.623  0.0487 -0.0004  0.1001
10819W        W27667  13.662  17.940  13.533 -0.1540 -0.0420  0.2047
10820W        W27668   1.011   8.885  12.004  0.3161 -0.1628  0.3128
10821W        W27669  14.924   2.987   2.039 -0.1772 -0.1955 -0.1222
10822W        W27670  10.954  17.262  13.761  0.1841  0.1927  0.2237
10823W        W27671   1.513   8.236   4.817  0.2154  0.1382  0.4604
10824W        W27672  12.511   5.400   2.789  0.1460  0.1087  0.1624
10825W        W27673   4.657  12.205  14.875  0.0640 -0.1776 -0.1302
10826W        W27674   2.622   3.185  16.098 -0.0032 -0.0652  0.1072
10827W        W27675  17.459  10.388  13.202  0.1052 -0.1817 -0.2219
10828W        W27676   9.751  13.305  12.998  0.0893 -0.0466 -0.0364
10829W        W27677   0.676  17.051   2.542 -0.0742 -0.2996 -0.1056
10830W        W27678  10.795  12.956   3.463  0.3698  0.1550 -0.1067
10831W        W27679  17.242   0.825   4.493 -0.1016 -0.0840  0.0904
10832W        W27680   8.318  13.408   2.382  0.1853  0.0038  0.0290
10833W        W27681   7.660  11.943  11.976 -0.1666  0.2390 -0.0843
10834W        W27682  10.483   4.781   2.202 -0.3332 -0.0388 -0.3268
10835W        W27683   2.986  18.220   0.329 -0.1099  0.2099 -0.2237
10836W        W27684  16.446  13.586  16.027  0.0324 -0.2231 -0.1490
10837W        W27685   5.386  11.168  14.160  0.2165 -0.0189 -0.1437
10838W        W27686   3.103   4.985  11.334 -0.0359 -0.1573  0.1175
10839W        W27687  11.424   2.292  15.581 -0.2509  0.0133  0.2105
10840W        W27688   8.551   9.923   0.157 -0.1109 -0.2664  0.0606
10841W        W27689   8.840   2.361  11.224  0.0595 -0.1831  0.2138
10842W        W27690   1.552  13.468   1.115  0.0503  0.2798  0.3231
10843W        W27691  16.520   9.405  11.526 -0.2494  0.2614 -0.4110
10844W        W27692   3.149  10.329  13.023  0.2928 -0.0422  0.0748
10845W        W27693  10.999   9.166   1.784 -0.2478  0.0709 -0.0658
10846W        W27694   4.860   8.456   3.757 -0.1891 -0.1220 -0.0252
10847W        W27695  12.543  14.692  15.858  0.4424  0.0480  0.4098
10848W        W27696   3.438   0.193  14.690  0.0280 -0.0757  0.3086
10849W        W27697   6.057  14.427   4.938 -0.0179  0.0980  0.2101
10850W        W27698   1.398  17.961  11.104  0.2591 -0.1664  0.0731
10851W        W27699  15.717   3.406   0.375  0.2983  0.0174  0.1481
10852W        W27700   9.247  13.604  14.001 -0.2855 -0.0315  0.0050
10853W        W27701   3.313  11.351   1.532  0.2269 -0.1600  0.0177
10854W        W27702   2.570  10.496  15.846 -0.0381  0.0424 -0.1276
10855W        W27703  11.043  16.221  11.572 -0.1184  0.0269 -0.0749
10856W        W27704   6.109   5.546   6.083 -0.0237 -0.2539 -0.1824
10857W        W27705  11.574   9.609   3.425 -0.2758 -0.1441  0.0204
10858W        W27706   3.363   0.452  12.087  0.1554 -0.1610  0.3235
10859W        W27707   0.690  12.713  11.521 -0.0692  0.1142 -0.1432
10860W        W27708   3.863  18.073   5.258  0.1220  0.0895 -0.0604
10861W        W27709   0.472  17.170  15.027  0.0808 -0.0529 -0.2652
10862W        W27710   0.307   8.938   0.862  0.2971  0.1357  0.1112
10863W        W27711  14.032   1.216  15.554 -0.1090  0.3120 -0.0348
10864W        W27712   5.112  12.466  14.765 -0.0866  0.0471 -0.1114
10865W        W27713   8.839  10.387  12.216 -0.0533 -0.2065 -0.2141
10866W        W27714   1.889   5.455   1.050 -0.3589  0.4478  0.0509
10867W        W27715   5.854   9.704   1.852  0.2930 -0.0570 -0.4303
10868W        W27716   1.322  14.221   3.306 -0.2178  0.1769 -0.1334
10869W        W27717   7.001  11.400  10.689  0.0877  0.3885 -0.0913
10870W        W27718  12.562   6.295  15.206  0.0650 -0.4233 -0.1322
10871W        W27719  10.625  11.208   0.481  0.1795 -0.2916 -0.1949
10872W        W27720   2.467  17.896  12.864 -0.1602 -0.1564 -0.0418
10873W        W27721   2.964   7.653  14.787  0.0171  0.0990  0.4309
10874W        W27722  16.145   9.617  15.229 -0.0911 -0.2178  0.0580
10875W        W27723  15.850   4.664  13.656 -0.0431  0.2933  0.2627
10876W        W27724  13.843  16.920   4.775  0.3276  0.4312 -0.0977
10877W        W27725  16.277  10.431   0.560  0.0407 -0.2479  0.2273
10878W        W27726  10.016  11.766   3.926 -0.1072 -0.0506  0.0175
10879W        W27727   0.289  10.544   3.279 -0.0901 -0.4610  0.1609
10880W        W27728  15.236   9.608   2.977  0.0659 -0.1050  0.2682
10881W        W27729   9.965  14.144   5.537 -0.0799 -0.2017 -0.1524
10882W        W27730  11.355   8.816  16.058  0.0788 -0.0584 -0.0647
10883W        W27731  15.516   3.383  11.524  0.4139 -0.1303 -0.0150
10884W        W27732   6.183   6.924   2.045  0.3230  0.1292  0.1559
10885W        W27733   6.324   8.677   3.445  0.3056  0.2886 -0.0974
10886W        W27734   2.665   8.902  10.853 -0.1313  0.0253 -0.3200
10887W        W27735   6.468  10.400  12.289  0.0740 -0.0194  0.1037
10888W        W27736   0.265  12.544  15.127 -0.0143  0.2312 -0.0815
10889W        W27737   6.068  16.874  13.864  0.3066 -0.1088  0.1226
10890W        W27738  17.064  15.097   2.845  0.0992  0.2056  0.2614
10891W        W27739   8.999   1.512   4.885 -0.0874 -0.0694  0.2638
10892W        W27740   2.781  12.137   5.481  0.1542 -0.0599  0.2432
10893W        W27741   9.370   2.456  15.691 -0.0135  0.1216  0.0096
10894W        W27742   1.843   7.713   4.081  0.0944  0.1731 -0.0980
10895W        W27743   7.957   2.054  13.712 -0.2616 -0.1506 -0.0281
10896W        W27744  14.167   0.337  13.926 -0.0564  0.0009  0.0171
10897W        W27745   5.978  10.264  12.803  0.2114 -0.2147  0.2166
10898W        W27746   4.100   2.987   1.880 -0.0660  0.1622  0.0986
10899W        W27747   9.018  15.935   0.402 -0.2002  0.1294 -0.3070
10900W        W27748  18.082   6.324   4.217  0.1019 -0.2118  0.1696
10901W        W27749   7.382   1.340  11.362  0.3348  0.1844  0.1311
10902W        W27750   7.746   1.773   5.323 -0.0788  0.1504 -0.3060
10903W        W27751  16.340   4.824   4.745 -0.0190 -0.1224 -0.2860
10904W        W27752   6.435  11.573  13.320  0.0919 -0.1087  0.1436
10905W        W27753  14.250   2.010   4.116 -0.2172 -0.0552 -0.0160
10906W        W27754   0.346  16.094  12.313 -0.3785  0.3023  0.1104
10907W        W27755  16.159   6.820  14.423  0.0681  0.2560  0.3692
10908W        W27756   9.690  13.694   1.298  0.2210 -0.1463 -0.1358
10909W        W27757  17.177   6.920   2.321  0.0634  0.1117 -0.0621
10910W        W27758  11.148   7.637  16.077  0.1194 -0.2411 -0.0683
10911W        W27759   9.591   7.593   3.748  0.2703 -0.0597 -0.0604
10912W        W27760   9.141   4.717   1.859  0.0594  0.0214  0.0939
10913W        W27761  10.460   5.280  15.707  0.3384 -0.1882  0.0246
10914W        W27762  10.844  15.776  15.509  0.4487 -0.1400  0.0232
10915W        W27763  14.607  16.183   2.071  0.0851 -0.0794  0.0053
10916W        W27764   2.149  10.491  14.474  0.1551 -0.0789  0.3259
10917W        W27765  15.474   9.362   1.747 -0.2625 -0.1903  0.0059
10918W        W27766  10.009   1.010  12.037 -0.1178 -0.1857  0.2170
10919W        W27767  13.004  12.955  13.945 -0.0749 -0.2668  0.0048
10920W        W27768   6.531  15.479  12.725  0.3782  0.0161  0.0617
10921W        W27769   3.338   5.316  12.801  0.0791 -0.2400  0.0380
10922W        W27770   2.758   5.216   0.263  0.1450  0.1971 -0.1606
10923W        W27771   9.674   2.311   3.636  0.2719  0.0300 -0.1673
10924W        W27772   2.266   9.252  14.992 -0.3061  0.0562 -0.1296
10925W        W27773   3.802   3.770   0.743  0.1039  0.1180  0.1416
10926W        W27774  16.976   2.587   1.681  0.0457  0.1842  0.0670
10927W        W27775   5.299   7.364   1.458  0.1477  0.0803 -0.0456
10928W        W27776   1.137   1.740  12.691  0.2254 -0.0386 -0.0044
10929W        W27777   2.607   3.446  15.659  0.1037  0.1283 -0.3438
10930W        W27778   8.285   6.767   0.795 -0.2302  0.0405 -0.0371
10931W        W27779   1.128  11.521  13.053  0.1356 -0.0067  0.2589
10932W        W27780  13.958   7.041   1.337 -0.2461 -0.0159 -0.1560
10933W        W27781   1.744  14.249  14.929 -0.1661  0.1878 -0.1273
10934W        W27782  17.590   9.017  14.935  0.2536  0.0965 -0.2575
10935W        W27783   9.062   3.591   4.950  0.0964  0.0848 -0.0405
10936W        W27784   2.865   1.582  10.360  0.0193 -0.2677 -0.0854
10937W        W27785   3.206   6.252  13.790 -0.0485  0.1339  0.0085
10938W        W27786   0.147   6.996  16.061 -0.3019  0.0989  0.1018
10939W        W27787   7.627  16.372  14.013 -0.3046 -0.1445  0.1217
10940W        W27788  17.075   5.566  11.993 -0.1146  0.0954  0.2222
10941W        W27789  11.619   8.701   2.934 -0.0740 -0.0968  0.2749
10942W        W27790   0.913  12.752  13.050  0.2272 -0.0995  0.1271
10943W        W27791  17.155   1.059  13.210 -0.2306  0.0790  0.0890
10944W        W27792   6.953  13.477   1.393 -0.0278  0.0387  0.0371
10945W        W27793   2.438  10.482   3.873 -0.1981 -0.3882  0.2032
10946W        W27794  12.509   8.994   2.735  0.1418  0.0733 -0.4261
10947W        W27795  15.247   8.961   2.708  0.0327 -0.0594 -0.1077
10948W        W27796  13.048  16.364   6.008  0.1931 -0.0525  0.0384
10949W        W27797   6.160   7.336  12.012  0.1181 -0.0885 -0.1646
10950W        W27798   1.252   7.295   1.016  0.1570  0.2480  0.0312
10951W        W27799   4.899   4.245  15.509  0.0826 -0.1893  0.1350
10952W        W27800   8.547  17.789  11.869 -0.0633  0.0478  0.2011
10953W        W27801   2.866   4.895  10.938 -0.1021 -0.2626 -0.1365
10954W        W27802  16.157  16.134   4.725 -0.0755 -0.0160  0.0234
10955W        W27803   3.378  15.430   0.172 -0.0560  0.2131 -0.2077
10956W        W27804  16.468   8.086  14.348  0.3482  0.2290 -0.0479
10957W        W27805  11.535  10.882   2.721 -0.0528 -0.1903  0.2639
10958W        W27806   4.232   2.296   1.008 -0.1168  0.0603 -0.0097
10959W        W27807   1.441   0.165  14.448  0.0767 -0.0820  0.0303
10960W        W27808  12.880   1.784  11.806 -0.0398 -0.1977  0.0853
10961W        W27809   5.173   2.260  13.897  0.1551 -0.1337  0.3958
10962W        W27810   2.369   9.209  13.132  0.0502 -0.0298  0.1529
10963W        W27811   8.159  15.335   2.218  0.0804 -0.0853  0.1847
10964W        W27812  12.588  17.363  11.457 -0.0431 -0.2090 -0.3015
10965W        W27813  13.138   7.322  13.689  0.2276 -0.1454  0.0608
10966W        W27814  11.454   4.892   2.136  0.0586  0.0172  0.1856
10967W        W27815   5.527  10.269  15.261  0.3273 -0.1749  0.0719
10968W        W27816   5.064   2.355  13.205  0.0528 -0.2645 -0.0572
10969W        W27817  15.643  15.277   1.506 -0.0442 -0.1095  0.0579
10970W        W27818   4.015  16.872  11.814 -0.0722 -0.2896 -0.0126
10971W        W27819  12.768   6.164  11.309  0.1530  0.1033  0.0400
10972W        W27820   5.893   6.016   1.575 -0.3769  0.4773  0.0954
10973W        W27821  17.385   5.132   2.784  0.3824 -0.3460  0.0142
10974W        W27822   4.860  10.069  11.930  0.1808  0.0370  0.0576
10975W        W27823   0.832  14.264   3.230 -0.2218 -0.2360  0.0738
10976W        W27824   5.768   9.535  11.256 -0.4162 -0.0139 -0.4955
10977W        W27825   1.654   7.498   0.113  0.2550 -0.0553  0.0734
10978W        W27826  11.928  11.756   2.087  0.1980 -0.1145  0.1227
10979W        W27827   7.270   2.618   2.746  0.5463  0.0392  0.0632
10980W        W27828   8.722  18.072   2.220 -0.2705  0.0061  0.0563
10981W        W27829  16.652   3.849   4.236  0.4540  0.0333  0.1957
10982W        W27830   4.331   7.123   2.296 -0.2167  0.1495  0.0623
10983W        W27831   8.956  16.303   2.652  0.2794  0.2031  0.0503
10984W        W27832  11.000   2.309   3.250 -0.4262 -0.3402 -0.0155
10985W        W27833   4.143   0.125  13.475  0.0294 -0.1514 -0.0708
10986W        W27834  15.152   0.879  13.135  0.1588  0.1489  0.2445
10987W        W27835  14.992   5.971  11.305 -0.0560  0.0851 -0.1844
10988W        W27836  16.150  13.231  14.613 -0.4191  0.1902 -0.0163
10989W        W27837   2.885   8.794   4.361  0.3531  0.3748  0.2725
10990W        W27838   8.043   2.435   4.067  0.1503 -0.1564  0.4129
10991W        W27839  18.179  15.480  14.751 -0.0279  0.0724 -0.1943
10992W        W27840   4.580  16.927  11.613 -0.0206 -0.1503 -0.2336
10993W        W27841  12.749  15.378  13.948  0.1129 -0.1772 -0.2229
10994W        W27842   2.278  11.255  12.668  0.0066 -0.1035  0.1872
10995W        W27843  17.199   0.348   3.975  0.1914 -0.2115  0.2321
10996W        W27844  17.603   0.548  14.964 -0.0635 -0.0289  0.0199
10997W        W27845  16.046  11.117   4.577  0.1371 -0.4462  0.0918
10998W        W27846   2.408   6.580  15.176  0.5133 -0.1547  0.3762
10999W        W27847   0.206  12.115   1.050 -0.1047 -0.0133 -0.1081
11000W        W27848  15.707   0.784  15.871 -0.0364  0.4105 -0.1245
11001W        W27849  15.357  14.353   3.628  0.0785 -0.0997 -0.1228
11002W        W27850   6.637   9.278  13.000 -0.1649 -0.1517  0.2630
11003W        W27851   0.165  13.055  14.324  0.1170  0.1735  0.2311
11004W        W27852   2.425  15.397   1.260  0.3343 -0.0546  0.4242
11005W        W27853   1.194  12.364  11.422  0.2558 -0.2639  0.2470
11006W        W27854  12.623  10.307   0.153 -0.2942 -0.0679 -0.2883
11007W        W27855   3.741   7.687   4.302  0.3299  0.1274  0.3897
11008W        W27856  14.702   4.980  12.379  0.0389  0.0792  0.0676
11009W        W27857  14.856   1.844  12.444  0.2050 -0.0769  0.0960
11010W        W27858  16.925  13.410   1.143  0.0407 -0.0957  0.1133
11011W        W27859   4.631   4.255  16.003 -0.0826 -0.3564 -0.2675
11012W        W27860  13.846  16.129  12.037  0.0834 -0.1414 -0.1267
11013W        W27861  11.419  12.742  13.493  0.0799 -0.0007  0.1102
11014W        W27862  18.095  14.554   4.662 -0.2464  0.0630  0.1248
11015W        W27863  13.930  12.979   5.299 -0.0187 -0.2115 -0.1046
11016W        W27864  13.319   0.285  12.210 -0.0389 -0.0594  0.2048
11017W        W27865  12.870   4.157  11.667  0.2199 -0.1708 -0.0285
11018W        W27866   0.559  10.795  11.408  0.0236  0.1055  0.0129
11019W        W27867  11.995   1.085   1.397 -0.4797  0.4197  0.3098
11020W        W27868   1.662   5.859  13.647 -0.1748 -0.2511  0.2289
11021W        W27869  14.199   2.303  13.521 -0.0535  0.0572  0.0415
11022W        W27870   5.656  11.357   2.766 -0.2624 -0.1918 -0.0142
11023W        W27871   5.620   2.039  13.183 -0.1406 -0.1772  0.2138
11024W        W27872  16.751   0.560   4.244 -0.0214 -0.1706 -0.0011
11025W        W27873   9.837  12.898   2.869 -0.0946 -0.1484  0.1458
11026W        W27874  13.802   8.709  10.790  0.3182  0.0153 -0.0786
11027W        W27875  12.326   6.323  13.939  0.2068  0.0343  0.0118
11028W        W27876  17.233  14.898  11.226 -0.2408  0.3499  0.0627
11029W        W27877  12.598   4.919  11.876  0.4548  0.0238 -0.1823
11030W        W27878  10.775   6.978   2.302  0.1223  0.1417  0.3022
11031W        W27879   8.717  10.981   1.096  0.2075 -0.3543  0.0426
11032W        W27880   3.724  11.771   0.366  0.4766 -0.1217 -0.0593
11033W        W27881  15.152   3.505   3.232  0.1071  0.2526 -0.4386
11034W        W27882  11.005   6.303  14.813 -0.2933  0.2174 -0.0571
11035W        W27883  12.212  14.519  15.246 -0.1113 -0.0830 -0.4520
11036W        W27884  17.875   1.695   0.252 -0.1738 -0.1551  0.1448
11037W        W27885  10.545  12.024  14.407  0.1470 -0.0740  0.0995
11038W        W27886   7.355  15.449  12.366 -0.1113  0.1878  0.1270
11039W        W27887   4.794   6.911  15.084  0.2601 -0.2767  0.3826
11040W        W27888   2.688  14.855   2.510 -0.0772  0.1677  0.2503
11041W        W27889  11.175   3.323  11.594 -0.1581  0.1955  0.0117
11042W        W27890   4.007  17.222   5.457 -0.0161  0.0130 -0.0727
11043W        W27891  13.675  13.949  11.421  0.0881  0.1163 -0.2077
11044W        W27892  13.144   5.155  14.813 -0.1046 -0.3350 -0.0168
11045W        W27893   4.116  16.335  12.731  0.0519  0.1471  0.0564
11046W        W27894  16.040   3.425  12.391 -0.0905  0.3180  0.2552
11047W        W27895   2.040   1.644   0.730  0.4585  0.0078 -0.1067
11048W        W27896  14.851  12.648   3.646  0.2319  0.0131 -0.1040
11049W        W27897  14.254  15.347  14.935 -0.2303 -0.0198  0.1753
11050W        W27898   0.735   2.740  13.773  0.0109 -0.2234  0.4367
11051W        W27899  12.467  17.340   5.423 -0.0243  0.2777 -0.0554
11052W        W27900   4.747  12.448   3.169  0.3456 -0.0309 -0.0382
11053W        W27901  14.865   8.745  14.509 -0.0904 -0.0854  0.1531
11054W        W27902   5.318   1.707  15.493  0.2324 -0.0874  0.2515
11055W        W27903   1.178  12.281   1.839  0.1282  0.2986  0.0656
11056W        W27904   6.369  16.308   1.623 -0.2270 -0.0530  0.2031
11057W        W27905  13.866  14.577  14.526 -0.0127 -0.1884  0.0152
11058W        W27906  12.351   5.340   1.461 -0.2894 -0.0191 -0.0966
11059W        W27907  17.747   4.141   1.722  0.0166 -0.0897 -0.0832
11060W        W27908   6.489   0.894  12.565  0.0794 -0.2031 -0.5541
11061W        W27909   2.116  13.904  15.111  0.1216 -0.0800 -0.1607
11062W        W27910   7.700  16.380   2.281  0.2494 -0.0245 -0.1339
11063W        W27911  13.079   2.765   3.596 -0.1169  0.0021  0.0066
11064W        W27912   2.549  15.736   4.994 -0.3870 -0.0734  0.1031
11065W        W27913   6.064  16.191   2.563  0.1776 -0.0978 -0.0172
11066W        W27914   5.053  10.419  11.468 -0.0259 -0.0736  0.1956
11067W        W27915   9.193   8.725  11.293  0.0701 -0.0045  0.2955
11068W        W27916   4.376  17.502  15.724  0.0499  0.0898  0.1097
11069W        W27917   4.629   2.384   1.263 -0.4162  0.2242  0.1391
11070W        W27918   4.113  11.372   1.182 -0.0296  0.1708 -0.2949
11071W        W27919   1.919  17.904  11.328 -0.0711  0.3345 -0.1762
11072W        W27920  10.943  15.193   0.620 -0.0615  0.0832  0.1450
11073W        W27921  16.831   8.982   2.350 -0.0785 -0.1448  0.0690
11074W        W27922  17.510   3.156   4.899 -0.1249 -0.1913  0.3124
11075W        W27923  16.502   1.296  15.958  0.1524 -0.1372  0.2531
11076W        W27924   4.625   0.487   3.360  0.1165 -0.1381 -0.1203
11077W        W27925   5.423   3.759   0.648  0.0996 -0.1209 -0.1368
11078W        W27926   7.991  14.513   0.848 -0.1531  0.2765 -0.1585
11079W        W27927   4.880  15.689  14.585  0.0877 -0.2319 -0.0335
11080W        W27928   6.145   0.649  10.783 -0.0162  0.1670 -0.1867
11081W        W27929  16.178   6.674   0.924 -0.3995  0.3644 -0.2222
11082W        W27930  13.858   1.005   2.449  0.2370  0.1258  0.2465
11083W        W27931  15.530  15.034  14.944  0.3945 -0.3731  0.1405
11084W        W27932  16.425   0.329  14.189 -0.2343  0.1402 -0.1846
11085W        W27933   3.960  10.161   1.037 -0.3960  0.0064  0.0357
11086W        W27934   1.842  14.390   2.512  0.0612 -0.2446  0.0981
11087W        W27935  15.740   4.327   4.194  0.1421 -0.2565 -0.0157
11088W        W27936  13.138  17.271  15.229  0.0148  0.0818  0.0874
11089W        W27937   9.503  11.285   2.934 -0.0908  0.1039  0.1373
11090W        W27938   4.398  17.259   3.713  0.2044 -0.4061 -0.2822
11091W        W27939   7.251   7.760  14.047  0.2038 -0.0029 -0.2595
11092W        W27940   8.499   4.590   4.158  0.2959  0.1396 -0.0807
11093W        W27941  16.731   9.153  12.348  0.1987  0.2775  0.1383
11094W        W27942   5.102   5.274  13.442 -0.0357 -0.1259 -0.3529
11095W        W27943  14.083   3.669  11.841  0.0669  0.2360 -0.0407
11096W        W27944   4.178   5.740  12.632  0.1347 -0.0028  0.0633
11097W        W27945   7.086   5.461  15.620 -0.0175  0.3306 -0.2158
11098W        W27946   1.333   9.472   1.987  0.2515  0.1057  0.0259
11099W        W27947  14.141   6.231   5.016 -0.1885  0.1416 -0.1786
11100W        W27948  10.224  18.018  11.306  0.4339 -0.1458 -0.1525
11101W        W27949  11.049   0.809   4.210 -0.1196 -0.3021  0.0895
11102W        W27950   7.227   4.146  13.429 -0.0600  0.1527 -0.1785
11103W        W27951  16.566   4.610   0.401  0.1938 -0.2168  0.1245
11104W        W27952   7.138   3.209  15.548  0.0816  0.0504  0.1421
11105W        W27953  17.459   6.217   0.916  0.3255 -0.0492  0.0429
11106W        W27954  12.731   2.733  15.962 -0.0199  0.2156  0.0635
11107W        W27955  15.587   0.315   4.862 -0.1137  0.0204 -0.0024
11108W        W27956  12.670   4.533  14.251  0.1608  0.1933  0.0739
11109W        W27957  11.493   3.733  14.532  0.0547  0.1192 -0.3121
11110W        W27958  17.931   9.916  15.098 -0.2797 -0.0042 -0.0913
11111W        W27959   7.329   9.209  11.755  0.2977  0.1905  0.0099
11112W        W27960   1.492  11.192   1.814 -0.0317 -0.0280 -0.1604
11113W        W27961  10.582  18.195  10.817  0.1471 -0.2206 -0.2389
11114W        W27962  11.841   6.340  14.207 -0.0880  0.0338 -0.0691
11115W        W27963  15.620   1.499   1.276  0.0455  0.0549 -0.0373
11116W        W27964  14.238  11.112   0.931 -0.0961  0.3344 -0.1442
11117W        W27965   1.641  13.665  13.510 -0.4796 -0.1724  0.0624
11118W        W27966  14.323  14.695  13.852 -0.0201 -0.0653 -0.1414
11119W        W27967   1.590  17.360   2.192 -0.0169  0.0829 -0.1778
11120W        W27968   1.937   2.987  14.881 -0.0370  0.0535  0.1418
11121W        W27969  13.863   6.434   4.417  0.0736  0.3078  0.3264
11122W        W27970  11.009  14.966  11.405  0.2479 -0.0492  0.0901
11123W        W27971   6.070  13.786  15.405  0.1763  0.2948  0.0040
11124W        W27972   6.041  16.145   4.952 -0.1439  0.3096 -0.0716
11125W        W27973  16.509   9.233   2.006  0.1246  0.0933  0.1415
11126W        W27974   8.888  13.678   0.750 -0.0945  0.3078 -0.2008
11127W        W27975   1.233   8.565  12.453  0.2651  0.2685 -0.1267
11128W        W27976   0.906   4.189  14.912  0.0007 -0.1060  0.1247
11129W        W27977   1.218   5.534   0.534  0.2911  0.0993  0.1233
11130W        W27978  14.840  18.137  10.148  0.1263  0.0264  0.1299
11131W        W27979  13.160   6.018  11.668  0.0365  0.2549 -0.2926
11132W        W27980   6.670   6.133  16.102  0.1420 -0.1385  0.1690
11133W        W27981  12.440   0.913  10.814 -0.4681 -0.0668  0.2754
11134W        W27982  14.208   3.201  15.679 -0.2700 -0.3340 -0.1020
11135W        W27983  12.931  12.947  15.317  0.4336  0.0218  0.2418
11136W        W27984   2.119   4.378   1.453 -0.0947  0.2075 -0.1147
11137W        W27985   6.764  15.801   1.471  0.0752 -0.3274  0.4081
11138W        W27986   2.091   2.812   2.536 -0.0490 -0.2049 -0.1602
11139W        W27987   8.439   7.985  14.740 -0.0851 -0.2430 -0.2337
11140W        W27988  15.587  16.789   0.675  0.0552  0.1335  0.0309
11141W        W27989   1.840  16.866   2.153  0.2341 -0.0926 -0.0440
11142W        W27990   8.520   4.118   4.388  0.1743 -0.0217 -0.0515
11143W        W27991   2.169   8.781  14.950 -0.0487  0.0169 -0.0609
11144W        W27992   2.163  14.496  10.732 -0.0803 -0.0039 -0.2856
11145W        W27993   4.149  14.915  11.499  0.2135 -0.0098  0.2636
11146W        W27994   4.577   7.912   2.322  0.1837  0.1278 -0.0551
11147W        W27995   6.713   1.324   0.432 -0.3049 -0.4595 -0.0805
11148W        W27996  14.227  13.317   2.427  0.1279  0.1274  0.0710
11149W        W27997  18.011   8.657  12.413  0.2145 -0.1195  0.1576
11150W        W27998  12.486   9.464   1.990  0.0887 -0.3842  0.4160
11151W        W27999  10.467  13.711   2.926  0.1799 -0.2730 -0.1284
11152W        W28000   2.647   0.890   0.978  0.1958  0.1105  0.2461
11153W        W28001   1.684   7.266  15.473 -0.0511  0.0823 -0.1997
11154W        W28002   3.262   2.503  14.806 -0.2405  0.1950  0.1156
11155W        W28003  10.292  12.380   5.055  0.0397  0.0408  0.0866
11156W        W28004  17.641   2.415   4.020  0.3227 -0.0195  0.0634
11157W        W28005   0.296   4.550  12.402  0.0156  0.2281  0.1684
11158W        W28006  17.027  14.694   2.134  0.1281 -0.0591 -0.0029
11159W        W28007   6.928   6.434  14.796  0.1710  0.4377 -0.2187
11160W        W28008  10.662  13.146  13.651  0.0274  0.0268  0.1059
11161W        W28009   6.525   4.711   1.582  0.0461 -0.1931  0.1489
11162W        W28010  14.523  12.577  14.064 -0.2133  0.1058 -0.2065
11163W        W28011   2.355   7.589   1.227  0.0255  0.1477  0.0001
11164W        W28012   0.276   9.806   0.576  0.1721  0.1337 -0.3793
11165W        W28013   9.502  14.812   2.832  0.1134  0.0979 -0.0966
11166W        W28014   7.201   9.450   5.496 -0.0251  0.0060 -0.1409
11167W        W28015  13.427  12.697  11.492  0.0249 -0.2227 -0.3574
11168W        W28016   8.560   8.637   0.184  0.0661  0.1042  0.0777
11169W        W28017  15.712   1.615  15.514 -0.1242  0.1678 -0.1031
11170W        W28018   6.913   0.931  12.962  0.2171 -0.1266  0.2710
11171W        W28019   4.180  10.305  13.789  0.2158  0.3011 -0.0006
11172W        W28020   5.310   4.206   0.854  0.0019 -0.1924  0.3611
11173W        W28021  17.710  16.452  10.825  0.1656 -0.1942  0.0438
11174W        W28022  12.752   7.611  15.125 -0.2265  0.1410  0.0750
11175W        W28023   8.072  17.598  16.003  0.1536 -0.2621 -0.2135
11176W        W28024  14.362  11.501  11.978  0.0785  0.1344  0.5445
11177W        W28025   5.980  17.412   4.193  0.0248 -0.3623 -0.3207
11178W        W28026  15.465   3.039  13.928 -0.1565  0.0689 -0.3097
11179W        W28027   9.563  16.900   5.213  0.1065  0.1319 -0.2993
11180W        W28028  15.452  12.034   4.404 -0.0084 -0.0260  0.2021
11181W        W28029   5.066   9.613  13.766 -0.1474  0.0547 -0.0389
11182W        W28030  13.160   6.116  10.364 -0.1369  0.0022 -0.2027
11183W        W28031   3.328   6.791   2.485  0.0604 -0.0530  0.1659
11184W        W28032   5.244  13.113  12.520  0.0880 -0.0010 -0.0394
11185W        W28033   2.208   3.043   1.291  0.3355 -0.0722  0.2103
11186W        W28034   9.638   1.510  15.638 -0.1350  0.3634  0.0653
11187W        W28035   9.726   1.759  14.333  0.0039  0.0400  0.0162
11188W        W28036  14.959  12.764   0.830 -0.0336  0.1134 -0.1988
11189W        W28037   6.771  11.731  12.628 -0.2535 -0.2083 -0.1600
11190W        W28038  16.850   6.930   4.118  0.1610 -0.4776 -0.1418
11191W        W28039  14.565  10.533   1.665 -0.1096  0.0526  0.3859
11192W        W28040   0.917  11.915  12.335 -0.0033  0.3685 -0.0595
11193W        W28041  12.507  12.648  11.912 -0.3016  0.2319 -0.0610
11194W        W28042   6.237   2.082   0.069  0.1142  0.0475 -0.2859
11195W        W28043  10.935  11.363   6.224 -0.0199 -0.1021  0.3655
11196W        W28044  14.497   2.765   0.374  0.1719  0.1812  0.0743
11197W        W28045  12.614  11.781   3.003  0.1569 -0.0693 -0.1406
11198W        W28046   3.981  10.858   4.386 -0.1086 -0.0881 -0.2827
11199W        W28047   4.684   8.123  11.658 -0.0016  0.2147 -0.1239
11200W        W28048  12.787   2.242  16.110 -0.1909  0.0708 -0.1573
11201W        W28049   8.397   4.130   3.888  0.0124  0.4842  0.0775
11202W        W28050   5.272  17.653  11.408  0.5142 -0.2256 -0.2162
11203W        W28051   9.376   3.102  13.730  0.4536 -0.1098 -0.1684
11204W        W28052   0.106  12.849  15.916 -0.0970  0.2106  0.0838
11205W        W28053   8.849   4.606  12.767 -0.0638  0.1301 -0.0497
11206W        W28054   4.487  11.972   3.371  0.0671  0.0805  0.3381
11207W        W28055   4.995   5.918   0.943  0.0404  0.2095  0.1815
11208W        W28056   9.981   5.597  11.964 -0.1550 -0.2428  0.2580
11209W        W28057  12.285   2.014  12.953  0.0796  0.1523  0.1460
11210W        W28058   1.362   5.426   1.014 -0.1176  0.4602 -0.1576
11211W        W28059   9.728  12.798  14.249  0.1654  0.1256  0.3578
11212W        W28060   6.099   6.878   5.162  0.2129  0.2040  0.1813
11213W        W28061  16.797   5.681  10.707  0.0515 -0.2017  0.1183
11214W        W28062   3.398   4.187   3.446  0.0306  0.2072  0.2269
11215W        W28063  13.579  15.506   4.607 -0.1857 -0.0968  0.0546
11216W        W28064  11.508   8.384   5.433  0.0165 -0.0556  0.1858
11217W        W28065  11.654   9.036  11.021 -0.0240  0.3290 -0.2124
11218W        W28066   2.087  13.389  14.772  0.2766 -0.1223 -0.3712
11219W        W28067  12.622  12.169   5.158 -0.2251  0.3070 -0.0195
11220W        W28068   9.441  17.339   2.457 -0.1679 -0.3073  0.1669
11221W        W28069  15.324   5.058   0.026 -0.0042 -0.0695  0.2583
11222W        W28070   0.559  13.646  13.238  0.2498  0.1337 -0.0871
11223W        W28071   5.257  17.674  13.087 -0.1577 -0.3537 -0.0882
11224W        W28072   5.405  14.165  15.745  0.1114  0.4366  0.0109
11225W        W28073   3.412   2.999  12.805 -0.0631  0.2008 -0.2241
11226W        W28074   7.478  15.991   2.498 -0.0277 -0.0530  0.0577
11227W        W28075   9.291  16.381   1.222  0.2902  0.1699  0.1027
11228W        W28076  12.244   9.860   3.475 -0.2482 -0.0307  0.0328
11229W        W28077  17.179  16.340   3.276 -0.2231 -0.1444 -0.0577
11230W        W28078   8.279   2.912  12.543 -0.1852 -0.0561  0.1365
11231W        W28079   6.495   4.274   1.885 -0.2775  0.4302 -0.0906
11232W        W28080   7.541  10.922   4.855 -0.1857  0.1722 -0.0743
11233W        W28081   6.960  15.961   1.023  0.1747 -0.1301  0.0811
11234W        W28082   3.892   0.317  11.641 -0.1852 -0.0432  0.2880
11235W        W28083  15.683   9.124  11.768  0.0984 -0.1921 -0.0124
11236W        W28084  11.397  10.554   2.399  0.2468  0.3085  0.1098
11237W        W28085  13.764   6.720  11.820 -0.0537  0.1003 -0.0503
11238W        W28086   1.774   5.706  14.404  0.0042  0.0091  0.0986
11239W        W28087  11.808  13.466   2.221  0.2204  0.0137  0.0863
11240W        W28088  16.825   2.308   3.449  0.1247 -0.0135 -0.0375
11241W        W28089   9.478   4.518  15.057 -0.1587  0.0854 -0.1818
11242W        W28090  15.596   2.109  11.508  0.0325 -0.2412  0.1854
11243W        W28091   3.936   5.363  15.770  0.1122 -0.0513 -0.0017
11244W        W28092  13.089   6.427   0.799  0.0249  0.0110  0.1495
11245W        W28093   9.725   0.048   3.553 -0.0064 -0.0980 -0.0850
11246W        W28094  12.346   6.455   0.428 -0.3041  0.1085  0.5015
11247W        W28095  10.048  15.560  15.883 -0.3734 -0.0792 -0.1538
11248W        W28096  10.680  14.830  15.454 -0.1815  0.1307 -0.0142
11249W        W28097  13.176  16.175  15.080  0.3553  0.3067  0.2320
11250W        W28098   1.533   0.884   3.123  0.2005 -0.0239  0.2348
11251W        W28099  16.960  11.430   2.313  0.1772 -0.0099 -0.0588
11252W        W28100   7.870   1.301  11.463  0.2580  0.0166 -0.0360
11253W        W28101   4.105   9.023   2.013 -0.2971  0.0634 -0.2583
11254W        W28102   8.683  13.668  13.758 -0.0481 -0.4271  0.1389
11255W        W28103   8.237  14.114   3.170  0.2030  0.4092 -0.0819
11256W        W28104  18.120  14.676  15.190  0.0064  0.3118 -0.0897
11257W        W28105   9.800   7.738   4.220 -0.1144  0.2133 -0.1020
11258W        W28106   3.048   2.862  15.051 -0.0304 -0.0137  0.5292
11259W        W28107   9.671  10.039   2.855  0.0414  0.0488  0.0679
11260W        W28108  16.888  14.351   2.462  0.0435  0.0657 -0.1376
11261W        W28109   1.844   5.110   0.110 -0.1352 -0.0340 -0.0943
11262W        W28110   4.467   6.540   5.622  0.1331 -0.0628 -0.1442
11263W        W28111   8.432  12.749   0.529  0.0634 -0.1644 -0.1212
11264W        W28112   0.015   0.680  10.784 -0.1607  0.1498  0.1271
11265W        W28113  10.145   1.887  11.228 -0.0451  0.1255  0.4364
11266W        W28114   5.298  16.192   1.175  0.0424 -0.1258  0.0318
11267W        W28115   9.858  11.787   4.420 -0.2665 -0.2083 -0.2593
11268W        W28116   0.727  15.813   3.077 -0.1945 -0.1502  0.2161
11269W        W28117  16.661  13.275  14.673 -0.3951 -0.2323 -0.4189
11270W        W28118   9.018  11.931   3.606  0.0122  0.1872 -0.0012
11271W        W28119  14.596   9.091   5.467 -0.0272  0.0328 -0.0732
11272W        W28120  15.394  18.069  15.767 -0.3022  0.1940  0.0486
11273W        W28121   0.570  15.140   4.390  0.2574 -0.3156  0.2915
11274W        W28122   2.164   8.946   3.232  0.0887 -0.3141 -0.1602
11275W        W28123   3.676   8.936  11.603  0.1609 -0.0755 -0.0274
11276W        W28124   0.160  10.756  12.083 -0.0626 -0.0428 -0.1894
11277W        W28125  14.863   9.254  15.264 -0.0864 -0.3133 -0.2223
11278W        W28126  16.345  15.579   3.727 -0.0341  0.1286 -0.1238
11279W        W28127   9.471   1.800   2.261  0.3022 -0.0032 -0.1394
11280W        W28128  16.263  11.232   6.312 -0.2813 -0.1185  0.2421
11281W        W28129  17.323  16.600  13.872  0.4874 -0.0983  0.2079
11282W        W28130  12.069  16.603   2.894 -0.2894 -0.1653 -0.1280
11283W        W28131   6.043  11.063   0.594 -0.1724  0.0322 -0.1596
11284W        W28132   4.112  14.459   3.623  0.1443 -0.3698  0.2624
11285W        W28133   0.841   1.312   2.830 -0.1252 -0.1753  0.0022
11286W        W28134  13.153   3.556   4.395 -0.2111 -0.1009  0.0476
11287W        W28135  11.498   8.240   1.876 -0.0279  0.0444 -0.2079
11288W        W28136   2.121  15.639   4.317  0.2389  0.1536 -0.1167
11289W        W28137  16.693  12.609  13.259  0.0009  0.0138 -0.2160
11290W        W28138   0.407   3.518  13.188  0.3978  0.1805 -0.1398
11291W        W28139   4.527   5.829  15.113  0.0209  0.1011 -0.1594
11292W        W28140  14.003  13.641   0.791  0.0928 -0.0654 -0.0264
11293W        W28141   8.058   4.606  13.331  0.1378 -0.1381  0.1504
11294W        W28142  13.188  16.995   3.208  0.0692 -0.1045 -0.2666
11295W        W28143   1.180  14.562  11.918  0.0894  0.4022 -0.2963
11296W        W28144   9.517   8.901  13.845  0.0618  0.0888 -0.1225
11297W        W28145   4.726   8.801   1.361 -0.1583  0.0443  0.4803
11298W        W28146  18.085  16.177   3.061 -0.0033 -0.2038  0.0790
11299W        W28147  11.076  13.340   1.822 -0.1068  0.0468 -0.0634
11300W        W28148   8.763   5.377   2.952 -0.2514  0.0787 -0.0489
11301W        W28149  10.534  16.837  11.291  0.1249 -0.1214  0.1547
11302W        W28150   8.568  10.890   3.030  0.2884  0.1530 -0.3066
11303W        W28151  16.349   8.426  14.691  0.2116  0.0985 -0.2861
11304W        W28152  15.115  12.786  12.268 -0.1867  0.1911 -0.0249
11305W        W28153  14.496   0.321  14.777  0.3493  0.0153  0.1060
11306W        W28154   2.373  12.219  13.972 -0.4021 -0.1259  0.2500
11307W        W28155   0.707   0.031   3.254  0.4491 -0.2265  0.0353
11308W        W28156  10.746  13.734   4.618 -0.2378  0.3290 -0.1331
11309W        W28157  17.565   5.085   1.460  0.0690 -0.0927 -0.0684
11310W        W28158   5.898  16.292  10.581  0.2149  0.0849 -0.1739
11311W        W28159  13.319   4.860   3.254  0.2677  0.0273 -0.2477
11312W        W28160  13.221  17.889   3.150  0.0693  0.0764  0.0748
11313W        W28161   3.999   4.137  11.469  0.1207 -0.3537 -0.1414
11314W        W28162  16.436  12.413   4.712 -0.0833  0.1282 -0.0187
11315W        W28163  12.914  10.775  13.997 -0.0155 -0.2616  0.2028
11316W        W28164  11.185   7.072   1.821 -0.2484 -0.4804  0.0280
11317W        W28165   0.947   6.340   3.468 -0.2822 -0.2513 -0.2738
11318W        W28166  12.752  17.111   3.435 -0.1177  0.0732  0.0851
11319W        W28167   2.620   5.263   4.503 -0.1880 -0.0385  0.2150
11320W        W28168  16.368   1.345  14.347 -0.1584 -0.2850  0.4413
11321W        W28169   7.106   6.433   3.180  0.0603 -0.0626  0.2545
11322W        W28170  15.431   8.730  11.966  0.1028 -0.3358 -0.0238
11323W        W28171  15.603   7.467   0.572 -0.1318 -0.0146  0.1412
11324W        W28172   6.243  13.137  13.362 -0.1130  0.0885 -0.2911
11325W        W28173  14.627   0.190   3.348  0.0125 -0.3581  0.0962
11326W        W28174  10.448   9.033   1.549 -0.0875  0.1994 -0.0196
11327W        W28175   9.716   1.087   5.840  0.1134  0.0653  0.3043
11328W        W28176  11.071  15.705   2.161 -0.0454  0.0727  0.2457
11329W        W28177  16.907   4.899  11.388  0.0089  0.1919  0.2090
11330W        W28178  14.430   4.006  10.860 -0.1518  0.2809 -0.0835
11331W        W28179  13.354   2.360   3.796 -0.2244 -0.0133  0.0175
11332W        W28180   6.876   4.859   2.394  0.2014  0.0011 -0.0753
11333W        W28181   9.212   8.929   4.354 -0.1212 -0.1440  0.2202
11334W        W28182  14.625  16.901  15.973  0.2398 -0.2875 -0.0881
11335W        W28183  11.776   4.813  11.266  0.2556  0.1419  0.0464
11336W        W28184  16.168  12.140   3.477  0.0187 -0.1021  0.1972
11337W        W28185   7.300   6.984   0.529 -0.0474 -0.1305 -0.1155
11338W        W28186  14.682  15.612   4.785  0.3594 -0.0464  0.2851
11339W        W28187   6.237   8.968  15.495  0.0066  0.0844 -0.1428
11340W        W28188   3.050   1.013  16.107  0.0564 -0.0867 -0.0567
11341W        W28189  16.781  13.655   0.374 -0.0485  0.1117 -0.1016
11342W        W28190   5.974  14.763  13.519 -0.3773  0.1994  0.1151
11343W        W28191  11.336   7.820   3.917 -0.2518  0.1282 -0.0433
11344W        W28192   1.039  14.517   4.239  0.2663  0.1175 -0.0894
11345W        W28193   2.506   9.755  12.036 -0.1195  0.0485  0.1127
11346W        W28194   9.259   4.873   2.681 -0.2173 -0.2159  0.1260
11347W        W28195  13.343  12.806  15.109  0.0362  0.0594 -0.0461
11348W        W28196   5.985   8.136   4.394  0.3720 -0.2627  0.0169
11349W        W28197   6.597   5.963  12.052  0.0772  0.4952 -0.0142
11350W        W28198  10.583  15.687  11.473 -0.0043 -0.2800  0.1889
11351W        W28199   0.220   8.127   1.897 -0.0862  0.2099  0.2008
11352W        W28200  17.610   7.792  15.657  0.0793 -0.1445 -0.3847
11353W        W28201   7.577  12.425  13.013  0.0577  0.0710 -0.3526
11354W        W28202  11.856  10.004  14.669  0.0474  0.0804 -0.1251
11355W        W28203   4.279  15.894   4.865  0.2483  0.3297  0.0612
11356W        W28204   7.712   1.418   3.708  0.1107 -0.2892  0.0350
11357W        W28205  15.850  15.541  15.032  0.0999 -0.3734 -0.0068
11358W        W28206  13.926  10.764  11.383 -0.0230 -0.0380  0.1380
11359W        W28207   2.208  17.632  11.021  0.0604  0.0989 -0.1179
11360W        W28208   9.748   9.320  16.028 -0.1438  0.2075  0.2529
11361W        W28209   2.954   2.219  14.554 -0.1982  0.1222  0.2427
11362W        W28210   4.968   6.080   2.771  0.0518 -0.0417 -0.3647
11363W        W28211   1.958  15.756  13.378  0.0214 -0.0688 -0.0390
11364W        W28212   6.533  12.227  12.691 -0.3255  0.2518  0.3691
11365W        W28213   5.354   4.823  13.283  0.1073 -0.1216 -0.1396
11366W        W28214  17.744  15.693  14.084  0.0643  0.1321 -0.2392
11367W        W28215   4.498   3.664   4.198  0.0082 -0.3324 -0.1309
11368W        W28216   7.572   3.260  15.095  0.0273  0.1089 -0.0051
11369W        W28217   0.626  16.675   1.566  0.1409 -0.2141  0.1467
11370W        W28218   9.457   0.448  14.965  0.3644 -0.2946  0.1745
11371W        W28219  16.460  14.443  12.535 -0.2429  0.0955 -0.0185
11372W        W28220   3.984   3.353  15.003  0.2858  0.0083 -0.2614
11373W        W28221  17.134   8.499  12.967  0.1747  0.0969  0.2176
11374W        W28222   6.943   0.865  14.254 -0.0364 -0.3713 -0.0419
11375W        W28223  13.406  16.251  15.816 -0.2597  0.3312  0.2860
11376W        W28224   8.785   1.824   3.398 -0.1070 -0.0321 -0.0011
11377W        W28225   3.562  17.256   3.529 -0.3728  0.2073 -0.1840
11378W        W28226  10.435  14.895   3.897 -0.0325  0.1870  0.0332
11379W        W28227   0.720   7.820   5.748  0.0370  0.2475 -0.1993
11380W        W28228   3.120   6.121   0.481  0.0086  0.5156  0.2186
11381W        W28229   2.926   0.449  12.339  0.0001 -0.0784 -0.1628
11382W        W28230  16.372  16.747   2.272 -0.3537  0.0383  0.2493
11383W        W28231   1.412  12.353  10.360 -0.0939  0.1219  0.2222
11384W        W28232  13.328  10.112  12.505  0.1239 -0.0393 -0.1793
11385W        W28233  11.315   3.677  12.084 -0.2262  0.1613 -0.4069
11386W        W28234   1.577   2.405  15.914  0.0117 -0.1926 -0.0302
11387W        W28235   5.888   3.822  15.185 -0.2190  0.0186  0.0244
11388W        W28236   7.836  10.815  14.895  0.1409  0.2888  0.3897
11389W        W28237   6.634   2.334  12.467 -0.1730  0.1822  0.1939
11390W        W28238  10.963   3.302   2.768  0.0971 -0.4390 -0.1073
11391W        W28239  10.428   8.676  10.844 -0.2722 -0.1115  0.1170
11392W        W28240   0.840  15.063  11.017 -0.2197  0.1717 -0.2896
11393W        W28241  14.628   5.950  11.695  0.0732 -0.1364 -0.1545
11394W        W28242   0.462  17.524   3.495 -0.1904  0.1734 -0.1413
11395W        W28243  10.045  13.996   0.137 -0.1546  0.2518 -0.1847
11396W        W28244   1.176   7.770  16.006 -0.3185 -0.3712 -0.1800
11397W        W28245   5.500   2.342  11.911 -0.2403 -0.0642 -0.1403
11398W        W28246  10.357   4.624  12.735 -0.1599  0.0280  0.0454
11399W        W28247   0.595   0.303   0.781 -0.1311  0.0049 -0.1033
11400W        W28248  12.138   7.401  12.785 -0.1143  0.2098  0.0655
11401W        W28249   1.324   0.972  14.872  0.0606  0.1562 -0.2597
11402W        W28250  14.557   2.403   4.223 -0.1841  0.0748 -0.2039
11403W        W28251  12.053   2.236  12.577  0.3188 -0.0774 -0.2432
11404W        W28252  16.296   7.238   4.550  0.0419  0.1883  0.0330
11405W        W28253  11.176  17.705  13.123 -0.1418 -0.4470 -0.0948
11406W        W28254  12.079   5.550   2.549  0.3381 -0.0463 -0.0559
11407W        W28255   5.509   1.894   4.181  0.0692  0.2449 -0.1923
11408W        W28256   9.016  10.733   0.788 -0.0245 -0.2979  0.2228
11409W        W28257   2.112   6.914   0.927  0.0112 -0.1047  0.0154
11410W        W28258  11.725  11.389  16.005 -0.0031 -0.1156 -0.2100
11411W        W28259   1.990  15.482   3.401 -0.1085 -0.0645 -0.1881
11412W        W28260  13.945  13.330  12.402  0.0505  0.1809 -0.1559
11413W        W28261  17.735  12.793   2.057  0.2469 -0.0519  0.0280
11414W        W28262  16.920  16.892   9.632  0.0321  0.0829 -0.1360
11415W        W28263   1.473   8.741  12.925 -0.1074  0.1908  0.0500
11416W        W28264  11.908  14.652   2.771 -0.3356  0.0032  0.2558
11417W        W28265   3.359   1.853  12.329 -0.0226  0.0581  0.2000
11418W        W28266   6.523  12.540  13.197 -0.2731  0.1055  0.1253
11419W        W28267  10.772  15.701   4.436  0.0273 -0.1272  0.0153
11420W        W28268   5.952   6.781   3.241  0.1311  0.0767  0.0474
11421W        W28269  10.667  17.334   4.576  0.1012  0.1582  0.1153
11422W        W28270   2.356   5.285   4.945  0.3700 -0.1603 -0.0817
11423W        W28271  15.436  11.121   3.016 -0.3317 -0.3329  0.0129
11424W        W28272  16.393   7.681  12.671  0.0045  0.1403 -0.0595
11425W        W28273   2.828   1.293  12.264  0.1059 -0.2449  0.1716
11426W        W28274   2.737  17.671  15.020  0.2662  0.0503  0.2165
11427W        W28275   8.627   1.154   4.184  0.3354 -0.0031  0.1866
11428W        W28276  10.981   1.933   1.863 -0.0179 -0.1256 -0.1228
11429W        W28277   0.795  16.096  13.814  0.1357 -0.2717 -0.0225
11430W        W28278   5.036  11.096   3.182 -0.1295  0.2344  0.0045
11431W        W28279   9.464   3.322   2.104 -0.3117  0.0980  0.0173
11432W        W28280   7.899   9.578   3.527 -0.0555  0.1583 -0.3705
11433W        W28281  12.647  13.505   2.651  0.1228 -0.4240  0.2003
11434W        W28282   6.799  17.218   4.329 -0.0619  0.2915  0.0239
11435W        W28283   8.184  15.036   1.125  0.0137  0.0255 -0.0102
11436W        W28284   8.963   6.459  16.097  0.2545 -0.0901  0.1370
11437W        W28285   2.096   8.316  12.559  0.3836  0.1278 -0.1657
11438W        W28286   8.470   2.772   0.332 -0.3311  0.0177 -0.4235
11439W        W28287   1.700   6.237   0.378  0.0800  0.0243  0.0362
11440W        W28288   9.388   9.484   4.284 -0.2586 -0.2535 -0.0682
11441W        W28289  12.820   6.116   5.570  0.1846  0.0076 -0.2012
11442W        W28290  10.285   1.709   0.605 -0.0601 -0.0372 -0.0316
11443W        W28291  17.266   4.370   5.257  0.0384  0.0007  0.3653
11444W        W28292  12.118  12.624   2.711 -0.2609  0.0937  0.0341
11445W        W28293   8.995   5.728   3.764  0.3241 -0.2524  0.1006
11446W        W28294  16.118   1.913   4.719 -0.0996 -0.2285  0.1095
11447W        W28295   2.228   5.185   2.959 -0.0523  0.2492  0.0401
11448W        W28296  10.496  15.830   3.961 -0.1038  0.0405  0.2855
11449W        W28297  17.982   3.574   0.446  0.0683 -0.1642 -0.0404
11450W        W28298   4.215  13.643   6.040 -0.2850  0.1623 -0.0260
11451W        W28299   0.899   2.488   9.953  0.0278  0.1866  0.1547
11452W        W28300   6.665   7.023  16.081 -0.0812 -0.3262 -0.0585
11453W        W28301   5.775  14.439   2.420  0.0577  0.0659  0.0154
11454W        W28302  17.981  16.877  14.552  0.3184 -0.3094  0.0020
11455W        W28303   9.301   6.029   2.963  0.0467 -0.1975 -0.2682
11456W        W28304   2.583  17.132   1.045  0.1432  0.2345 -0.1440
11457W        W28305  11.121   7.317  12.848 -0.0533  0.0584  0.0124
11458W        W28306  15.177  17.057   3.888  0.1878  0.6503 -0.2856
11459W        W28307  13.505  13.534  16.034 -0.2758 -0.2578 -0.2244
11460W        W28308   7.459   5.864   2.959  0.0351  0.5848 -0.2088
11461W        W28309  17.421  10.904  15.048 -0.0272 -0.0543 -0.0411
11462W        W28310  16.875  10.827   1.750 -0.0865  0.0904  0.3710
11463W        W28311  16.491   5.948  14.850 -0.0677 -0.1206 -0.3401
11464W        W28312   7.938  16.655   5.051 -0.0267  0.0287 -0.2055
11465W        W28313  14.418  15.309   2.130  0.2665  0.1065 -0.1782
11466W        W28314   5.734  18.120  15.701  0.1982  0.1748 -0.1054
11467W        W28315  12.149  13.821   2.062  0.0694 -0.0552  0.0307
11468W        W28316  14.738  17.011   1.782  0.1475 -0.1861  0.4050
11469W        W28317   5.234   7.839   4.884 -0.0269  0.2173 -0.2242
11470W        W28318   5.665   6.383   0.424 -0.0677  0.2179  0.2089
11471W        W28319  16.593  11.847  14.759 -0.3559  0.1450 -0.7040
11472W        W28320   2.073   5.946  13.975  0.1168  0.0992  0.0465
11473W        W28321   2.867   9.150  15.656  0.0678 -0.1376 -0.3544
11474W        W28322   4.209  11.910   4.032 -0.1191  0.0824  0.1174
11475W        W28323   8.922   8.429   4.153  0.0422 -0.1510 -0.1856
11476W        W28324  17.516   6.534   1.381 -0.1441  0.0045  0.2192
11477W        W28325  15.824   4.735   2.254  0.0483  0.1217 -0.1344
11478W        W28326   6.104   2.253  12.198 -0.0127  0.1536 -0.2011
11479W        W28327   5.966   0.124   0.984 -0.0370  0.0530  0.0294
11480W        W28328  18.146  16.175  12.893 -0.2227 -0.0656 -0.2083
11481W        W28329   5.486  14.774  14.028 -0.0227  0.1968 -0.0785
11482W        W28330  17.178   8.126  12.604 -0.1970 -0.0439  0.0865
11483W        W28331  16.156   1.103  13.975 -0.2101  0.1668 -0.1993
11484W        W28332   9.929   7.433  11.567  0.1364  0.2521 -0.2745
11485W        W28333  14.748   5.128  14.388 -0.2825 -0.0730 -0.0478
11486W        W28334   1.221   5.095  14.927  0.0219 -0.1193 -0.4224
11487W        W28335  11.674   3.691   1.487 -0.0619  0.1074 -0.0139
11488W        W28336   8.771   7.755  11.485 -0.3977  0.2919 -0.0118
11489W        W28337   5.537  13.403  10.763  0.0848  0.1771 -0.1897
11490W        W28338   0.737   4.990  14.517 -0.0331  0.1740 -0.1851
11491W        W28339   6.480   5.965   1.834 -0.0042 -0.0723 -0.1182
11492W        W28340   1.826   1.915  16.020  0.0014  0.0976  0.2800
11493W        W28341  15.203  12.401   2.580  0.1330 -0.0672  0.1745
11494W        W28342   2.538  13.365  14.430  0.1654 -0.2954 -0.1589
11495W        W28343  14.384  15.695   1.198 -0.1670 -0.0712 -0.0360
11496W        W28344   1.723   2.502   5.066  0.2035  0.0549  0.0102
11497W        W28345  10.018   3.192   4.797  0.3906  0.1863  0.1445
11498W        W28346   7.533   0.037   1.417 -0.1171 -0.2514 -0.0327
11499W        W28347  11.262   7.457   5.093 -0.3598 -0.2659 -0.0727
11500W        W28348   2.571  12.721   3.537 -0.0535 -0.2172  0.0619
11501W        W28349  15.035  16.442  14.310  0.0944 -0.2865  0.1130
11502W        W28350   5.427  11.085  13.101  0.1939 -0.0174 -0.0228
11503W        W28351   9.374   5.233   4.335 -0.2368  0.0880 -0.1293
11504W        W28352  13.493   6.662  11.314  0.1229 -0.1266  0.1108
11505W        W28353   8.529  12.873   0.020  0.1288 -0.1685 -0.0567
11506W        W28354  15.698  16.613   4.169 -0.1068  0.0398  0.0002
11507W        W28355  16.931  15.805  11.103  0.1838 -0.0316 -0.1234
11508W        W28356   8.194   0.560   0.898 -0.2483  0.1406  0.2419
11509W        W28357   2.007   5.612   2.812  0.0786 -0.0012  0.0637
11510W        W28358  18.076  11.308  11.499  0.0517  0.1553  0.2688
11511W        W28359   0.914  12.196   3.174 -0.1040 -0.0398  0.0178
11512W        W28360   1.613   8.594  13.418 -0.0363  0.3296  0.2613
11513W        W28361   5.059   9.638   2.788 -0.0951 -0.0337 -0.2076
11514W        W28362  13.243  13.971  15.862 -0.0250  0.1889 -0.0563
11515W        W28363  18.186   5.959  14.572  0.0930 -0.0893  0.3370
11516W        W28364   9.743   4.058   2.407 -0.2127 -0.1673  0.0809
11517W        W28365   8.571  18.214  14.041  0.2277  0.2796 -0.3286
11518W        W28366   7.799   3.855   0.528 -0.2863 -0.2346 -0.1089
11519W        W28367   6.472  14.381  12.005 -0.1019  0.1345 -0.0624
11520W        W28368   1.550  17.194  13.027  0.0206  0.0912 -0.3920
11521W        W28369  13.174   0.276   4.867 -0.0006 -0.0700  0.3385
11522W        W28370   7.729   9.547  11.769  0.1210 -0.1887  0.1946
11523W        W28371  16.545  14.093  15.366 -0.3958 -0.1004 -0.1303
11524W        W28372   5.979   4.815  11.674 -0.0403  0.1247  0.1093
11525W        W28373  15.162   6.168   3.435  0.1000  0.0189  0.1990
11526W        W28374  11.597  11.212  15.561 -0.3585 -0.2369 -0.0834
11527W        W28375  17.582   6.526  13.919 -0.0994 -0.0846  0.3885
11528W        W28376  12.787   8.582   4.020 -0.1462 -0.0849  0.0183
11529W        W28377   4.843  15.495   2.366  0.1433  0.0171 -0.1548
11530W        W28378   2.610  11.246  14.886 -0.1227  0.1820  0.0915
11531W        W28379   3.312  17.448   0.676 -0.2283 -0.3236  0.1409
11532W        W28380  15.920   2.381  10.506 -0.3143 -0.0435  0.1519
11533W        W28381   6.708  12.228   4.655 -0.0740  0.4070  0.1950
11534W        W28382   2.490   7.497   3.180  0.1341 -0.1395  0.3854
11535W        W28383  12.749   3.938  14.917 -0.1082  0.1783  0.0172
11536W        W28384  10.873  17.646   5.457 -0.0342 -0.0155  0.1462
11537W        W28385  15.708  11.487  12.075  0.1807 -0.1503 -0.0803
11538W        W28386   0.516   9.581  14.632 -0.5411 -0.0732 -0.0035
11539W        W28387  15.375  13.453  12.250 -0.3059 -0.0161  0.0895
11540W        W28388  10.368   2.163   2.481  0.1494  0.0365 -0.0819
11541W        W28389   8.614   1.413   3.665 -0.1554  0.2504 -0.1160
11542W        W28390   4.197  10.135  15.105  0.3110 -0.0653  0.0818
11543W        W28391   2.409  12.390  12.694 -0.1276 -0.0686  0.2941
11544W        W28392   9.337  17.315  12.280  0.2422 -0.0234  0.1199
11545W        W28393  12.962   7.226   1.973 -0.0510 -0.0886  0.2759
11546W        W28394  16.200  10.594  11.381 -0.1628 -0.0164  0.2014
11547W        W28395  17.448   5.285  13.238  0.2289  0.0289 -0.6326
11548W        W28396  15.928  13.773  10.830 -0.0725 -0.0933 -0.0097
11549W        W28397   7.743  14.433   3.331 -0.2438  0.1108  0.0356
11550W        W28398  10.029   6.761   4.661  0.0544 -0.2589  0.1217
11551W        W28399  18.056  13.768   5.191 -0.0916 -0.1278  0.0511
11552W        W28400  10.173   6.374  14.839  0.2218 -0.0936  0.3296
11553W        W28401   7.027   6.244  15.720  0.0875  0.0918  0.0343
11554W        W28402   1.974  13.214   1.973  0.1343  0.1532  0.2046
11555W        W28403  10.148  10.616  16.079  0.0207 -0.0086  0.1060
11556W        W28404  13.603   3.920  15.703 -0.1138 -0.0497 -0.1234
11557W        W28405  15.395   5.170  13.043 -0.1339  0.4268  0.1601
11558W        W28406   6.490   7.329   2.682 -0.2593 -0.1647  0.0989
11559W        W28407  12.006  13.148  11.952 -0.5002 -0.3336 -0.0263
11560W        W28408   0.663   7.913  14.949 -0.2163 -0.1591 -0.4107
11561W        W28409   5.296   7.337   2.441 -0.1120  0.1030 -0.2531
11562W        W28410  12.854   0.468  12.335 -0.0840 -0.1828 -0.0856
11563W        W28411  15.695   7.448  15.411  0.1550 -0.1590  0.0541
11564W        W28412  16.496  17.374   1.691  0.0471  0.1961 -0.1454
11565W        W28413   9.251   5.485  13.151 -0.0512 -0.1062 -0.0709
11566W        W28414   3.074   9.351   1.837 -0.0338  0.1279 -0.0185
11567W        W28415   2.475   8.226  13.204  0.1790 -0.1073 -0.2052
11568W        W28416  15.496  17.294  11.331  0.1487 -0.2212  0.0906
11569W        W28417  10.676   6.445  12.065 -0.1410 -0.0039  0.2352
11570W        W28418   6.457  11.049  13.391  0.2933  0.2969  0.1865
11571W        W28419   1.755  15.482  15.535  0.0902 -0.1365 -0.3043
11572W        W28420   3.934   5.732   3.986  0.1159 -0.2387  0.0156
11573W        W28421  13.102   9.670  12.099 -0.1660  0.1084  0.0271
11574W        W28422  15.278  12.836  13.767  0.0238  0.0962 -0.3128
11575W        W28423   6.900   9.579   3.282  0.1779 -0.0398 -0.0962
11576W        W28424   8.783  18.199  12.062 -0.0736 -0.3054  0.0029
11577W        W28425   6.938  14.411  12.189 -0.1644 -0.1680 -0.1502
11578W        W28426  13.972   3.200   3.720 -0.0600 -0.3140  0.0005
11579W        W28427   2.852  16.481   4.728 -0.1607  0.1531  0.0159
11580W        W28428  14.887  11.519   5.041  0.1984 -0.0959  0.1156
11581W        W28429   5.041   1.635  11.502  0.0075 -0.2336  0.0051
11582W        W28430   9.321  17.740  11.282  0.0494  0.2230  0.2849
11583W        W28431   6.960   2.669  13.750  0.0075  0.1514 -0.1030
11584W        W28432   8.811  13.234   4.415 -0.4311 -0.0091  0.2520
11585W        W28433   3.412   1.946  11.811  0.0220  0.1509 -0.2046
11586W        W28434  18.016   6.681   1.927  0.0196  0.0803  0.0377
11587W        W28435   2.250   2.760  13.160 -0.1321 -0.2094  0.1536
11588W        W28436   4.447   4.437  10.195 -0.2888  0.2697  0.0145
11589W        W28437  16.530   1.251  12.266  0.1570 -0.1064  0.1387
11590W        W28438  18.209  12.934   2.219 -0.4104 -0.0703 -0.1610
11591W        W28439   3.185   2.330  15.820 -0.1197 -0.0172  0.3274
11592W        W28440   8.391   7.835  15.348 -0.1728 -0.0923  0.0351
11593W        W28441   7.143  17.824   4.570 -0.0266 -0.3804  0.0844
11594W        W28442   3.835  11.059  10.926 -0.0212 -0.0000 -0.0743
11595W        W28443  17.086   7.366  15.016 -0.1218 -0.3140  0.1300
11596W        W28444   0.343  14.605  14.002  0.1643  0.1202  0.2603
11597W        W28445   4.828   9.118  13.931 -0.1562  0.0717  0.0532
11598W        W28446  14.863   2.241  16.106 -0.0179  0.0456  0.0736
11599W        W28447  14.019  15.845   0.865  0.0117  0.2603  0.0464
11600W        W28448   9.210  15.635   0.754 -0.1446 -0.0537  0.0013
11601W        W28449   7.822   1.470  13.742  0.2154  0.5172  0.4055
11602W        W28450   7.227  13.710  13.660  0.2204 -0.0277 -0.3565
11603W        W28451  10.764  13.896  13.853  0.0164  0.1397 -0.3074
11604W        W28452  13.578   7.226  15.550  0.0168 -0.1536  0.0801
11605W        W28453   0.754   1.119  14.172 -0.1904  0.0117 -0.2152
11606W        W28454   7.627  17.270  15.943 -0.1748 -0.3027  0.0742
11607W        W28455   6.181  14.100   2.478 -0.0725  0.1409  0.0222
11608W        W28456  18.057  12.514   0.181 -0.3468  0.2420 -0.0427
11609W        W28457   0.260  10.305  13.252 -0.1944  0.0461  0.3173
11610W        W28458   7.327   9.538   5.041  0.3587 -0.1659  0.2916
11611W        W28459  17.041   8.256   0.209 -0.1682 -0.1351 -0.2075
11612W        W28460  13.182  16.070  13.757 -0.2181  0.1820 -0.0009
11613W        W28461   1.185  14.296  12.679 -0.0970 -0.1340  0.1558
11614W        W28462  11.720   4.094   1.719  0.0265  0.1798 -0.1025
11615W        W28463  14.987  10.800   3.316 -0.0448  0.1262  0.6171
11616W        W28464   9.290   5.294  14.079  0.2499  0.0662  0.1282
11617W        W28465  12.011   1.027  11.780  0.0931 -0.0344  0.2426
11618W        W28466   7.783   2.103   4.381  0.2060  0.0446 -0.0162
11619W        W28467  15.941   7.752   3.499 -0.0837 -0.0576 -0.1992
11620W        W28468  11.933   2.737  13.588 -0.1019 -0.1934 -0.2562
11621W        W28469   7.413  13.653   2.974 -0.0626 -0.1636  0.1800
11622W        W28470   5.417  12.572   4.483 -0.0287 -0.0159  0.2896
11623W        W28471  17.091   4.610  12.350 -0.2684  0.0422  0.0520
11624W        W28472   1.878   1.122  14.811  0.3761  0.0508 -0.1696
11625W        W28473   7.218  16.106  13.856  0.1201 -0.3860  0.2047
11626W        W28474   3.870   8.133   4.191  0.2195  0.0550  0.1200
11627W        W28475   0.491  12.456  13.731 -0.0112  0.3271 -0.0508
11628W        W28476   4.906  13.231  11.430 -0.1376 -0.0517  0.1595
11629W        W28477   3.926  11.915  16.028 -0.1646  0.0225  0.2569
11630W        W28478   9.582   4.926   5.089 -0.1208 -0.1830  0.0367
11631W        W28479   1.866   3.257   0.868 -0.1440  0.0142 -0.2660
11632W        W28480   3.992  13.535   2.657  0.0711  0.0271 -0.0094
11633W        W28481  12.636   5.803  14.683  0.0224 -0.6216  0.2466
11634W        W28482   4.647  10.974  10.784  0.0179 -0.0821 -0.1886
11635W        W28483   2.697   9.591   2.847 -0.1747  0.0699  0.0184
11636W        W28484  13.737  11.371   4.609  0.2965 -0.0092 -0.1361
11637W        W28485   5.145  12.952  15.084 -0.1952 -0.3507  0.0035
11638W        W28486   2.754  11.020  13.521 -0.0116  0.0568 -0.2259
11639W        W28487   0.389  13.196   1.435  0.0620  0.1016  0.0729
11640W        W28488   5.121  11.496  14.496 -0.0563 -0.1040 -0.4667
11641W        W28489   1.237   7.930  12.731  0.0127 -0.0132 -0.2235
11642W        W28490  17.665   1.554   1.329 -0.0381 -0.3024  0.2958
11643W        W28491   5.091   0.550   1.678 -0.0435 -0.1485 -0.1699
11644W        W28492  13.929   0.824   0.139  0.0656 -0.1627  0.3479
11645W        W28493   2.256   3.583  13.336  0.1014  0.1702  0.4126
11646W        W28494  16.261  10.552  15.009  0.2296  0.1915 -0.2300
11647W        W28495   0.418   0.141   2.147  0.2794 -0.0685 -0.2193
11648W        W28496   0.257  10.789  12.585  0.3068 -0.0214  0.0890
11649W        W28497   7.673   7.289   1.564  0.1947  0.2547  0.0481
11650W        W28498   6.296  17.422  16.114 -0.1240  0.0756 -0.0560
11651W        W28499   7.316  16.686   0.524  0.0955  0.2088  0.1933
11652W        W28500   4.404  11.182  13.313 -0.6050  0.2260  0.1618
11653W        W28501   3.153   3.955   1.631 -0.1256  0.0839  0.0417
11654W        W28502   3.394  12.988   0.930 -0.1899 -0.0444 -0.0352
11655W        W28503   2.997  12.767   1.682  0.2377 -0.0235  0.3906
11656W        W28504   7.984  10.870  13.709 -0.1118  0.2551  0.1301
11657W        W28505   9.049   1.817   2.538  0.0960  0.1793  0.0925
11658W        W28506  15.824   7.565   1.938 -0.3584 -0.0747  0.3845
11659W        W28507  17.811   9.609  12.820  0.3319 -0.0133  0.1514
11660W        W28508  14.039   9.131   2.845 -0.2673  0.0508 -0.1458
11661W        W28509  11.492   8.445  12.201 -0.4541  0.2359 -0.0446
11662W        W28510  12.172   5.510   2.000  0.1165 -0.2032 -0.0589
11663W        W28511  17.776  11.682  14.655 -0.1428  0.2071 -0.0454
11664W        W28512   5.595  16.196   3.519 -0.2921  0.0034  0.1134
11665W        W28513   7.716  17.466   0.284 -0.0220  0.0338  0.0960
11666W        W28514   0.608  12.241   3.695 -0.0070 -0.3383 -0.0370
11667W        W28515   0.067   5.217   2.558 -0.2328 -0.0577 -0.1578
11668W        W28516   5.707   5.515  15.640  0.2710  0.1316 -0.0146
11669W        W28517   2.258  15.447  13.044  0.4440  0.1485  0.1992
11670W        W28518   5.497   4.243   1.469  0.0522  0.2505 -0.0106
11671W        W28519   0.913   9.417  15.012  0.0174 -0.2911 -0.2910
11672W        W28520   5.842   1.083  11.533  0.0724 -0.0183  0.2673
11673W        W28521  15.128   5.469  13.583 -0.0823  0.0490 -0.2640
11674W        W28522  16.295   7.946   3.810 -0.0624 -0.0585  0.0384
11675W        W28523   1.392  18.122   5.134 -0.0057  0.0321  0.1284
11676W        W28524   0.290   4.790   4.582 -0.0380  0.2097 -0.0140
11677W        W28525   0.805   6.568   2.358 -0.0610  0.4790  0.2939
11678W        W28526   6.880   3.902  12.378 -0.3852  0.2921  0.0767
11679W        W28527   1.303   9.150  15.348  0.3131  0.0961 -0.1606
11680W        W28528  13.940   2.023  12.721  0.2735 -0.3094 -0.1867
11681W        W28529  14.019  11.802   0.182 -0.1680 -0.0090  0.2519
11682W        W28530   6.174  15.841   2.936  0.0294 -0.1525 -0.1381
11683W        W28531  15.374   2.024  15.248 -0.2125  0.3086  0.0446
11684W        W28532  16.300  17.362  15.100 -0.0554 -0.0658 -0.1167
11685W        W28533   5.830   0.893   4.480  0.3104  0.4189  0.0301
11686W        W28534   1.038  12.677  15.537  0.2817  0.1875 -0.0377
11687W        W28535  17.374  14.719   0.984 -0.1469  0.4665  0.2199
11688W        W28536   8.439   1.934  13.799  0.2493  0.2255  0.4037
11689W        W28537  13.698   8.853   3.659 -0.0038 -0.0579 -0.4511
11690W        W28538  11.851   2.776   2.492 -0.0310  0.0893  0.1845
11691W        W28539  10.590   8.361   5.554 -0.2735  0.3699 -0.3462
11692W        W28540  14.231  15.781   1.996  0.1373 -0.0089 -0.1269
11693W        W28541  14.509  13.025   0.685 -0.1387 -0.1341 -0.0436
11694W        W28542  17.295   3.365   4.449  0.0459  0.3248 -0.2201
11695W        W28543  10.937  11.493   1.779  0.0052 -0.0912 -0.0114
11696W        W28544  12.219   4.785  15.593 -0.0519 -0.2833 -0.2818
11697W        W28545   8.874   8.237  11.848 -0.0755  0.1310  0.0301
11698W        W28546  17.474   4.696  15.964  0.2070 -0.4319 -0.0403
11699W        W28547  17.624  14.188  14.943  0.2057  0.0392  0.0208
11700W        W28548  13.561  16.328   1.726 -0.2349 -0.0883 -0.0530
11701W        W28549   3.859   4.008   2.630  0.2023  0.1982  0.4148
11702W        W28550   3.614  15.328   4.301  0.2277 -0.0755 -0.2131
11703W        W28551  13.901   4.200  10.908  0.0618 -0.2457  0.1657
11704W        W28552   7.572   5.399   1.212 -0.2510 -0.0218  0.1715
11705W        W28553  17.094  12.732   0.558 -0.1478  0.1102 -0.1407
11706W        W28554  14.725  16.131   3.384  0.2026  0.0730  0.1504
11707W        W28555   4.147   2.190   2.185  0.2165  0.0603 -0.2758
11708W        W28556   6.559   1.649  14.460  0.4614  0.1369 -0.2262
11709W        W28557  16.689   4.188   0.089  0.2063  0.1993 -0.3380
11710W        W28558  11.147  13.994   2.635  0.0985 -0.0639  0.3442
11711W        W28559   6.654   3.349   2.710 -0.0141 -0.0550  0.4428
11712W        W28560  13.674   1.648  15.163 -0.0721  0.1002  0.2101
11713W        W28561  13.404   8.962   1.199  0.0801  0.1039 -0.1454
11714W        W28562   7.124   3.491  15.163 -0.0202 -0.1014 -0.0586
11715W        W28563  18.029  14.372  11.292 -0.2003 -0.2495  0.2782
11716W        W28564   1.040   1.979   4.890  0.1380  0.3033 -0.1544
11717W        W28565  13.100   9.776  10.518  0.1831 -0.0073 -0.3723
11718W        W28566  11.566   1.726   4.088 -0.0595  0.2717  0.0751
11719W        W28567  15.307   3.412  15.258  0.0459  0.5420 -0.2892
11720W        W28568   2.886   5.003  11.776  0.0650  0.1744 -0.1268
11721W        W28569  17.957   7.333  14.284  0.0793  0.1393  0.1255
11722W        W28570   6.598   7.454   0.644 -0.0873  0.1148  0.3471
11723W        W28571   0.275  14.122   3.001 -0.1355  0.0875 -0.1666
11724W        W28572   2.682   2.937   0.478  0.2779  0.5681 -0.1993
11725W        W28573  17.253   1.756  11.370 -0.1549 -0.4082  0.3117
11726W        W28574   8.289   6.585  12.836  0.0242  0.2504  0.1175
11727W        W28575   5.879  17.133   0.270 -0.0521  0.4201 -0.0423
11728W        W28576  14.498   5.817   4.895 -0.1206 -0.0538 -0.1119
11729W        W28577   0.478   5.679   4.432  0.0415  0.1872  0.1129
11730W        W28578   3.019   5.002   4.367  0.0130 -0.0427 -0.2478
11731W        W28579   4.600   1.960   4.572 -0.0223 -0.1550 -0.3019
11732W        W28580  10.871   2.826   3.053 -0.2525  0.0667  0.1384
11733W        W28581  17.343  14.688   2.619  0.2600  0.1529 -0.0584
11734W        W28582   9.403   0.814   2.120 -0.4633 -0.0346 -0.4919
11735W        W28583  16.885  10.794  12.622 -0.0208 -0.0309  0.0534
11736W        W28584  10.118   2.598   4.497 -0.2825  0.0716  0.3303
11737W        W28585   3.505   7.161  15.706  0.2069 -0.0874 -0.0222
11738W        W28586   9.391  13.132   3.454 -0.1951 -0.1045  0.0505
11739W        W28587   5.955   2.996   4.856 -0.2699  0.1725  0.1861
11740W        W28588  14.766   5.572  15.553 -0.1140 -0.0631  0.1387
11741W        W28589  13.259  11.865   0.746  0.0440 -0.0631 -0.0505
11742W        W28590   5.734   0.580  14.880 -0.1527 -0.3019  0.2682
11743W        W28591   8.025  13.070  13.875 -0.1352 -0.2429 -0.0224
11744W        W28592  13.991  17.804   0.249 -0.1604  0.0539  0.1124
11745W        W28593   6.889   8.679  10.855 -0.0696 -0.3067  0.0785
11746W        W28594  11.708   9.326   4.908  0.1502  0.2315 -0.1429
11747W        W28595  10.221   9.719   5.557  0.1823 -0.0737  0.0210
11748W        W28596   7.717  13.446   3.661 -0.1421 -0.0768 -0.0730
11749W        W28597   2.413  16.509  14.291 -0.1361  0.0360 -0.2941
11750W        W28598  18.217   4.029  14.277  0.0620  0.3224 -0.1188
11751W        W28599  16.188  11.411   4.182 -0.1381  0.1619 -0.1364
11752W        W28600  13.022  14.194   1.555  0.1386  0.0116  0.1400
11753W        W28601  12.403  12.558  14.367  0.0792  0.0286 -0.0045
11754W        W28602   3.571   4.307   2.015 -0.0411  0.1256  0.1934
11755W        W28603  12.933   6.823  11.990 -0.0865  0.0429 -0.2144
11756W        W28604  11.364  16.100   4.020  0.4780 -0.0819 -0.1766
11757W        W28605   9.016  10.080   2.459 -0.1831  0.1129 -0.2764
11758W        W28606  17.640  10.316  15.903 -0.0269  0.2222  0.2704
11759W        W28607  12.864   5.228   4.256  0.0765  0.2315  0.0246
11760W        W28608   9.258  10.696   3.521  0.0785  0.1866 -0.0900
11761W        W28609  11.936   0.802  15.889 -0.0222  0.0544  0.1016
11762W        W28610  11.249   9.850  11.999  0.1314  0.3251 -0.1293
11763W        W28611   5.436   6.198  11.580  0.1704  0.0493  0.0871
11764W        W28612   0.766  15.565  11.065 -0.0519  0.1299  0.0451
11765W        W28613   7.590   0.927   3.551 -0.2611  0.0191  0.3495
11766W        W28614   2.625   6.267   0.235 -0.0912  0.2544 -0.1271
11767W        W28615   5.134  16.224   5.267 -0.2780 -0.3009 -0.3467
11768W        W28616  17.612   8.969  12.397  0.2063  0.2876 -0.0393
11769W        W28617   5.942  10.014   0.375  0.0325  0.2835 -0.0260
11770W        W28618   4.873  18.157  14.149  0.1829  0.3950 -0.2764
11771W        W28619  15.415  10.589  11.796  0.0454  0.1179  0.2638
11772W        W28620  10.493   1.176   0.887  0.1176 -0.0579 -0.4961
11773W        W28621   5.268   5.505   1.087 -0.1979 -0.3224  0.2709
11774W        W28622   6.730  12.901  11.567  0.1479 -0.2819  0.1577
11775W        W28623   8.037  16.888   0.802  0.1703  0.0336 -0.0281
11776W        W28624  15.030   2.058   0.443 -0.1817  0.2634  0.2022
11777W        W28625  11.428  11.339  11.242  0.1769  0.0198 -0.1778
11778W        W28626  16.342   8.625  15.474 -0.2427  0.1329 -0.1158
11779W        W28627  10.277  12.780  12.615 -0.1515 -0.0151  0.0876
11780W        W28628  15.948  17.631  12.577  0.1441  0.2564  0.2198
11781W        W28629   4.255  11.237   3.238  0.0948  0.0401 -0.1236
11782W        W28630   4.988  17.760   0.134  0.2059  0.1010 -0.0622
11783W        W28631  11.961  15.382  12.258 -0.1066  0.1963 -0.2507
11784W        W28632  12.734  12.013   3.759  0.2338  0.2426 -0.2122
11785W        W28633   7.017  10.917  15.665 -0.2311 -0.2025 -0.0759
11786W        W28634   4.175  10.157  11.257 -0.1652 -0.0564 -0.1248
11787W        W28635  11.120  14.928  13.419  0.0432  0.1735 -0.3102
11788W        W28636   4.481  15.645   0.086  0.0114 -0.4853 -0.0425
11789W        W28637  14.698   6.511   5.561 -0.4642  0.2010 -0.1017
11790W        W28638  15.068   4.064   3.587  0.0540 -0.2175  0.0757
11791W        W28639   0.975  18.167  15.526 -0.1126 -0.0985  0.3388
11792W        W28640   5.161  16.130  15.470  0.0358 -0.3400 -0.2963
11793W        W28641   9.224  13.616   3.193 -0.0022  0.2532 -0.0895
11794W        W28642  13.312   8.498   5.320 -0.2655  0.0638  0.1782
11795W        W28643  16.902   5.419   4.897 -0.1835 -0.0155  0.1879
11796W        W28644   5.952   0.821   0.678  0.1545  0.0876 -0.2071
11797W        W28645   2.171  17.177  11.165 -0.1546  0.1732 -0.3045
11798W        W28646   9.858  11.887   0.948 -0.2158 -0.1485  0.3332
11799W        W28647  17.868   4.931   5.169 -0.3270 -0.0272  0.1571
11800W        W28648   8.591  12.043  15.792  0.0841  0.0522  0.0955
11801W        W28649   5.958   5.239   0.665  0.2863  0.1391 -0.0103
11802W        W28650  18.070  17.063   5.560  0.0281  0.0158 -0.2674
11803W        W28651   1.492  17.704  14.969 -0.3342  0.1270  0.0543
11804W        W28652  10.398   5.956  12.005  0.2447  0.0057 -0.0948
11805W        W28653  18.050   9.183  15.654  0.0939  0.0573 -0.0160
11806W        W28654  15.755  10.424  11.308  0.2838  0.2779  0.0712
11807W        W28655   3.982  10.592  14.264  0.3062 -0.1787 -0.2425
11808W        W28656  11.151  11.428   3.707 -0.0271  0.0831  0.3412
11809W        W28657   8.625   5.428  14.675 -0.2723 -0.0615  0.1286
11810W        W28658   5.743   3.857   2.654 -0.2760 -0.1420 -0.0942
11811W        W28659  11.078   0.654   2.294 -0.1509  0.0476  0.0680
11812W        W28660   3.941  10.584   0.755  0.0795  0.0011 -0.0151
11813W        W28661   5.756   1.439  10.383  0.0375 -0.1218 -0.2803
11814W        W28662   2.318  11.072  11.162  0.2614  0.1617  0.0073
11815W        W28663   3.714  16.356  11.831  0.4095 -0.0328  0.0483
11816W        W28664  17.791   4.948  11.788 -0.1827  0.4229 -0.0984
11817W        W28665  11.270  11.944   4.065  0.3470  0.1822  0.0764
11818W        W28666   4.011   9.465  11.819 -0.0583  0.1555 -0.0427
11819W        W28667   2.239  15.459   2.566 -0.2510 -0.3449  0.0507
11820W        W28668  17.136  16.458  15.077 -0.0170 -0.4972 -0.0758
11821W        W28669   7.982  12.788  14.317 -0.0948 -0.1118  0.2965
11822W        W28670   9.580  13.850  14.325  0.0598 -0.1290 -0.2157
11823W        W28671  14.544   4.174   2.420  0.3053 -0.0727  0.1920
11824W        W28672  10.938  13.509   0.893 -0.0382 -0.1651  0.1423
11825W        W28673   6.809  11.688   3.809 -0.0811 -0.0058 -0.1355
11826W        W28674   2.471   7.102   5.075  0.0144 -0.0177 -0.1031
11827W        W28675  15.670   9.109   2.314 -0.0198  0.0953 -0.1066
11828W        W28676  16.570   4.345   3.420 -0.1966  0.0974 -0.3223
11829W        W28677  14.928   0.715  12.669  0.0222 -0.1604  0.0877
11830W        W28678  13.527  14.727   0.926  0.1437  0.1213  0.1369
11831W        W28679   3.016   3.940  13.334 -0.1711  0.1085 -0.0078
11832W        W28680  15.492   6.542   4.739 -0.0125  0.0354  0.1737
11833W        W28681  16.586  11.046  14.324 -0.0650  0.4178  0.0979
11834W        W28682  12.621   0.996   4.594  0.1687 -0.0399 -0.1845
11835W        W28683  13.258  15.429   0.306 -0.1940 -0.2517 -0.1762
11836W        W28684  13.800   1.041  14.530  0.1625 -0.0516 -0.1873
11837W        W28685   6.332  13.093  11.870 -0.2829 -0.3554  0.2927
11838W        W28686   8.575  16.949   3.154 -0.0754  0.1162  0.1255
11839W        W28687  17.473   4.281  13.083 -0.0693  0.2089 -0.2235
11840W        W28688  15.023  14.773  14.835  0.1370  0.0430  0.0758
11841W        W28689  16.158  12.513   6.126 -0.0265  0.0592 -0.2299
11842W        W28690   2.721  11.172   2.908 -0.2384  0.0831 -0.0010
11843W        W28691   6.358   2.228  12.946  0.0962 -0.0596  0.1156
11844W        W28692  17.438  13.605   0.489 -0.0475 -0.1565  0.2474
11845W        W28693  17.637  15.674   0.485 -0.0392 -0.2564 -0.1543
11846W        W28694   1.622   2.160  12.385  0.0048  0.0545  0.1003
11847W        W28695   9.984   0.842  12.817 -0.3541 -0.1061 -0.1814
11848W        W28696   8.772   5.897   1.670  0.0426 -0.1110  0.0186
11849W        W28697   2.424   7.052  12.054  0.0645 -0.1999  0.1845
11850W        W28698   1.341   1.298   0.664  0.2248  0.0964 -0.0312
11851W        W28699   4.554   2.374  15.236  0.0902 -0.0264  0.1409
11852W        W28700  17.164  16.320  15.565 -0.0225 -0.1853  0.0849
11853W        W28701  15.083   2.565   2.511 -0.3876 -0.2418  0.0465
11854W        W28702  14.388  11.788   6.443  0.0744  0.1496  0.0176
11855W        W28703   2.343   1.240  13.907  0.2234 -0.1894  0.0981
11856W        W28704   2.142   5.091  13.874 -0.1250 -0.4088 -0.0048
11857W        W28705   4.809  17.672  13.346 -0.1325  0.1347  0.0920
11858W        W28706  16.911  16.463  12.302 -0.2455  0.1016  0.0104
11859W        W28707  15.708  17.930  14.030 -0.1852  0.0052 -0.1137
11860W        W28708  17.237   7.563   4.657  0.4371 -0.1065  0.1660
11861W        W28709   9.056   2.237   1.592 -0.1545 -0.1682 -0.0400
11862W        W28710  11.048   6.764  10.468  0.1163 -0.0863  0.0773
11863W        W28711   6.558  18.060  13.572  0.1106  0.0737  0.0432
11864W        W28712  17.204   1.438  14.592 -0.3132  0.0988  0.0669
11865W        W28713   1.865   0.405  14.708 -0.4253 -0.4979 -0.1250
11866W        W28714   0.000   5.165  15.130  0.2861 -0.4968  0.3297
11867W        W28715  10.035  14.317  11.897 -0.2089 -0.1623  0.0244
11868W        W28716  15.911  12.168   5.351 -0.1736 -0.0828 -0.0329
11869W        W28717   9.283   9.635   1.946 -0.1161 -0.0578  0.0873
11870W        W28718   7.159   9.463  12.195 -0.0574 -0.0208  0.2413
11871W        W28719  12.991   6.021  15.529 -0.0433  0.0519  0.0278
11872W        W28720   2.619  16.585   2.000  0.0199 -0.0017 -0.0161
11873W        W28721   6.637   2.936  12.501 -0.0021 -0.0889 -0.0188
11874W        W28722  15.504  12.727   1.272  0.1638  0.0467 -0.0574
11875W        W28723   8.167  12.837   1.866 -0.0973 -0.1678  0.0939
11876W        W28724   0.269  18.164  11.953  0.0778 -0.0346  0.1797
11877W        W28725   9.798   1.107   0.647 -0.1513  0.1392 -0.2806
11878W        W28726   5.625  15.214  11.239  0.2623 -0.0446 -0.1537
11879W        W28727  12.774   2.905   3.182  0.0280  0.2799 -0.2293
11880W        W28728  10.363   4.761  11.701  0.2087 -0.0828  0.1270
11881W        W28729   5.730  12.077  15.682  0.1706  0.2585 -0.2581
11882W        W28730   8.802   8.626   1.129 -0.1989  0.5034 -0.3105
11883W        W28731   7.902   1.664  15.426 -0.1633 -0.2181 -0.0022
11884W        W28732  10.731   3.974   2.570 -0.0954 -0.2964 -0.1127
11885W        W28733   7.098   7.026  15.637 -0.1653 -0.1040 -0.2067
11886W        W28734  16.243   2.805   2.763  0.0880  0.1980  0.2444
11887W        W28735  14.135  10.804   2.961 -0.0887 -0.1858 -0.3503
11888W        W28736  12.055   8.983   1.052  0.0757 -0.4416 -0.1325
11889W        W28737   4.795  16.429  15.675 -0.3518  0.2570  0.1008
11890W        W28738  17.283   6.210   2.895  0.0414 -0.0372  0.1187
11891W        W28739  16.845   8.079   5.398  0.3866  0.2670 -0.0063
11892W        W28740   4.229  10.919  12.656 -0.0501 -0.1001 -0.4133
11893W        W28741   4.768  13.434   1.327 -0.3396 -0.0978 -0.0716
11894W        W28742  11.945  13.501  13.361 -0.0605 -0.1336  0.1503
11895W        W28743   1.935  17.431   5.610  0.2134  0.0269 -0.1960
11896W        W28744   6.415  14.609   4.659 -0.2805  0.1793 -0.0667
11897W        W28745   2.375   4.689  15.741 -0.2736 -0.1198  0.3989
11898W        W28746   0.612   8.478  12.764 -0.0990  0.0297 -0.0875
11899W        W28747  12.733   5.475   0.052  0.1649 -0.1027  0.0811
11900W        W28748   0.681  12.531   0.357 -0.0798 -0.0009 -0.2429
11901W        W28749   9.962  10.990   2.979  0.2876  0.0319 -0.1026
11902W        W28750   1.152  13.293  16.045  0.2516 -0.0597 -0.0309
11903W        W28751  16.218   9.152  11.843  0.2021 -0.0066 -0.1943
11904W        W28752  16.164   1.976  11.690  0.2372 -0.1595 -0.0366
11905W        W28753   9.487   8.281  12.211  0.2441  0.0953  0.0212
11906W        W28754  11.566  10.105   3.183 -0.0830  0.0316 -0.1102
11907W        W28755  14.976  13.375  14.009 -0.2357  0.0004  0.1610
11908W        W28756  10.678   9.899  13.264  0.1489 -0.1178 -0.1365
11909W        W28757  16.533   3.244   0.521 -0.1379 -0.0378  0.1309
11910W        W28758  10.393   7.509   2.701 -0.0165 -0.0060  0.1034
11911W        W28759   6.216   4.016   4.762  0.2000  0.1902 -0.5876
11912W        W28760   3.633   3.262   2.182  0.0593  0.1010 -0.1814
11913W        W28761   2.794   5.508   3.212  0.0299  0.2444 -0.1529
11914W        W28762  12.687   5.990  11.769 -0.0940  0.2421 -0.1909
11915W        W28763   9.041   8.674  10.417  0.3296  0.2370  0.0274
11916W        W28764   3.740   2.293   0.096  0.1241  0.1056  0.0499
11917W        W28765  15.426   0.844   1.061 -0.3657 -0.1984 -0.2623
11918W        W28766  12.053   9.012   2.958 -0.0424  0.4474 -0.0049
11919W        W28767  11.697   6.280   4.453  0.3219 -0.2530  0.1617
11920W        W28768  10.255  17.170   4.929  0.1265  0.3238  0.3366
11921W        W28769   3.046   5.575  14.881 -0.0643 -0.2569 -0.3649
11922W        W28770   6.919  17.841  14.605  0.0439 -0.2712 -0.3227
11923W        W28771   9.994  11.024  12.622 -0.4032 -0.0279  0.1466
11924W        W28772  15.226   4.734   3.462  0.2212  0.1644  0.3436
11925W        W28773   8.519   7.927  12.474  0.1555 -0.2067 -0.3045
11926W        W28774   2.813   9.052  15.111 -0.0221 -0.1000  0.0084
11927W        W28775  11.551  17.242   5.017 -0.1549 -0.0409  0.2214
11928W        W28776  16.507  13.950  12.357 -0.1114 -0.0018  0.2393
11929W        W28777   0.796   5.687  11.540 -0.1150 -0.3595 -0.1261
11930W        W28778  15.875   0.404  14.094  0.1626 -0.0641  0.0782
11931W        W28779  13.001   3.522   0.158  0.0905  0.0101 -0.1011
11932W        W28780   3.559  17.576  13.713 -0.0499 -0.0291  0.0772
11933W        W28781   7.907   6.726   2.071 -0.2521  0.2359 -0.2145
11934W        W28782   3.380  12.063   2.033 -0.1448  0.0634 -0.2463
11935W        W28783   3.563  13.967  10.958  0.3242  0.2343  0.0825
11936W        W28784   9.289   5.141  15.057  0.0209  0.1331 -0.2815
11937W        W28785  15.913   8.898   0.621  0.1539  0.0952  0.0886
11938W        W28786   6.329  14.505   2.237  0.5134  0.1098  0.1442
11939W        W28787  12.019   1.056   2.353  0.1688  0.0920 -0.2926
11940W        W28788  10.261   9.616  13.999  0.0855 -0.2150 -0.1316
11941W        W28789   2.118   9.534  15.471 -0.3773  0.1881 -0.2396
11942W        W28790  13.960   9.596  15.888  0.3099 -0.0383  0.1267
11943W        W28791   7.344   5.572  15.115 -0.0289  0.1374 -0.1234
11944W        W28792   5.306  14.068   3.053 -0.0428 -0.1089  0.1101
11945W        W28793   9.143   2.681  13.712  0.1506 -0.0398  0.1067
11946W        W28794  12.487   0.831  11.628  0.1876  0.2882  0.2397
11947W        W28795   1.121  13.283   3.222 -0.4212  0.1817  0.0872
11948W        W28796  14.856   2.761  13.081 -0.0447  0.2728 -0.3229
11949W        W28797   9.081  14.563  13.946  0.0489 -0.1784  0.1544
11950W        W28798  12.027   3.378  12.669  0.1913  0.0377  0.2677
11951W        W28799   8.116  12.979  10.324 -0.3990  0.1273  0.0231
11952W        W28800  10.174   2.599  12.963  0.0232 -0.2530  0.1263
11953W        W28801  16.566  11.363  13.275 -0.2966  0.3042 -0.1333
11954W        W28802  12.517  10.403   4.384 -0.0226  0.2373  0.2590
11955W        W28803   3.659  10.252  11.518 -0.2306 -0.2670  0.3820
11956W        W28804   2.362  10.562   0.259  0.0195  0.0407 -0.0681
11957W        W28805   0.697  10.372  13.506  0.1263  0.0200  0.0860
11958W        W28806  11.374  15.492  13.178 -0.1107  0.2037  0.0724
11959W        W28807   7.149   3.407  13.843  0.2564 -0.0426 -0.0741
11960W        W28808   4.937   7.111  11.596  0.0883  0.0521  0.3539
11961W        W28809   3.283  14.942  13.732 -0.2212  0.2155 -0.1607
11962W        W28810   8.249   9.752  13.789  0.0606 -0.0376 -0.1236
11963W        W28811   1.824  15.522  13.820 -0.3049  0.0740  0.3437
11964W        W28812  15.118  14.512  13.882 -0.0718 -0.2559 -0.1469
11965W        W28813   2.780   4.037   5.876  0.0021  0.0893 -0.0973
11966W        W28814   1.921   6.440  15.148  0.2097 -0.1322  0.2051
11967W        W28815   0.192  10.110  13.715 -0.0283  0.0926  0.0205
11968W        W28816   3.880   5.411   3.096  0.1449  0.1622  0.2992
11969W        W28817   8.727  18.190   0.170 -0.0352 -0.1804 -0.3200
11970W        W28818   0.623  16.444   2.582 -0.3862 -0.2273  0.1699
11971W        W28819  12.534  15.186   4.164 -0.1247 -0.0831  0.1596
11972W        W28820   3.038   1.706  14.659 -0.1731  0.1390 -0.0667
11973W        W28821   7.021  16.293   3.280 -0.0543  0.0377 -0.0170
11974W        W28822   0.255   2.932  14.818  0.0559  0.0589 -0.1688
11975W        W28823  17.640  11.270   0.257  0.2857  0.0214  0.0046
11976W        W28824  12.690   8.015  11.358  0.1413 -0.0277 -0.1519
11977W        W28825  13.302   3.244  14.526  0.2669  0.1039 -0.1895
11978W        W28826   1.328   7.202  10.492 -0.0509  0.2198  0.0804
11979W        W28827  11.806   4.131   2.250 -0.0585  0.0405 -0.0387
11980W        W28828  14.998   1.972  14.871 -0.2657  0.2403  0.2298
11981W        W28829  12.180  10.343   3.577  0.2698  0.1480  0.1434
11982W        W28830   0.724  16.079   4.139 -0.2651 -0.0858  0.0942
11983W        W28831  11.627  16.849   3.143  0.2001 -0.0511 -0.1577
11984W        W28832   5.831  16.672   2.814  0.1038 -0.4418 -0.0603
11985W        W28833   8.828   8.743   3.429  0.0307  0.1220  0.0498
11986W        W28834  16.044  14.868  13.101  0.0936  0.1278 -0.4141
11987W        W28835  12.065  18.120  15.256 -0.0525  0.0301 -0.1077
11988W        W28836  16.209  10.185  14.534  0.1815 -0.0673 -0.2498
11989W        W28837  14.663   7.787   1.611  0.0314 -0.1207  0.0391
11990W        W28838  13.719   3.781  15.151 -0.1760  0.2441 -0.1093
11991W        W28839   7.453  17.071  11.200  0.3042  0.2112  0.0697
11992W        W28840  13.172   6.896  15.853 -0.3291 -0.1182 -0.0534
11993W        W28841   1.930   5.643  10.906 -0.1539  0.0518  0.3999
11994W        W28842   4.046  12.531   5.366  0.0910  0.3453 -0.0146
11995W        W28843   3.773  11.075  14.051 -0.0140 -0.0013  0.1493
11996W        W28844   4.354   1.771   0.380  0.0872  0.0872  0.0199
11997W        W28845  15.376   2.125  15.896 -0.0561  0.0530 -0.2027
11998W        W28846  16.939  18.079  15.063 -0.0967 -0.0845  0.1674
11999W        W28847  13.855   5.032   4.685  0.1447 -0.1500 -0.0336
12000W        W28848  18.073   3.333   1.619  0.0409 -0.0416  0.3364
12001W        W28849   4.309   1.194   2.894  0.1652  0.1628 -0.1136
12002W        W28850  17.080   4.617   3.643  0.0396  0.0373  0.0763
12003W        W28851  11.830   2.621   4.109  0.2353  0.2773 -0.0306
12004W        W28852   8.572  16.333  13.692 -0.0423  0.1571  0.0172
12005W        W28853  10.275  13.029  15.053  0.0777 -0.0488 -0.0920
12006W        W28854  10.239   1.025   3.746 -0.0227 -0.1621  0.1748
12007W        W28855  17.208   5.845   5.870 -0.0212 -0.0728  0.0745
12008W        W28856  10.907   6.146   2.416 -0.1358  0.1383  0.0468
12009W        W28857  10.875  12.802   2.328  0.5611 -0.0998  0.3006
12010W        W28858  15.620   1.129   0.641 -0.1713  0.2259  0.0027
12011W        W28859   3.012   0.890   4.143 -0.3477 -0.2730  0.0182
12012W        W28860  12.512   5.619  14.108 -0.0511 -0.0667  0.2410
12013W        W28861  14.792   9.639  14.460  0.1317 -0.0805  0.0516
12014W        W28862  17.637  12.438   1.218 -0.0283 -0.0461  0.1259
12015W        W28863  16.916  12.200   2.411  0.1175  0.0184  0.1196
12016W        W28864   8.308  11.680   1.926  0.3623  0.0780  0.2302
12017W        W28865   2.617  11.953   1.574 -0.0294 -0.1849 -0.0006
12018W        W28866  14.447  12.486   3.371  0.0049 -0.0501  0.1361
12019W        W28867   4.703   8.011  15.014  0.1480 -0.0710 -0.3407
12020W        W28868   5.292   4.383   4.332  0.2780  0.0776  0.0440
12021W        W28869  11.634   7.129   5.014 -0.1041 -0.0596 -0.1199
12022W        W28870   4.604  15.503   1.151  0.0470 -0.2796  0.0450
12023W        W28871  15.630  10.283   0.038 -0.1062 -0.0506 -0.1215
12024W        W28872   1.569  13.401  13.055  0.1424 -0.1916 -0.0585
12025W        W28873   4.725   4.879  14.041  0.3776  0.0991 -0.0595
12026W        W28874   1.520   5.868  11.620 -0.1984  0.2164  0.0563
12027W        W28875   5.482   8.699  15.680  0.0605  0.0444 -0.1899
12028W        W28876   9.238  14.610   4.973  0.0142 -0.0073 -0.1221
12029W        W28877   3.380  13.782  13.583 -0.1316  0.0075 -0.2017
12030W        W28878  15.906   6.440  11.757  0.2548  0.2677  0.1022
12031W        W28879   8.616  15.716   4.422 -0.0087 -0.0265  0.1038
12032W        W28880  17.670   2.797  11.922  0.1789  0.0172  0.5080
12033W        W28881  12.732  12.307  14.604 -0.1587  0.2621 -0.2655
12034W        W28882   9.474   0.366   4.766 -0.0948 -0.4823  0.1018
12035W        W28883   8.895   2.187   0.789  0.0724  0.1059 -0.2379
12036W        W28884   0.534  10.145  10.232  0.2139 -0.0297  0.0461
12037W        W28885  12.633  15.064   3.131 -0.1027 -0.1588 -0.1368
12038W        W28886   3.145   3.968  10.665  0.0392 -0.3232  0.2404
12039W        W28887  11.059  10.987   2.594  0.1430  0.0436  0.1087
12040W        W28888   8.817  17.441  14.123 -0.2199  0.2069  0.1288
12041W        W28889  10.590   5.034   1.091  0.3052  0.6676  0.3772
12042W        W28890   1.091   0.379   3.275  0.3280 -0.0342  0.3704
12043W        W28891  13.053  14.798   1.028  0.0131  0.3608  0.2058
12044W        W28892   5.860  17.122  12.237 -0.1350  0.2863 -0.0085
12045W        W28893   2.241   7.473   1.703  0.0112  0.0042  0.3588
12046W        W28894  15.521  11.904  12.547  0.4464  0.2227 -0.0478
12047W        W28895   4.447  14.666   1.334 -0.0798  0.3963  0.2162
12048W        W28896   6.365   8.704  14.660  0.0103 -0.0942  0.2449
12049W        W28897   7.896  15.089  13.870 -0.0480  0.0862 -0.0106
12050W        W28898  10.318   5.374  14.042 -0.0978  0.0200 -0.2472
12051W        W28899   9.160   9.152   2.137 -0.3878 -0.1125 -0.2078
12052W        W28900  11.254   9.756   2.996 -0.3785  0.1750 -0.0418
12053W        W28901  11.304  15.235   2.924 -0.0898  0.1634  0.3125
12054W        W28902  10.160  15.727   1.124 -0.1012 -0.0470 -0.0273
12055W        W28903   8.785   4.413   0.104 -0.1261  0.4424  0.3080
12056W        W28904   1.574   1.894   1.326 -0.3888 -0.2678 -0.0646
12057W        W28905  16.542  16.503   3.528 -0.1312 -0.1690  0.0149
12058W        W28906  13.076   9.559   3.899 -0.0462  0.0261  0.1574
12059W        W28907  15.689   3.782   0.888  0.1490  0.2029 -0.1236
12060W        W28908   3.288  13.502   1.022  0.2938 -0.2050  0.0735
12061W        W28909  14.423  15.039   1.080 -0.0146  0.1028 -0.2739
12062W        W28910   2.106  16.844  10.269 -0.2233  0.4144  0.1761
12063W        W28911   0.864   2.824  12.750 -0.0596 -0.0317  0.0675
12064W        W28912   7.135  17.486  15.945 -0.0325 -0.2061 -0.0091
12065W        W28913  12.757   6.266  14.712  0.0506  0.0249  0.4266
12066W        W28914   2.540   9.984   5.271  0.1017 -0.1170  0.0276
12067W        W28915  16.180  11.698   2.687  0.3340 -0.0226 -0.2235
12068W        W28916   4.317  13.584  14.967  0.0818 -0.0412 -0.1430
12069W        W28917  14.891  16.469   1.145  0.2868 -0.2625 -0.0794
12070W        W28918   6.029  16.241   2.012  0.0232 -0.0274  0.2714
12071W        W28919  14.404  11.020   0.050 -0.2705  0.0834 -0.0741
12072W        W28920  15.732  14.395   3.230  0.1637  0.2993 -0.2012
12073W        W28921  15.362  12.049   2.291  0.2001 -0.1078  0.2527
12074W        W28922  12.365  15.801  13.122  0.1091 -0.3233 -0.0517
12075W        W28923   3.440  15.711   5.118 -0.1522 -0.1451 -0.1730
12076W        W28924  17.325  14.380  11.864 -0.0789  0.0990 -0.2127
12077W        W28925   2.531   9.813   2.077 -0.0006  0.0988  0.1537
12078W        W28926   9.384  17.016  14.330 -0.0953  0.0364 -0.2971
12079W        W28927  14.949   5.590   2.046 -0.4255  0.1069  0.0758
12080W        W28928  13.892  16.543  11.458  0.3067 -0.1135  0.0149
12081W        W28929  10.959  14.293  12.587 -0.2061  0.1747  0.1051
12082W        W28930  14.934  11.296   2.617 -0.1362  0.3135 -0.3742
12083W        W28931  17.652   5.699  11.279 -0.1810 -0.2708  0.0585
12084W        W28932   3.821  12.664  10.940  0.1154 -0.1244 -0.2935
12085W        W28933  15.269  17.314  12.054 -0.0893 -0.0389 -0.4498
12086W        W28934   6.926   3.354  12.506  0.0373  0.0377 -0.2622
12087W        W28935  11.206   5.812  12.393 -0.2239 -0.0982  0.2042
12088W        W28936   4.448   9.677   4.275  0.2122  0.0435 -0.0774
12089W        W28937   0.848  17.802  14.305  0.1361 -0.0467 -0.2011
12090W        W28938  16.631   6.535   5.408 -0.0149 -0.1953 -0.0705
12091W        W28939  10.903  10.290  13.587 -0.0952 -0.2114 -0.3116
12092W        W28940  16.620  14.962   4.544  0.2058  0.1426  0.0921
12093W        W28941   6.211  15.845   1.804  0.2167  0.0381 -0.0208
12094W        W28942   1.941   1.514  13.195 -0.0514  0.4652 -0.1309
12095W        W28943  15.691   2.837  13.573 -0.0002  0.0464  0.0025
12096W        W28944  17.002  10.140   4.347  0.0291  0.0497  0.4639
12097W        W28945  15.900   9.368  15.576  0.1152 -0.1417 -0.3348
12098W        W28946   0.720  12.966  14.147  0.0464  0.0755  0.1442
12099W        W28947  12.344  13.756   0.219  0.2044  0.3156 -0.1599
12100W        W28948   3.467  10.634   1.045 -0.1292 -0.1256  0.0752
12101W        W28949   6.124   4.222  12.232 -0.1982  0.0003 -0.1700
12102W        W28950  14.012  13.145  13.333  0.1154 -0.0290  0.1189
12103W        W28951   9.555   8.825  15.247  0.0266  0.0372 -0.2238
12104W        W28952  17.690  16.833  12.890 -0.1739 -0.0105  0.0275
12105W        W28953   9.403  10.530  11.379  0.2627 -0.0962  0.0724
12106W        W28954   8.829   5.810  11.871  0.3225  0.2321  0.1474
12107W        W28955  17.812   6.707   5.854 -0.0521  0.1597  0.1513
12108W        W28956   5.465  15.761  12.626 -0.1721  0.1608  0.1800
12109W        W28957  18.158  11.824  13.374 -0.0962 -0.0880  0.0937
12110W        W28958   7.899  11.416   3.362 -0.2399 -0.0794 -0.3294
12111W        W28959  13.829  13.414  11.735  0.1143  0.0030 -0.1260
12112W        W28960   6.030   8.987   3.765  0.3820 -0.0394 -0.1332
12113W        W28961   7.178   9.252  13.085 -0.3700  0.0623 -0.1133
12114W        W28962  12.612   7.234   1.546 -0.0657  0.1221 -0.0783
12115W        W28963  10.119  11.371  12.179 -0.2585  0.0423 -0.2109
12116W        W28964  12.302   5.612   0.637  0.2125  0.0261 -0.4645
12117W        W28965   8.742   5.701  10.598  0.0892  0.0913 -0.1680
12118W        W28966   1.496  13.279   3.593  0.2251  0.1968  0.3745
12119W        W28967   4.705   3.620   1.362 -0.1998  0.1891 -0.0055
12120W        W28968   9.927   8.661  14.943 -0.1544  0.0763  0.2298
12121W        W28969   7.773  17.613   2.517 -0.1884 -0.0570 -0.0485
12122W        W28970   7.361   3.607   4.239 -0.3052 -0.0873  0.1092
12123W        W28971   7.758  11.525  11.349  0.0283 -0.0332  0.2912
12124W        W28972   8.227  17.382   2.464  0.1278 -0.0641 -0.1599
12125W        W28973   9.629   6.015   2.299 -0.2433  0.0315 -0.2185
12126W        W28974  10.577  14.111   3.225 -0.2370  0.1246 -0.0158
12127W        W28975  10.632   1.103   4.086  0.0038 -0.0225 -0.1660
12128W        W28976   4.861  17.484  15.851  0.0304 -0.4568  0.3559
12129W        W28977  11.740   8.350   3.289  0.0587  0.0180  0.2346
12130W        W28978   3.521  16.969  13.160 -0.1825 -0.0519 -0.3564
12131W        W28979  14.616  10.434  13.704 -0.0532  0.0896 -0.1277
12132W        W28980  12.431  16.810   2.127  0.1797  0.0972  0.2568
12133W        W28981   1.731   5.903   1.208  0.2829 -0.1760  0.2498
12134W        W28982   2.360   0.269   3.378  0.2574 -0.0549  0.1436
12135W        W28983   8.177   1.693   3.538  0.1416  0.2771 -0.0065
12136W        W28984  12.947  13.240   1.421  0.2445 -0.0016 -0.0010
12137W        W28985  15.095   7.400  10.907  0.0022  0.1601  0.0839
12138W        W28986  14.128   0.789  13.697 -0.1604  0.0048 -0.1470
12139W        W28987   9.399   2.933   0.554 -0.0519 -0.1814 -0.1437
12140W        W28988   3.726   2.455   2.340 -0.0994  0.1209  0.0573
12141W        W28989   9.136  10.947  11.264  0.0528 -0.0130  0.2200
12142W        W28990  14.569   4.804  11.561  0.2100 -0.1789  0.1589
12143W        W28991  17.510   2.469   2.578 -0.1562  0.1746 -0.1788
12144W        W28992  10.274   7.172  12.287 -0.2795 -0.2112 -0.3357
12145W        W28993   3.128  16.508  11.900  0.2482  0.1511 -0.4019
12146W        W28994   3.429  12.631  11.289  0.0885  0.1380 -0.0748
12147W        W28995  14.961  13.944   0.269  0.2344  0.0112 -0.0668
12148W        W28996   2.068   9.853   1.472 -0.1620  0.0817  0.0410
12149W        W28997  17.329   3.707  12.070 -0.2228 -0.3865  0.2620
12150W        W28998  16.177  14.460  15.797  0.0537  0.1563 -0.0425
12151W        W28999   4.300   3.841   0.725  0.0726 -0.0489 -0.1360
12152W        W29000  10.554   2.608   1.557 -0.0856  0.0012 -0.2335
12153W        W29001  16.566  12.008   0.772  0.0114 -0.4008  0.0196
12154W        W29002   5.611   5.144   5.421 -0.0516  0.0995  0.1316
12155W        W29003   0.119   3.132  13.980 -0.0975  0.1135  0.2090
12156W        W29004   0.468   0.505  13.842 -0.1456  0.0890  0.1425
12157W        W29005  14.283   7.436   1.424  0.0759 -0.1347 -0.3653
12158W        W29006  14.352   1.013   3.192 -0.0110 -0.2126  0.1624
12159W        W29007   9.252   7.973   4.379  0.1864 -0.0692  0.0128
12160W        W29008   7.641   4.439  15.842  0.2632 -0.3911  0.0923
12161W        W29009   2.447   2.264  11.121  0.3450  0.2286 -0.0909
12162W        W29010  11.164   1.413  11.594  0.1386 -0.0780 -0.0848
12163W        W29011   1.942  11.607   4.524  0.1306 -0.4238  0.0055
12164W        W29012   3.092   3.755  15.588 -0.1626 -0.1543  0.2963
12165W        W29013  17.977   7.454   2.270  0.0125 -0.1516 -0.0593
12166W        W29014  10.955   8.804   3.767  0.2879 -0.2203 -0.0303
12167W        W29015   5.467   3.305   4.105  0.2937  0.2914  0.1971
12168W        W29016   4.767  10.094   1.606  0.0841  0.0275 -0.2471
12169W        W29017  15.162   7.892  11.623  0.1620 -0.0494  0.1475
12170W        W29018   1.592   5.654  13.101  0.0411  0.1687  0.3537
12171W        W29019  12.517  14.577   1.948  0.1536  0.0032 -0.3694
12172W        W29020   1.969  15.940   1.933  0.2747  0.1453 -0.1272
12173W        W29021  10.025   1.652  14.825 -0.0579  0.0565 -0.0556
12174W        W29022   8.703   8.987   1.975  0.0459 -0.1641 -0.1456
12175W        W29023   0.028  10.659   3.869  0.2816  0.1148 -0.2393
12176W        W29024  12.428   2.419   3.065 -0.2464  0.0948 -0.0012
12177W        W29025  15.521  14.307  12.581  0.0005 -0.0435  0.3110
12178W        W29026   3.758   4.697   5.002  0.3335 -0.2230  0.3529
12179W        W29027   0.117   3.859   3.403 -0.0646  0.1851  0.2349
12180W        W29028  16.071  16.042   0.632 -0.0541 -0.0137  0.1130
12181W        W29029   4.724   9.026   4.189  0.1294 -0.0151 -0.2760
12182W        W29030  11.040   5.204   5.349  0.0318 -0.2971 -0.2489
12183W        W29031  12.867   3.550  14.370 -0.2124  0.1718 -0.1880
12184W        W29032  11.499   2.224   4.106 -0.3631  0.2780 -0.0018
12185W        W29033  13.000   6.032   5.029 -0.2468  0.1593  0.1906
12186W        W29034   6.645   4.709   5.474  0.3032  0.3333  0.1572
12187W        W29035  14.857   8.761  13.263 -0.0093  0.2251 -0.2517
12188W        W29036   3.121  16.345   2.811  0.1676 -0.3125  0.0839
12189W        W29037  18.071  12.398   1.451  0.0226 -0.0368 -0.2128
12190W        W29038   1.165  13.038   1.042 -0.4567  0.0814  0.0541
12191W        W29039   6.321  12.592   4.609 -0.1662  0.0962 -0.3000
12192W        W29040  15.658  17.398  13.963 -0.1533  0.1364 -0.0318
12193W        W29041  13.412  11.863   0.209  0.1359 -0.0354 -0.0374
12194W        W29042   9.043  14.324   1.325 -0.1215 -0.0137  0.0230
12195W        W29043   4.742  13.137  14.450 -0.3609 -0.1071 -0.2231
12196W        W29044   0.240   3.479   0.625 -0.5244 -0.1077  0.2944
12197W        W29045  15.071  16.476   0.492 -0.0238  0.0750 -0.0262
12198W        W29046   9.631  11.684  14.140  0.0845 -0.0903 -0.2376
12199W        W29047  14.947  11.238  14.220  0.0080 -0.0030  0.0504
12200W        W29048   5.203   9.649  14.528 -0.3596  0.0729  0.1629
12201W        W29049   4.765  15.065   1.510  0.4624 -0.1750  0.5852
12202W        W29050   9.583  11.387  11.932 -0.0483  0.0050  0.2265
12203W        W29051  17.869  14.270   2.203 -0.1057  0.0462 -0.1427
12204W        W29052  14.863   5.048   2.085  0.3773  0.1499  0.0743
12205W        W29053  15.935   0.906  15.443 -0.1548  0.1661  0.2836
12206W        W29054  17.283   7.772   5.218 -0.2943 -0.0634 -0.1670
12207W        W29055   6.019   4.419   0.086 -0.2201  0.1314 -0.2232
12208W        W29056  11.480   2.184   3.243 -0.2567 -0.0056 -0.0825
12209W        W29057   0.444  18.192  15.437 -0.3850 -0.0437  0.1952
12210W        W29058  11.432  17.532  11.888 -0.0041  0.0362 -0.0223
12211W        W29059   6.513   1.835  13.503  0.0169 -0.1899  0.6596
12212W        W29060  17.615   8.477  14.089 -0.3121  0.1789  0.0044
12213W        W29061   5.660   7.800   2.926  0.2504  0.0106 -0.0008
12214W        W29062  14.860  17.803  14.831 -0.1010 -0.0842  0.1482
12215W        W29063   0.522   9.198   1.770  0.0705  0.0237  0.0640
12216W        W29064   6.114  10.423  10.544  0.1432 -0.1786  0.3858
12217W        W29065   3.959   7.303   1.883 -0.2022  0.2101  0.0827
12218W        W29066  17.544   3.730  15.913 -0.0401  0.4125  0.1988
12219W        W29067   2.233   7.428  15.409 -0.0767  0.2668  0.0775
12220W        W29068   0.977   7.692   4.300  0.2584  0.0690 -0.0925
12221W        W29069  13.555   3.872   3.141 -0.1413  0.3363 -0.0861
12222W        W29070   4.591  16.545  11.256  0.0116  0.2902  0.0584
12223W        W29071  11.233   9.316   1.221  0.1455 -0.1540 -0.1130
12224W        W29072   2.434  13.418   0.638  0.1821  0.1269 -0.2891
12225W        W29073  10.074  17.309   1.463  0.1466 -0.1752 -0.0782
12226W        W29074  14.938  17.935   1.704  0.1186  0.1956  0.0792
12227W        W29075   2.589  13.120  11.994  0.0021  0.3178  0.0508
12228W        W29076   8.771  11.026  12.256 -0.2005  0.0791 -0.0823
12229W        W29077  13.459  13.882   4.609 -0.2474  0.1753 -0.0937
12230W        W29078  12.298  15.070  12.337 -0.1597 -0.1682  0.0797
12231W        W29079   1.702  14.047  14.486 -0.0041  0.1930 -0.2269
12232W        W29080   7.533   7.869  12.288  0.2343  0.3543  0.1702
12233W        W29081  14.965  10.937  14.665 -0.1000  0.0586 -0.0755
12234W        W29082   7.541   0.082   0.814  0.2079  0.5359  0.2098
12235W        W29083   9.429   4.787   3.644  0.0605 -0.0081  0.0146
12236W        W29084  13.661   9.119  15.169 -0.0944 -0.2389  0.0086
12237W        W29085  16.712  13.496  12.164  0.2274 -0.4211  0.0453
12238W        W29086  17.806  12.323  13.366  0.0041 -0.0420  0.1632
12239W        W29087   8.231  10.736  13.190  0.0625  0.0243  0.1011
12240W        W29088  12.072  12.489  12.660  0.0876 -0.2126 -0.0727
12241W        W29089  16.705  15.333   4.910  0.2303 -0.2846 -0.2630
12242W        W29090  15.712   7.346  12.783 -0.0327 -0.2104  0.6939
12243W        W29091   9.876   8.399   1.335 -0.0604  0.0270 -0.0084
12244W        W29092   4.191   8.013   2.656 -0.1281 -0.0457 -0.3280
12245W        W29093   2.291  14.516   4.297 -0.2212 -0.0633  0.0229
12246W        W29094  11.705   6.909   3.663  0.0420  0.0522  0.0080
12247W        W29095  13.717  15.823  12.374 -0.1815 -0.2901  0.1320
12248W        W29096   1.775  16.724  15.867 -0.2292  0.0495  0.1238
12249W        W29097   9.116  18.012   0.501 -0.0784  0.0059  0.0745
12250W        W29098  16.242  12.978   3.983 -0.0763 -0.3132  0.0222
12251W        W29099  11.815   1.743   1.917 -0.0485  0.1584 -0.1946
12252W        W29100   5.110  15.050   1.802 -0.2158  0.2089  0.2580
12253W        W29101  15.720   1.891  13.781  0.2630 -0.1177  0.1552
12254W        W29102  16.730  12.857  13.676  0.0726 -0.1291 -0.0113
12255W        W29103  11.980   3.694   1.953  0.0595  0.0283 -0.3180
12256W        W29104   7.737   9.236  11.389  0.0946 -0.0659  0.1094
12257W        W29105  15.216   2.460   2.965 -0.5815 -0.0299  0.0450
12258W        W29106   9.050  18.057   2.623  0.0536  0.0794  0.2693
12259W        W29107  15.529   8.790  15.812 -0.3120 -0.0701  0.1105
12260W        W29108   0.776   2.105   4.081  0.1374 -0.1491  0.0095
12261W        W29109   0.194  12.268   2.803 -0.2166 -0.0876  0.1193
12262W        W29110   6.463  13.145  12.899  0.0966  0.0911  0.0572
12263W        W29111  15.975  12.214   2.274 -0.0289  0.2033  0.1284
12264W        W29112   0.120   8.248  11.610  0.1690  0.0726  0.1682
12265W        W29113  15.499  17.924   4.544 -0.5322 -0.2462 -0.6577
12266W        W29114  14.850   0.449   4.475  0.3109 -0.0595 -0.2051
12267W        W29115   9.297  10.181  14.053 -0.0433 -0.2419  0.1573
12268W        W29116  12.449  17.345   2.156  0.3102 -0.2490  0.1081
12269W        W29117   3.381   8.106  12.208  0.4000 -0.0085 -0.1341
12270W        W29118   8.816  14.819   3.655 -0.1476 -0.1430 -0.2595
12271W        W29119  14.377  16.523  15.711  0.0497  0.0197  0.1468
12272W        W29120   2.248  10.792   3.538  0.1385  0.1767  0.0397
12273W        W29121   6.400   7.782  12.147 -0.1052  0.0238  0.2105
12274W        W29122  13.976   4.973   1.582  0.0396  0.0808  0.1311
12275W        W29123   5.076   9.472   0.155 -0.2972 -0.1359  0.2142
12276W        W29124   7.497   6.609  13.268  0.1138  0.0276 -0.4365
12277W        W29125   5.232   2.760   2.731  0.1979  0.1603 -0.1165
12278W        W29126  11.939   9.065  12.685 -0.2109  0.0684  0.1954
12279W        W29127  10.932   6.029   0.514 -0.0285  0.0304  0.1913
12280W        W29128  17.163   1.270   4.172 -0.3535  0.0569 -0.1467
12281W        W29129   1.467  12.277   4.934 -0.2146 -0.2215  0.0080
12282W        W29130  15.517   6.248  12.008 -0.0024  0.1219 -0.0229
12283W        W29131  13.293  16.793   4.704  0.0366 -0.1622  0.3778
12284W        W29132   3.783   4.391  13.171 -0.0751  0.1679  0.1694
12285W        W29133   8.698   7.987   5.241 -0.1026 -0.3266  0.0507
12286W        W29134  10.285   5.813   1.233  0.1485  0.0550  0.0687
12287W        W29135  14.545  15.144  16.060 -0.1387  0.0024 -0.1710
12288W        W29136   7.811  12.979   4.067 -0.2147  0.2313 -0.3359
12289W        W29137  17.206   4.068   0.007  0.0591  0.1376  0.1581
12290W        W29138  10.380  11.759   4.329  0.0357 -0.0545 -0.0481
12291W        W29139   5.255   6.757  15.294  0.1950  0.1369  0.2574
12292W        W29140   6.705  11.300  14.223 -0.1583 -0.0921  0.1898
12293W        W29141   2.215   8.489   2.752  0.0403 -0.0213 -0.1295
12294W        W29142  13.353   1.453   0.949 -0.1106  0.3118  0.1766
12295W        W29143   0.521  16.981   3.432 -0.1645 -0.0545 -0.1529
12296W        W29144   2.611   8.656  14.782  0.2749  0.0340 -0.0629
12297W        W29145   5.576   7.150  15.470  0.4402  0.1485 -0.1768
12298W        W29146  10.337  15.609  10.911  0.1062  0.0610  0.0030
12299W        W29147   6.458   1.939   1.093 -0.4233  0.4366 -0.1079
12300W        W29148  14.959  12.309  10.387  0.1046 -0.2484 -0.0968
12301W        W29149  16.551   2.895   9.972 -0.0890 -0.0051  0.0285
12302W        W29150   2.489   2.666   0.094  0.1671 -0.1284 -0.1888
12303W        W29151   8.948   5.005   4.452  0.2141  0.0268  0.3149
12304W        W29152  15.165   0.909   0.633  0.1465  0.1819 -0.0979
12305W        W29153  16.491   5.018  12.081  0.1044 -0.0731  0.0268
12306W        W29154   1.468   1.400   5.064 -0.0904  0.0303  0.1385
12307W        W29155   1.781   3.732   4.156  0.0251  0.0605 -0.1650
12308W        W29156   0.013  10.267  11.272  0.0961 -0.2799  0.1065
12309W        W29157   2.031   8.298   1.622  0.0244 -0.2685 -0.3027
12310W        W29158  12.063  11.352   4.823 -0.2637 -0.0372  0.0120
12311W        W29159   1.230  15.652   2.877  0.1815  0.1222  0.0594
12312W        W29160   5.724  10.873  14.409  0.2876  0.3995  0.2900
12313W        W29161   2.360  11.303  10.752  0.0123 -0.0619 -0.0310
12314W        W29162   3.308   2.909   5.869 -0.3499 -0.2004  0.4384
12315W        W29163   1.033   5.517  11.094  0.1950 -0.1767 -0.3433
12316W        W29164   7.836  10.035  13.832 -0.1223  0.0040  0.0595
12317W        W29165  13.673  12.959  10.994 -0.1270  0.1693  0.1109
12318W        W29166  14.731   1.406   4.430 -0.4568  0.1835 -0.0195
12319W        W29167   9.597   8.412  14.041 -0.1484  0.1405  0.1735
12320W        W29168  10.123  10.127  12.335  0.0879 -0.0732 -0.0323
12321W        W29169  12.116   9.690  12.229 -0.0370 -0.3099  0.1574
12322W        W29170  17.155   5.380   0.556 -0.2700  0.1255  0.1453
12323W        W29171  14.403  18.039  14.711  0.2054  0.2346 -0.0389
12324W        W29172   4.866   5.745   3.784  0.0943  0.1398  0.0137
12325W        W29173  10.126  16.196   4.940 -0.0054 -0.1533 -0.1565
12326W        W29174   4.227   7.872  13.373 -0.3733  0.0506  0.0376
12327W        W29175  11.950  14.518  13.325  0.1903 -0.2116  0.0850
12328W        W29176   7.475  15.770  11.438  0.1638  0.0636 -0.2404
12329W        W29177  10.596  18.176  14.147  0.3912 -0.1439  0.1668
12330W        W29178  14.434  14.845   2.680 -0.1108 -0.1498  0.2659
12331W        W29179  17.138   2.174  15.661  0.1799  0.1399  0.0378
12332W        W29180   0.300  14.135  13.796 -0.1629  0.2454 -0.0514
12333W        W29181   3.569   6.621  13.762  0.2531 -0.1599 -0.0438
12334W        W29182  17.447  10.680  13.600 -0.1121  0.1387  0.0611
12335W        W29183  13.724  15.673  11.807 -0.0021 -0.1626  0.2200
12336W        W29184  16.840   5.391   2.912 -0.5513  0.0071  0.1185
12337W        W29185   1.655  14.399  10.896 -0.0876  0.4714 -0.2208
12338W        W29186   4.587  16.430  14.648  0.3164  0.5137 -0.0426
12339W        W29187  14.303   9.005   2.163  0.1845 -0.2003 -0.2516
12340W        W29188  17.682   4.580  13.510 -0.0794 -0.2280  0.2627
12341W        W29189  10.689  12.996  15.383 -0.2776  0.0224  0.2399
12342W        W29190  10.026   7.098  15.466 -0.4264  0.1157  0.4082
12343W        W29191   8.082  15.640   0.430  0.0118 -0.0271  0.1027
12344W        W29192  12.714   1.358  11.701  0.0686  0.0406 -0.2348
12345W        W29193   7.711   0.923  12.354  0.0233  0.2303  0.0094
12346W        W29194  15.949   5.002  13.111 -0.0058 -0.0208 -0.0830
12347W        W29195   5.184   9.542   3.778 -0.3242  0.0085  0.0333
12348W        W29196   5.573   5.905  15.364  0.1636 -0.2093 -0.0381
12349W        W29197   3.811  14.278   2.279 -0.0422  0.0479  0.1739
12350W        W29198   5.089  13.868   0.953 -0.2007  0.1601  0.2846
12351W        W29199   0.073   5.356  13.515  0.0410  0.0096 -0.0768
12352W        W29200  15.037   0.615  15.994 -0.3047 -0.0618 -0.0721
12353W        W29201   0.436  17.233   5.232  0.4107 -0.2441  0.0019
12354W        W29202   2.797  16.829   2.396 -0.0704 -0.0815 -0.1421
12355W        W29203   2.523  12.406  11.598  0.1862  0.0635 -0.0949
12356W        W29204   3.483   9.295  11.844 -0.1049  0.0785  0.0177
12357W        W29205  17.376   0.709  12.223  0.1120 -0.1001 -0.2108
12358W        W29206   3.306   3.261  15.466 -0.2760 -0.0810  0.5400
12359W        W29207  12.237   8.878  10.930  0.0041  0.0879 -0.0357
12360W        W29208   1.148   5.074  12.754  0.0700 -0.2500 -0.1565
12361W        W29209  14.018  17.037  11.540  0.0129  0.2012 -0.0715
12362W        W29210   7.967   0.382  13.595  0.1582  0.1571 -0.0935
12363W        W29211   4.897   1.267   4.143 -0.1460  0.1609  0.1738
12364W        W29212   1.714   2.768  14.235  0.0088  0.1218 -0.0984
12365W        W29213   7.278   6.991   1.411  0.1433  0.2009 -0.2078
12366W        W29214  15.856  17.852   0.123  0.0807 -0.1921  0.3956
12367W        W29215   3.060  11.641   3.450  0.0316 -0.4941  0.1329
12368W        W29216   9.130  17.635   4.388 -0.2304  0.1098  0.2223
12369W        W29217  12.237   1.459  11.671 -0.1322  0.2877  0.0455
12370W        W29218  13.795   9.266  13.982  0.0067 -0.1361  0.1638
12371W        W29219  12.744  16.233   2.335  0.1236 -0.3050 -0.0822
12372W        W29220   9.089   6.335   4.512  0.2520 -0.0047  0.0699
12373W        W29221   6.171   6.269  12.867 -0.1770  0.0378 -0.4126
12374W        W29222   6.314   6.688  16.119  0.0551 -0.0543  0.0668
12375W        W29223   6.989  11.352  12.334  0.0456 -0.0039  0.0400
12376W        W29224   4.071   2.796  14.285  0.0879 -0.1131  0.0147
12377W        W29225   6.711  13.702   4.874  0.1000 -0.1460  0.1685
12378W        W29226   2.900   5.831  12.551  0.0666  0.1767 -0.0745
12379W        W29227  16.145  10.658   1.363  0.3629 -0.3307 -0.2604
12380W        W29228  15.061  12.674  15.994  0.1233  0.1567  0.1757
12381W        W29229  15.845   8.458  15.571 -0.0957 -0.0019  0.0723
12382W        W29230   8.977   0.376   0.913  0.2930  0.0763  0.0340
12383W        W29231   5.293   0.068  13.884 -0.1017 -0.0048  0.1949
12384W        W29232   1.091   7.644   1.391 -0.1176 -0.0535  0.4835
12385W        W29233  15.688   5.692   2.426 -0.0231  0.1914  0.2328
12386W        W29234  13.722   0.576  12.329  0.0987 -0.3147  0.1272
12387W        W29235   4.267  16.490   4.773  0.5197  0.2724  0.0819
12388W        W29236  11.854   5.004   4.104  0.0370  0.1587  0.2184
12389W        W29237   9.469  13.701  13.112 -0.2663  0.0225  0.1704
12390W        W29238   6.570   9.350  10.471 -0.0370 -0.0180 -0.0639
12391W        W29239  11.487  17.762   0.328 -0.2402 -0.0204 -0.6447
12392W        W29240  11.769  13.314  14.708  0.1128  0.3806  0.1025
12393W        W29241   3.974   4.023  15.597 -0.1018  0.2240  0.0826
12394W        W29242   7.553  11.220   0.190 -0.1532 -0.2784 -0.0395
12395W        W29243   9.245  10.256  10.525 -0.1799  0.1343  0.3188
12396W        W29244   3.306  12.912  16.052 -0.0013  0.0151  0.0675
12397W        W29245   3.031  17.579   5.008  0.2333 -0.0698 -0.2818
12398W        W29246   7.541  18.017   0.321 -0.0220  0.0560  0.0278
12399W        W29247   3.593   5.597   2.729  0.0433  0.0613  0.0040
12400W        W29248  16.628  10.701  15.713  0.2408 -0.1989 -0.1710
12401W        W29249   7.699  11.821  14.568 -0.0889  0.0820 -0.2139
12402W        W29250   7.573   4.912  13.699 -0.1705 -0.0833 -0.3124
12403W        W29251  10.796   1.414   1.810 -0.3056 -0.3351  0.0719
12404W        W29252   4.923   3.197   4.958 -0.1365 -0.0683  0.1456
12405W        W29253  10.293  12.323  12.903 -0.2241  0.1668 -0.1229
12406W        W29254   8.691   7.989   4.322 -0.1909 -0.0959  0.1850
12407W        W29255   8.039   0.564   4.264 -0.2031 -0.0898 -0.2303
12408W        W29256   1.510  17.155  14.939 -0.3170 -0.1066  0.0308
12409W        W29257   6.194   1.372   2.796  0.0116  0.0072 -0.1423
12410W        W29258   3.815   7.569   4.755  0.0878  0.2595 -0.2538
12411W        W29259   7.532   3.973   3.331  0.1230  0.3029  0.0226
12412W        W29260   6.274   3.698  14.793 -0.2026  0.2947 -0.0725
12413W        W29261   2.060   0.139   2.973  0.2003 -0.2158 -0.0810
12414W        W29262   9.045   1.067   1.402  0.0428 -0.1232 -0.0811
12415W        W29263  16.687   6.591   4.534 -0.1637 -0.1328 -0.0132
12416W        W29264  16.673  15.686   0.522  0.2020 -0.0284  0.2516
12417W        W29265   6.571   8.760  13.315 -0.1139 -0.0634  0.1294
12418W        W29266  14.160  14.276  11.086  0.1455  0.0219 -0.2030
12419W        W29267   2.273  11.131   2.665  0.0594  0.5132  0.0240
12420W        W29268   5.165  13.308  11.843 -0.1424 -0.0713  0.0070
12421W        W29269  16.366   3.783  12.462 -0.0045  0.0691  0.2234
12422W        W29270   9.607   9.139   2.952 -0.1241  0.0708 -0.1293
12423W        W29271   5.730   4.458  14.712  0.0580 -0.0817  0.3627
12424W        W29272   6.634   1.703  13.952  0.4216 -0.2177 -0.1017
12425W        W29273   6.334   4.291   0.667 -0.1523 -0.0729 -0.2499
12426W        W29274   8.738   0.196   4.048 -0.0598  0.1810 -0.1043
12427W        W29275   6.209   6.630   4.757  0.2466 -0.1053 -0.0666
12428W        W29276  14.439   0.479  15.749 -0.1061 -0.0952 -0.2026
12429W        W29277   4.768   5.464  12.516 -0.2359 -0.0459  0.0280
12430W        W29278   8.295  10.905  12.325  0.0128 -0.0288 -0.2791
12431W        W29279   3.885   8.963   2.476 -0.1364  0.1187 -0.2480
12432W        W29280  11.330   3.925  12.503  0.0427  0.1621  0.1784
12433W        W29281  14.049   5.645   1.778  0.1447  0.1078  0.2741
12434W        W29282   3.872  12.943  15.011 -0.2679  0.2974  0.3586
12435W        W29283   6.735   7.715   5.082 -0.0439  0.1490  0.1210
12436W        W29284   1.603   6.115   2.811  0.0568  0.4561 -0.0306
12437W        W29285   2.414   4.359  11.230  0.1670  0.2190  0.1949
12438W        W29286  12.917  11.638  16.072  0.0765 -0.1802  0.0318
12439W        W29287  11.859  17.647  15.997  0.0631 -0.2104  0.1380
12440W        W29288   8.772  14.087   2.242 -0.0720  0.1318  0.3898
12441W        W29289   3.193   4.022  11.552 -0.2010  0.0483 -0.2220
12442W        W29290   6.196  11.519   3.138  0.0366 -0.2826 -0.0490
12443W        W29291  12.909   4.587  14.754 -0.2453 -0.3670  0.0498
12444W        W29292  14.704   6.882  15.068 -0.3389  0.0971  0.0086
12445W        W29293  14.362   1.260   0.798  0.0019 -0.1674  0.2644
12446W        W29294  12.057   5.931   4.483 -0.1638 -0.1198 -0.0193
12447W        W29295  17.088   0.576  11.759 -0.0073 -0.3136 -0.2276
12448W        W29296   4.512   5.712   3.307  0.1818 -0.0788 -0.1471
12449W        W29297   3.990  11.975  11.273  0.0448  0.0704  0.2290
12450W        W29298   4.987   4.151   1.323 -0.2309  0.2459 -0.0706
12451W        W29299  14.695  13.748  13.767 -0.1202  0.3381 -0.0776
12452W        W29300  13.246  11.629  13.837  0.0398 -0.1523 -0.2819
12453W        W29301   8.302  17.109  15.255  0.2433  0.2319 -0.0771
12454W        W29302   3.946   1.135  10.910  0.2974  0.4840  0.1986
12455W        W29303   8.475  11.450   0.324  0.0430 -0.0141  0.1911
12456W        W29304  14.813   7.600   5.797 -0.1506 -0.2191  0.1359
12457W        W29305   5.237  13.557   3.126 -0.0129  0.1900  0.2534
12458W        W29306  18.153  16.727  13.103 -0.1157  0.0137  0.0761
12459W        W29307   5.439   2.395  12.862 -0.2488  0.3124 -0.2316
12460W        W29308   1.038  14.747   0.583 -0.0152 -0.0073  0.2992
12461W        W29309   8.444  14.639   0.280  0.0682 -0.0353 -0.1276
12462W        W29310   8.810   9.802   3.924 -0.2145 -0.0669 -0.0793
12463W        W29311   4.328   8.140  13.769  0.3217 -0.3487  0.1776
12464W        W29312   3.493   9.375  13.622  0.1179  0.1408  0.3067
12465W        W29313   7.302   0.340  15.598  0.1043 -0.1121 -0.1933
12466W        W29314  12.441   2.949  14.611  0.1094 -0.2586 -0.1815
12467W        W29315  14.515   1.441  12.808  0.1127 -0.0122  0.1984
12468W        W29316   6.430   2.775  15.596 -0.1262 -0.0799 -0.3286
12469W        W29317  17.585  18.040  11.251  0.2745 -0.2263 -0.4006
12470W        W29318   6.087  17.939   4.803 -0.1711 -0.0916  0.0139
12471W        W29319   1.119   7.820   2.275 -0.2600 -0.0614  0.0129
12472W        W29320   2.328   0.249  13.797  0.3600  0.0451  0.1600
12473W        W29321   1.910  15.375  14.286 -0.0209 -0.0063 -0.1811
12474W        W29322  16.588   9.031  13.359  0.1969 -0.1362 -0.1766
12475W        W29323  12.331   5.179  12.925  0.3661  0.2125 -0.1207
12476W        W29324  12.976   0.333  15.517 -0.4373  0.2914 -0.1093
12477W        W29325   9.687   9.441  12.875 -0.1730 -0.0606  0.0251
12478W        W29326   1.312   8.697   4.892 -0.1752  0.0867  0.2321
12479W        W29327   0.064   4.548  14.564 -0.0449  0.2856  0.0962
12480W        W29328   4.457   2.871  11.736 -0.0709 -0.1873 -0.3347
12481W        W29329  17.883  13.833   3.582 -0.1250  0.0267  0.2500
12482W        W29330   3.775   5.127  12.101  0.0826 -0.1931 -0.2496
12483W        W29331  17.092  15.391  13.783  0.0133 -0.2602 -0.0495
12484W        W29332  16.806   8.506  10.505 -0.0533 -0.3284  0.2301
12485W        W29333  14.680  13.854   1.228 -0.1599 -0.0259 -0.1023
12486W        W29334   7.024   8.022  10.282 -0.2366 -0.0162  0.0409
12487W        W29335  13.818  17.400   1.575 -0.0062  0.0371 -0.3245
12488W        W29336  13.613   3.387   4.416  0.0948  0.0624 -0.1346
12489W        W29337  11.051   4.423   4.049  0.1621 -0.1463 -0.1783
12490W        W29338   2.466   7.180  12.565 -0.0855  0.1175  0.0388
12491W        W29339   8.530  12.257   4.286 -0.0852  0.2191 -0.1443
12492W        W29340  12.179  10.001  16.059  0.1078  0.0102  0.1926
12493W        W29341   8.447   7.133   3.297 -0.1089 -0.1943  0.2413
12494W        W29342   1.582   7.725  15.681  0.1028  0.1904 -0.1656
12495W        W29343   0.318   4.039   1.143  0.3291  0.0674  0.2114
12496W        W29344   7.737   0.856  14.263  0.1391  0.0184 -0.0808
12497W        W29345  17.784  10.665  11.248  0.1107  0.0026  0.0758
12498W        W29346  15.002  12.381  13.717 -0.1681  0.0675  0.2386
12499W        W29347  16.005   3.833   2.864  0.4267  0.1937 -0.1469
12500W        W29348   3.574  18.008   2.214 -0.0149 -0.1093  0.4958
12501W        W29349  14.842  10.624  12.025  0.1731 -0.1368  0.0987
12502W        W29350  10.014   4.522  14.165 -0.0769  0.1082 -0.0666
12503W        W29351   8.951  12.781   4.635 -0.3457 -0.1095  0.1880
12504W        W29352   6.807  16.467  15.060 -0.1194  0.1481 -0.0205
12505W        W29353  15.355   2.336   1.801  0.2442 -0.0281 -0.2775
12506W        W29354   5.061   8.278  13.634  0.2238  0.0084 -0.0117
12507W        W29355   8.190   7.734  11.436  0.1368 -0.0043 -0.0523
12508W        W29356  15.928   8.920  15.312  0.2804  0.1033  0.0381
12509W        W29357   2.818   5.959  15.209 -0.2016  0.2535 -0.0675
12510W        W29358   8.533   1.436  11.988  0.1268 -0.3043 -0.2961
12511W        W29359   8.882  12.700   6.193 -0.1249 -0.1332 -0.1479
12512W        W29360   9.876  17.826   4.987  0.0717  0.1928  0.3531
12513W        W29361   8.135   7.101   1.166 -0.2705 -0.0731  0.0858
12514W        W29362  14.366   1.761   2.377  0.1871  0.3580  0.2461
12515W        W29363  13.369   9.812  14.477  0.3227 -0.0632 -0.0269
12516W        W29364   3.873   8.414  11.652  0.0023 -0.1322 -0.0946
12517W        W29365   8.114   0.693  15.703 -0.2487 -0.2523  0.3112
12518W        W29366   5.945   6.268  14.893  0.2257  0.5874  0.0774
12519W        W29367  18.033  13.641  12.602  0.0425  0.2018 -0.1765
12520W        W29368  12.897  17.086  13.446  0.1495 -0.1488  0.1147
12521W        W29369  16.404  17.182  12.120 -0.1597 -0.0867 -0.1207
12522W        W29370  11.066  14.549  11.749  0.5420 -0.0409  0.2062
12523W        W29371  11.733   0.413  12.398 -0.2340 -0.1346  0.2150
12524W        W29372  17.135  10.533   5.637 -0.3008  0.0807 -0.2418
12525W        W29373   6.967   0.741   2.019  0.2209 -0.4027 -0.0786
12526W        W29374   8.212   2.156  10.133 -0.1749 -0.1277  0.0408
12527W        W29375   0.605   1.159   1.124 -0.0363 -0.1032 -0.1996
12528W        W29376   4.594   4.396   1.935  0.1285  0.0435  0.2165
12529W        W29377  10.683   5.954   5.412 -0.2439 -0.0084  0.1854
12530W        W29378   6.980   4.216   4.834 -0.0390 -0.1222 -0.0652
12531W        W29379   5.125  10.121   2.861  0.1152  0.0628  0.0348
12532W        W29380  12.382  16.246  11.569 -0.0577  0.0637 -0.1961
12533W        W29381   7.495   5.980   0.422  0.4247  0.0722  0.0922
12534W        W29382   9.604  13.986   4.180 -0.1295  0.1525 -0.0247
12535W        W29383  13.287  10.625  15.080 -0.1304  0.0675 -0.0388
12536W        W29384   8.652  12.525   3.125 -0.2793 -0.1120  0.0454
12537W        W29385  15.559   0.547   2.904  0.2036  0.1587  0.5177
12538W        W29386   6.099   5.074   4.709 -0.0542  0.1833 -0.1535
12539W        W29387   8.796  16.364   5.110  0.2106  0.0314  0.1028
12540W        W29388   2.540  14.402  11.452  0.0076  0.1830 -0.1130
12541W        W29389   4.748  12.630   3.832  0.0138  0.1033 -0.1623
12542W        W29390  17.848  18.171   1.128 -0.1508  0.2511 -0.1870
12543W        W29391  13.123  18.198  11.619 -0.0722 -0.1593 -0.2356
12544W        W29392   6.419  15.573   4.248  0.2044 -0.0023  0.1589
12545W        W29393   0.744   9.695  11.035 -0.4164  0.1495 -0.1014
12546W        W29394   7.902  11.164  13.222  0.1081  0.0616  0.0796
12547W        W29395   5.247   8.697  13.166 -0.2606  0.0308 -0.2559
12548W        W29396  17.828   4.397  11.731 -0.2781 -0.0105  0.2911
12549W        W29397   3.454  16.094   2.319  0.0490  0.2047 -0.0826
12550W        W29398   5.603   6.400   3.127  0.0721  0.0505  0.1340
12551W        W29399  15.297  15.411   0.643  0.2567 -0.2186  0.0299
12552W        W29400  11.139   2.591  12.422 -0.3839  0.1046  0.2146
12553W        W29401  10.451   6.640   0.093 -0.1600 -0.0516 -0.0134
12554W        W29402  16.891   5.898   4.115 -0.1667  0.1638  0.2127
12555W        W29403  14.245   8.286   0.502 -0.0461 -0.2411  0.1117
12556W        W29404   4.578   8.477   2.155 -0.3518 -0.0224  0.0908
12557W        W29405   2.629   9.532  15.360  0.0804 -0.1469  0.0063
12558W        W29406   6.965   3.089   4.146 -0.0514  0.1817 -0.1307
12559W        W29407   0.144  18.048  15.048 -0.1354 -0.0971  0.1371
12560W        W29408   1.594   9.082  13.650  0.3154  0.1495 -0.0427
12561W        W29409   3.235   0.761   4.761 -0.0012 -0.5232  0.0973
12562W        W29410   3.601   5.251   1.771 -0.2491 -0.0263  0.0810
12563W        W29411  14.250  16.822  14.368  0.0807 -0.2566 -0.0607
12564W        W29412  16.191  10.687  14.524 -0.1582 -0.1687  0.1122
12565W        W29413  18.041   1.853   1.167  0.0424 -0.1332  0.0037
12566W        W29414  10.063  15.854   2.878  0.1843  0.0629  0.0433
12567W        W29415   3.387  14.884  12.791  0.2215 -0.3399  0.4509
12568W        W29416  10.213   1.569   4.536  0.2896  0.0384  0.0536
12569W        W29417   3.475   8.415   0.791  0.3714 -0.0172 -0.2517
12570W        W29418  16.259   9.106  12.846 -0.0428  0.2303  0.0667
12571W        W29419  11.598  11.034   2.140  0.1139 -0.1050  0.0351
12572W        W29420  14.643  11.976   4.667  0.0486  0.3202 -0.3383
12573W        W29421   6.730   9.348   1.909 -0.0147  0.0148  0.2150
12574W        W29422   6.240  15.907  10.740 -0.0284 -0.0311  0.1800
12575W        W29423  14.898   3.907  13.426  0.2858  0.2602 -0.0542
12576W        W29424   8.876   7.177   2.651  0.2163  0.0089  0.3109
12577W        W29425   4.798   5.707  14.674  0.0504 -0.0693  0.1966
12578W        W29426   1.221  13.978   0.024  0.1219 -0.0154  0.3593
12579W        W29427  17.954   8.850   1.733 -0.1083 -0.0909 -0.0938
12580W        W29428   5.147  14.336  14.324  0.0154 -0.0801  0.1681
12581W        W29429  12.348  11.322   3.238 -0.2247  0.3218  0.0763
12582W        W29430   3.425  11.970  15.228 -0.2404  0.1569  0.0735
12583W        W29431   1.231   1.617   5.743 -0.0860 -0.0530 -0.0771
12584W        W29432   4.428   1.087   4.396  0.0687 -0.1710 -0.1371
12585W        W29433  15.578   9.648  14.066 -0.0517  0.2000 -0.0779
12586W        W29434  11.094  16.548   4.097 -0.0206  0.0740  0.1066
12587W        W29435   5.836  11.213   4.868  0.1997  0.2557  0.1698
12588W        W29436  18.140  14.935  14.754  0.1034  0.2473  0.1136
12589W        W29437  14.438   4.891   1.822  0.2142 -0.1124  0.0645
12590W        W29438   6.104  16.168  15.523  0.0604 -0.1626  0.1884
12591W        W29439  13.595   1.437   0.095  0.0537  0.2547 -0.0566
12592W        W29440  11.711   4.595  13.535 -0.1553  0.0424 -0.1067
12593W        W29441  15.282  11.673   2.744  0.2600 -0.0281 -0.0662
12594W        W29442  13.227  17.543   4.686  0.1472  0.0408 -0.1365
12595W        W29443  16.190   3.943   0.792 -0.0311  0.1905 -0.1037
12596W        W29444  12.969   0.037   3.989  0.0122  0.1885  0.4644
12597W        W29445   1.708  12.218  14.551 -0.2544  0.0789 -0.1965
12598W        W29446  16.131   1.524   1.626 -0.0603  0.0338  0.0891
12599W        W29447   0.624  10.963  15.336  0.4174  0.0024 -0.1374
12600W        W29448   8.729  11.943  14.567  0.0336 -0.2930  0.0107
12601W        W29449   8.926  12.897   3.302 -0.0110  0.1500 -0.0092
12602W        W29450   9.347   8.248   2.044  0.1681 -0.0659 -0.0213
12603W        W29451   0.527   8.527   2.142  0.1119  0.1926  0.0765
12604W        W29452   0.389   1.261  12.551 -0.2491 -0.0890 -0.4710
12605W        W29453   0.077   0.431  11.340 -0.0545 -0.2408  0.2813
12606W        W29454   8.188   1.460   2.015 -0.0283  0.3427 -0.2276
12607W        W29455  14.213  14.917  12.868 -0.1555 -0.1411 -0.1465
12608W        W29456   1.640   8.776  11.906  0.0664 -0.0316  0.0886
12609W        W29457   3.257  17.564  12.737  0.2410 -0.0451 -0.0659
12610W        W29458  12.388   4.260   3.562  0.0286 -0.5291  0.3734
12611W        W29459  13.256   1.725  12.152  0.0705  0.0260  0.2740
12612W        W29460   2.940  11.109   4.732  0.0648  0.0599 -0.0562
12613W        W29461  13.692   1.893  12.188  0.3130 -0.1412  0.2475
12614W        W29462  17.216   0.206   1.008  0.5024  0.2707 -0.0237
12615W        W29463   2.469  14.509  13.167  0.0062 -0.3875 -0.0001
12616W        W29464  13.625   1.951   3.639  0.1093  0.2469  0.1819
12617W        W29465   4.149   1.641  15.553  0.0822  0.0926 -0.2535
12618W        W29466   4.183  13.988   2.483  0.4181  0.0993  0.3036
12619W        W29467   9.283   6.269  13.598  0.0952 -0.2171  0.1858
12620W        W29468  13.665   7.693  12.320 -0.1271 -0.0460  0.0083
12621W        W29469  13.939  10.590  14.102 -0.0137 -0.1124  0.0249
12622W        W29470  15.627   6.742   1.482  0.2896 -0.1533  0.0300
12623W        W29471   8.111  13.170   3.680  0.0534 -0.1527 -0.0769
12624W        W29472  13.999   9.578  12.341 -0.1133 -0.2907 -0.1387
12625W        W29473  12.534   5.873  10.975 -0.4402  0.1422  0.2242
12626W        W29474   0.633   1.884  14.385 -0.1086 -0.1105 -0.1718
12627W        W29475  15.104   5.888   0.204 -0.4093 -0.2075 -0.2035
12628W        W29476   1.670  14.410   0.110 -0.0130  0.1615 -0.0845
12629W        W29477   1.443   4.370   4.771 -0.2367  0.0652 -0.0899
12630W        W29478  15.303   1.906  12.195  0.1084 -0.3195 -0.2205
12631W        W29479  14.763   5.949  12.960 -0.1573 -0.0816 -0.2112
12632W        W29480   1.431   8.399   0.939 -0.3136  0.0781 -0.1679
12633W        W29481   3.467   6.811   1.266  0.1044 -0.0613 -0.3154
12634W        W29482   0.206   8.533  16.102 -0.1396 -0.0766  0.0102
12635W        W29483  16.668   6.574   3.802 -0.1208 -0.0971 -0.2275
12636W        W29484  15.500  13.703   5.489 -0.2486  0.2628 -0.0025
12637W        W29485  10.911  17.589  14.647  0.2988 -0.0223  0.2464
12638W        W29486  13.422   9.262  14.368 -0.0654 -0.0059  0.0363
12639W        W29487  15.013  14.901  15.377 -0.1866  0.3860  0.1314
12640W        W29488   6.699   5.652   1.346 -0.0340 -0.4150 -0.0495
12641W        W29489   4.523  12.927  14.056  0.0002 -0.0467  0.0488
12642W        W29490   7.435   3.877  13.054 -0.1711  0.1365  0.0370
12643W        W29491   2.004  14.901   2.166  0.1734 -0.0224  0.0082
12644W        W29492   0.014   0.824  11.834 -0.4135  0.0498 -0.0566
12645W        W29493   1.518   2.041   4.991 -0.3988 -0.2250  0.0683
12646W        W29494   4.355  17.052  10.157 -0.1998 -0.0031  0.3114
12647W        W29495   6.458  14.440  12.612  0.0669 -0.0532  0.1214
12648W        W29496  13.203  16.691  12.187 -0.0432  0.0313 -0.1678
12649W        W29497   0.645   8.037  11.348  0.1715 -0.0208  0.2519
12650W        W29498   2.677   2.030  15.447 -0.3966 -0.3015  0.0725
12651W        W29499  12.443   7.458   3.312 -0.1006  0.1151 -0.0423
12652W        W29500   4.799  14.092  11.758 -0.1056 -0.1274  0.0903
12653W        W29501  16.604  18.156  14.667  0.3275  0.0090  0.1203
12654W        W29502  18.013  13.601  15.897  0.1750 -0.1550 -0.1409
12655W        W29503   3.687   5.890  15.432  0.2257  0.0449 -0.0235
12656W        W29504   3.759   4.535   2.592  0.1749  0.1579  0.1045
12657W        W29505   8.332  17.435  12.239 -0.1785  0.1391 -0.3152
12658W        W29506   5.467   9.219  13.985  0.2948 -0.2144  0.2553
12659W        W29507   4.112  13.587   9.944 -0.0669 -0.1710 -0.0503
12660W        W29508  14.993  17.690  13.544  0.1108 -0.0544 -0.1977
12661W        W29509  11.272   8.077  15.455 -0.1993  0.4204  0.0922
12662W        W29510  15.178   4.219  11.338 -0.3605  0.1644  0.0798
12663W        W29511   8.880   4.094   5.095  0.1938 -0.0382  0.1788
12664W        W29512  16.070   6.711   4.669 -0.0190 -0.0855 -0.1692
12665W        W29513   4.412  17.764  14.642 -0.0024 -0.3011 -0.2660
12666W        W29514  16.129  10.190   0.035 -0.4731  0.1677  0.1212
12667W        W29515   6.366   4.420  15.876 -0.2916  0.3530  0.1085
12668W        W29516  16.704  17.603  14.846 -0.1479  0.1131 -0.1142
12669W        W29517   5.139  15.495  16.047 -0.2099  0.3289  0.0553
12670W        W29518  13.208  12.475  14.641  0.1467 -0.0566  0.0267
12671W        W29519   2.904   4.268   0.119  0.0498 -0.0810  0.0584
12672W        W29520  12.616   5.818  15.297 -0.0701  0.3385  0.0359
12673W        W29521   0.338  10.556   4.291  0.2007  0.3887 -0.0908
12674W        W29522   3.264   8.442  12.809 -0.3494 -0.2841  0.1869
12675W        W29523  18.048   3.440   4.079  0.1981 -0.2572  0.2565
12676W        W29524   2.294  11.644   0.628 -0.2399  0.0205  0.0902
12677W        W29525   5.598  14.569   2.985 -0.0208  0.0749 -0.2533
12678W        W29526   2.613  12.129  12.124  0.0666  0.5446 -0.2119
12679W        W29527   5.491  17.368  11.937 -0.1211  0.2037  0.3090
12680W        W29528   9.518   8.616   0.419 -0.2113  0.0570  0.1251
12681W        W29529   4.688   2.938   1.934  0.3282 -0.1495 -0.2581
12682W        W29530  17.672  16.221  13.172  0.0605  0.1487  0.2353
12683W        W29531   3.826   6.910  13.440  0.0903 -0.2283  0.1304
12684W        W29532  11.749  13.634   0.634 -0.1605 -0.1268  0.0034
12685W        W29533   8.438  14.188  14.380 -0.2040 -0.0516 -0.1468
12686W        W29534   5.672  17.974  13.637 -0.2080  0.1553 -0.0062
12687W        W29535   5.657   1.494   1.423  0.0116 -0.2184 -0.0803
12688W        W29536  15.038  17.925  15.448 -0.0500  0.1397 -0.0550
12689W        W29537   1.504   2.603   4.639  0.0427 -0.0143  0.1360
12690W        W29538   4.900   8.640  11.828 -0.0327  0.0055 -0.0383
12691W        W29539  15.914   2.971  11.522  0.1045 -0.1831  0.1575
12692W        W29540  12.904  17.734  14.867  0.2699 -0.1221  0.2174
12693W        W29541  18.111   3.628  12.406  0.1914  0.2951  0.0184
12694W        W29542  11.779   5.902   2.982  0.1617  0.0549  0.2264
12695W        W29543   5.304  17.308   3.339 -0.0160 -0.2650 -0.4525
12696W        W29544   5.252   8.979  16.100 -0.0772  0.1903  0.1868
12697W        W29545  17.682  11.348   3.557 -0.1064  0.2902 -0.0969
12698W        W29546   4.880  10.905  15.838  0.2304  0.3358 -0.0696
12699W        W29547  11.682   2.318  11.605 -0.1101  0.0139  0.0239
12700W        W29548  12.013   5.540  11.742  0.0827 -0.0138  0.0337
12701W        W29549   1.364  17.593  12.038 -0.0176 -0.0788 -0.0474
12702W        W29550  15.370  11.306  14.575  0.1703  0.0116 -0.2742
12703W        W29551  17.628  13.716  13.979 -0.2304  0.1401 -0.1606
12704W        W29552  13.650  11.150  15.905 -0.0924  0.0887 -0.1378
12705W        W29553   8.594  12.913   1.213  0.0114  0.0101 -0.0006
12706W        W29554   9.967   4.897  10.779 -0.1570 -0.3477 -0.0511
12707W        W29555  14.346   0.514  15.218 -0.0817  0.0446 -0.2353
12708W        W29556   2.110  18.026  11.807 -0.2438 -0.0207 -0.0207
12709W        W29557   3.242   4.776  14.800 -0.0467  0.2744  0.0450
12710W        W29558  15.188   2.743  15.878  0.2834  0.0179 -0.0916
12711W        W29559   9.482   0.407  12.123  0.1978 -0.0426  0.0355
12712W        W29560   4.794  14.520   6.078  0.0173  0.0906  0.1764
12713W        W29561  17.559   0.818   3.104  0.1117  0.1830  0.0561
12714W        W29562   9.282  18.066  12.633  0.1400  0.1772  0.3115
12715W        W29563   1.832  17.177   2.543 -0.0055 -0.0776  0.1619
12716W        W29564  11.310  14.586   3.451  0.1749 -0.0811  0.2538
12717W        W29565  11.195   9.302   4.889 -0.3098  0.1900  0.1012
12718W        W29566   3.599   8.010  15.494 -0.4192 -0.2123  0.1750
12719W        W29567   9.743  15.391  11.774  0.0616  0.1477  0.0861
12720W        W29568   5.403   2.226  12.378  0.2421 -0.3252 -0.0481
12721W        W29569   7.192  11.360  15.974 -0.0840  0.0205  0.0014
12722W        W29570   6.392   0.967   0.112 -0.1396 -0.0495 -0.0773
12723W        W29571  16.764  16.741   4.447 -0.2267  0.4205 -0.1209
12724W        W29572   0.783   2.470   1.349  0.1236  0.0474  0.1703
12725W        W29573  12.819   1.166   3.823 -0.2126 -0.2621 -0.1783
12726W        W29574   9.622  17.655  14.796  0.0421 -0.1407  0.2181
12727W        W29575  17.659   9.403   4.735 -0.0296 -0.3419 -0.1218
12728W        W29576  11.596   7.532  15.974  0.0280 -0.4123 -0.0102
12729W        W29577   9.076   6.339  15.628  0.1971 -0.1932 -0.2097
12730W        W29578  14.044   1.349  13.593  0.2338 -0.0908 -0.0672
12731W        W29579   8.166   9.253  11.612  0.0725  0.1389 -0.2433
12732W        W29580  12.653  13.167  12.034 -0.2788 -0.3697  0.0741
12733W        W29581   1.614   0.334   0.596  0.0257 -0.0587  0.2027
12734W        W29582   9.471   3.980  12.487  0.1837 -0.1716  0.3031
12735W        W29583  17.379  15.607   4.258  0.2300  0.0929 -0.4031
12736W        W29584   5.511  15.284   0.240  0.0104  0.1780 -0.3816
12737W        W29585  15.688   8.322   5.323 -0.1075 -0.0049 -0.0223
12738W        W29586   0.067  14.711   0.973  0.1086  0.0272  0.0946
12739W        W29587   9.177   5.999  16.095 -0.1392 -0.0921  0.2415
12740W        W29588  10.785  11.416   3.349  0.0937  0.3616  0.0267
12741W        W29589  16.808   7.518  13.562  0.0333 -0.3543  0.4386
12742W        W29590   0.132  11.487   4.348 -0.1325 -0.1939  0.2000
12743W        W29591  14.025   5.952   4.165 -0.5264 -0.1665  0.1431
12744W        W29592  11.246   8.790   0.444 -0.3615 -0.0144 -0.3328
12745W        W29593   0.334   9.890  11.793  0.0441 -0.0637  0.0650
12746W        W29594   4.991  12.375  11.911  0.1039  0.0308 -0.1346
12747W        W29595   0.076   9.102   2.009  0.1253 -0.1293  0.2683
12748W        W29596  15.491   3.534   4.095 -0.0078  0.1401 -0.1151
12749W        W29597   3.958   2.201   4.666  0.3152 -0.2064 -0.2122
12750W        W29598   8.310   3.624   0.672 -0.1779 -0.1364 -0.1850
12751W        W29599   6.359   7.609  14.965 -0.1870 -0.3470  0.1964
12752W        W29600  10.792  14.628   3.495 -0.1318 -0.2603 -0.0781
12753W        W29601   3.264  16.697   4.605  0.2464  0.0058 -0.4032
12754W        W29602  10.466   6.805  14.149 -0.5079 -0.2640  0.2264
12755W        W29603  10.928   7.567  14.528  0.2518  0.1506  0.1406
12756W        W29604   3.341   6.731  12.718  0.0324  0.2428  0.0060
12757W        W29605  18.199   3.759  13.331 -0.2272  0.0350 -0.1729
12758W        W29606  13.048  10.536   4.506 -0.0879  0.0295 -0.0450
12759W        W29607  15.541  12.892   2.638  0.2476 -0.2908 -0.1654
12760W        W29608  15.339   3.208  16.026  0.1490  0.1110  0.0919
12761W        W29609   1.092   5.108   2.829 -0.1785  0.3028  0.3134
12762W        W29610   8.845   8.483  12.506  0.0809 -0.0364 -0.4503
12763W        W29611  16.133   5.521  15.597 -0.0788  0.2178  0.1734
12764W        W29612  10.229  13.939   1.974  0.3267  0.2103  0.3509
12765W        W29613  16.802   4.020  15.371  0.0150  0.0726  0.0604
12766W        W29614  11.210  12.330   4.435  0.0671 -0.0485 -0.1320
12767W        W29615  16.344   5.514  16.087 -0.2907 -0.1451 -0.2628
12768W        W29616  17.230  16.401   2.162  0.1246 -0.0760  0.0014
12769W        W29617   6.097   1.782  14.758 -0.2748 -0.3745  0.1711
12770W        W29618  17.605   3.685   3.950  0.1141 -0.2878  0.0903
12771W        W29619  16.417  15.398  13.953 -0.1414  0.0193 -0.3087
12772W        W29620  10.985   4.676   1.519 -0.1132 -0.0208 -0.0280
12773W        W29621   5.461  12.729  14.061 -0.2841 -0.2658  0.0959
12774W        W29622  13.749  13.967   2.035  0.0006 -0.0601 -0.1160
12775W        W29623  17.668  12.028  12.151  0.1225 -0.3059  0.2032
12776W        W29624   3.739   5.414   0.117  0.2240  0.2186  0.0003
12777W        W29625   2.403   6.226   3.921  0.0388 -0.0192  0.1329
12778W        W29626   0.715  12.842   1.241  0.1479  0.1167  0.2153
12779W        W29627   0.864   2.413   2.305  0.1147  0.0918 -0.3309
12780W        W29628   7.326   0.927  13.936 -0.0371 -0.0286 -0.2205
12781W        W29629   3.021   4.312   0.683 -0.2817 -0.1786  0.0283
12782W        W29630   1.707  16.924  14.514 -0.0419 -0.3150 -0.2528
12783W        W29631  15.341   4.155   1.039  0.3049  0.1152 -0.0999
12784W        W29632   6.585  10.723  15.476  0.2935 -0.2367  0.0260
12785W        W29633   8.395  11.018   4.740 -0.1853 -0.1331 -0.4908
12786W        W29634   7.351   6.897   4.612 -0.3796 -0.0108 -0.1913
12787W        W29635  16.775   4.459   5.900  0.1466  0.1323 -0.3868
12788W        W29636  12.305  10.037  11.893 -0.0238  0.0228  0.1870
12789W        W29637  14.141  15.424  14.471  0.0959  0.2106  0.1370
12790W        W29638   5.468   3.609   3.112 -0.2652 -0.0128 -0.1908
12791W        W29639   7.053  13.697  15.107  0.0662  0.0533  0.2670
12792W        W29640   7.950  16.669   1.492 -0.2236 -0.2469 -0.3142
12793W        W29641   3.365  10.235   1.710 -0.7159  0.4665  0.0544
12794W        W29642   5.112  14.537   3.929  0.4861  0.0376  0.0197
12795W        W29643  16.232  17.891   4.241  0.2803  0.2268  0.0802
12796W        W29644   9.862  13.851   2.306  0.1334  0.1166  0.1476
12797W        W29645  15.894  15.650   2.168 -0.1595 -0.0449 -0.0143
12798W        W29646  15.644   4.484  11.400 -0.2040  0.3598 -0.1921
12799W        W29647  14.908  13.533  10.844 -0.3486  0.2570  0.2186
12800W        W29648   1.454   8.674  14.512  0.2603 -0.0496  0.0867
12801W        W29649  16.199   5.634  13.375  0.1137 -0.0402 -0.2158
12802W        W29650   9.752  12.155  11.635 -0.4089  0.2271  0.2406
12803W        W29651  13.062  10.053   2.114  0.0090  0.2342 -0.2284
12804W        W29652   5.876   3.372   0.500  0.2136  0.0846 -0.1296
12805W        W29653  15.068   2.518  11.471 -0.2043  0.1079  0.0723
12806W        W29654   4.608  10.987   2.934 -0.0052 -0.4565 -0.0108
12807W        W29655   1.572   4.332  15.991 -0.0236 -0.0814 -0.1601
12808W        W29656  11.413   5.896  11.890  0.0230 -0.2434 -0.0647
12809W        W29657   7.471  11.376  13.156 -0.0118 -0.3473  0.1513
12810W        W29658   7.569  13.316  11.152  0.1760 -0.1001  0.6108
12811W        W29659  12.798   8.082   2.472 -0.0935 -0.0668  0.0248
12812W        W29660   9.865  17.384   3.137  0.0062  0.0421  0.0163
12813W        W29661  13.778  16.468  12.945 -0.0535 -0.0048 -0.0354
12814W        W29662  10.730   3.109   2.187  0.0719  0.2821  0.1548
12815W        W29663   4.759   4.793  14.688  0.2060 -0.3871  0.0116
12816W        W29664  17.702   7.591   4.100  0.2367 -0.1654 -0.0301
12817W        W29665   0.005   2.806  14.368 -0.0207 -0.3010 -0.0625
12818W        W29666  10.135  12.501   3.015  0.0745  0.1708 -0.1912
12819W        W29667   9.443   2.238  14.388 -0.2552 -0.1222  0.0809
12820W        W29668   9.724   6.899  14.107  0.2863 -0.1868 -0.2309
12821W        W29669   2.397   0.432  11.100 -0.0020 -0.1031  0.1027
12822W        W29670   2.273   3.401  12.668 -0.2847  0.1794  0.1547
12823W        W29671   8.063  16.770   4.234 -0.1269 -0.0693  0.0959
12824W        W29672   5.498  11.035   1.280  0.1659  0.1658  0.1059
12825W        W29673  17.200  14.657  13.465 -0.1343  0.3076  0.4186
12826W        W29674  15.705   2.339   3.382  0.3061 -0.0281 -0.1010
12827W        W29675  13.015   0.902  12.529  0.1764 -0.0166 -0.0184
12828W        W29676  12.946  17.543  11.019  0.4440 -0.0561  0.0702
12829W        W29677  14.051  11.133  13.505  0.1340 -0.2728 -0.0352
12830W        W29678  11.634  11.491  13.727 -0.1922  0.0769 -0.3987
12831W        W29679   4.164  11.233   4.722  0.2142 -0.1331 -0.0187
12832W        W29680   7.025  11.861   4.301 -0.3884  0.0349  0.2505
12833W        W29681  13.488   1.640  14.683 -0.2072  0.2143 -0.4692
12834W        W29682   1.786   3.634   2.480 -0.0708  0.1294  0.0084
12835W        W29683   0.833   3.097  16.123  0.1606 -0.1840  0.3486
12836W        W29684   0.275   2.656   5.216 -0.0935 -0.4174  0.1953
12837W        W29685   4.269   9.878   1.378 -0.0258 -0.4747  0.1326
12838W        W29686   2.429   0.411  14.648 -0.3637  0.0073  0.0733
12839W        W29687   6.797  10.682   0.333  0.2116  0.1602 -0.2015
12840W        W29688   6.835   3.390   0.388  0.1862  0.4465  0.1721
12841W        W29689   9.643   8.946   1.342 -0.0121 -0.1965  0.0218
12842W        W29690  16.871  17.280  13.155 -0.0123  0.2981 -0.0172
12843W        W29691  14.475   3.688   4.593 -0.3317 -0.0409 -0.1373
12844W        W29692   1.885   6.714   0.462 -0.1370 -0.0320 -0.2018
12845W        W29693   6.833   7.745   4.033  0.0696 -0.2343  0.5849
12846W        W29694   5.372   8.706   4.444  0.1169  0.1772 -0.0573
12847W        W29695  11.231  14.430   5.335  0.1339  0.0527  0.1505
12848W        W29696  15.338  11.407  11.796  0.0275 -0.2435  0.1314
12849W        W29697  13.966   0.135  11.154  0.1820  0.3491  0.1359
12850W        W29698   6.940   8.349  11.655 -0.3328  0.0380 -0.1261
12851W        W29699   1.345  10.851   3.537 -0.0737 -0.0481 -0.2379
12852W        W29700  14.290   1.067  11.904 -0.0811 -0.0696 -0.1746
12853W        W29701  14.571   5.783   1.614  0.3817  0.2727  0.0119
12854W        W29702   6.230  13.019  12.375 -0.0445 -0.3786  0.0295
12855W        W29703   9.104  16.607  14.338 -0.1286  0.1222 -0.0123
12856W        W29704   7.200  14.966  13.092  0.2056  0.0382  0.0218
12857W        W29705   4.780  15.752  10.577  0.3313  0.1860  0.0071
12858W        W29706   2.834   5.397   4.961 -0.1028 -0.1491 -0.1416
12859W        W29707   6.858   9.105   0.124 -0.1041  0.0351  0.0756
12860W        W29708   3.344  11.367  14.034 -0.1284  0.1417 -0.1594
12861W        W29709  10.109  14.595  12.321 -0.0790  0.0962 -0.1871
12862W        W29710   5.177   5.980   6.031  0.2144  0.2152 -0.2602
12863W        W29711   2.844  11.684  13.463  0.4738  0.1636 -0.2458
12864W        W29712  15.757  11.319  10.102  0.1609 -0.2956  0.1949
12865W        W29713  12.249  17.801   2.074 -0.1045  0.2061 -0.0315
12866W        W29714  17.918  14.547   1.727 -0.0867 -0.0475  0.0854
12867W        W29715  13.596   2.756   0.416  0.3761  0.0582  0.1703
12868W        W29716   8.526   5.114  12.849 -0.0207 -0.0995 -0.0208
12869W        W29717  14.723   6.365  12.667  0.1970 -0.3154  0.4992
12870W        W29718  17.217   5.952  14.686  0.1024 -0.0355  0.2165
12871W        W29719   0.865   6.474   0.640 -0.4678  0.0227  0.0732
12872W        W29720  10.830   6.800   1.261 -0.0239 -0.2112  0.0221
12873W        W29721   6.461   2.645  12.073  0.6131 -0.1521  0.2183
12874W        W29722   0.052   4.112  11.863  0.2308  0.0220  0.0100
12875W        W29723  11.178  15.265  15.839  0.0223 -0.3649 -0.3825
12876W        W29724   2.237   6.741   3.833  0.1776  0.2310 -0.1147
12877W        W29725   2.053   7.668   2.821  0.0187 -0.0816 -0.1891
12878W        W29726   0.230   2.154  14.921 -0.0185 -0.1279 -0.0604
12879W        W29727   4.035  17.319  11.562 -0.1361  0.1835 -0.4066
12880W        W29728   7.230  13.499   4.152  0.1658  0.1755  0.2671
12881W        W29729   3.332  17.028   0.976 -0.1964  0.0635  0.1522
12882W        W29730  16.812   8.722   0.956  0.0875  0.2094 -0.1673
12883W        W29731  13.523   0.925  12.615 -0.0803 -0.0929  0.0692
12884W        W29732  12.616  12.859   5.742  0.0280 -0.1808  0.1030
12885W        W29733   3.534   4.722  11.394 -0.0924  0.0961 -0.2241
12886W        W29734  17.486   6.142  15.120  0.0856 -0.0811  0.0195
12887W        W29735  14.872   3.532  11.976 -0.1547  0.2111  0.3472
12888W        W29736  16.690  11.669  12.319 -0.2312 -0.0037 -0.3284
12889W        W29737   9.352  15.166  15.547  0.2381  0.0401  0.0779
12890W        W29738  11.568   1.763  15.348  0.2312 -0.1312 -0.0932
12891W        W29739   0.756   0.921   3.130 -0.1249  0.2044 -0.2441
12892W        W29740   7.671   0.710   0.223  0.0208 -0.0084 -0.1661
12893W        W29741  17.337  11.559  12.786 -0.0011 -0.3847  0.0582
12894W        W29742  10.742  11.785  13.546  0.0581  0.1814 -0.1868
12895W        W29743  10.408   2.674  15.762  0.2113  0.2318  0.2577
12896W        W29744   4.437  14.680  13.086  0.3627  0.0164  0.2198
12897W        W29745  10.141   1.769  13.589  0.0079  0.1680 -0.0697
12898W        W29746  12.168   0.598  14.189  0.0543  0.0409 -0.3786
12899W        W29747  16.338  16.771  10.796 -0.1825 -0.0488 -0.0266
12900W        W29748   8.465  18.072   3.112 -0.0748  0.1293 -0.1584
12901W        W29749   5.593   2.966   0.339 -0.0231  0.2307 -0.0219
12902W        W29750   1.319  14.153  14.775  0.0384  0.0626  0.0904
12903W        W29751   8.035  11.306   0.532 -0.0087 -0.0180  0.0499
12904W        W29752   6.696   1.164  11.384 -0.0608  0.0888 -0.0793
12905W        W29753   7.198  10.408   3.433 -0.0478  0.0405 -0.2732
12906W        W29754  14.879   5.155   0.247 -0.3087 -0.5723 -0.2356
12907W        W29755   0.511  15.332  14.209  0.0254  0.0039  0.0354
12908W        W29756   9.460  16.576   1.614 -0.0431 -0.0532 -0.0964
12909W        W29757   0.844  10.730  13.809  0.0716 -0.0756  0.3765
12910W        W29758   6.116  17.674   1.553 -0.2869  0.5227  0.0344
12911W        W29759   3.301   4.973   2.007  0.0594  0.0933 -0.3183
12912W        W29760  14.165   4.276   0.128  0.1710 -0.1505 -0.4156
12913W        W29761  14.830   7.274   2.794 -0.0385  0.1906 -0.0488
12914W        W29762  12.163  16.406   0.604  0.1543  0.0165  0.0658
12915W        W29763   0.371  16.304  15.407 -0.3136 -0.0145  0.0145
12916W        W29764  15.875  10.947   1.723 -0.2270 -0.0756  0.2600
12917W        W29765  14.042   9.678   5.521 -0.0980  0.1452  0.1339
12918W        W29766  12.359  15.032  15.473 -0.1846  0.1023  0.0592
12919W        W29767   0.620  17.097  11.541  0.0496 -0.1171  0.0404
12920W        W29768  15.640  17.422  13.288 -0.2141 -0.3268 -0.2407
12921W        W29769  13.779  10.794   3.713 -0.0620  0.0131  0.1336
12922W        W29770  11.259  11.882  12.012  0.0451  0.2209 -0.0488
12923W        W29771   0.050  11.170   2.708  0.1328 -0.1216  0.2564
12924W        W29772   6.859   7.152   0.364 -0.2239  0.1612  0.2909
12925W        W29773   3.509   1.966   4.745  0.3749  0.1421  0.3279
12926W        W29774  17.614  16.176  14.945 -0.2219  0.2348  0.2152
12927W        W29775   1.584   2.148   0.222 -0.0882  0.2867  0.0315
12928W        W29776  14.980   6.137   2.169  0.0791 -0.0434  0.0938
12929W        W29777   4.576  11.265   2.533  0.0145 -0.3283  0.0316
12930W        W29778   7.944  13.524  14.519 -0.1813 -0.0366  0.1031
12931W        W29779  15.475   4.126  15.958  0.1778  0.1396  0.1964
12932W        W29780  17.891   6.615  11.976  0.2270  0.0910 -0.0106
12933W        W29781   8.777   1.730  14.961 -0.0695  0.1583  0.1994
12934W        W29782   9.166   8.325   3.154  0.0984 -0.1843  0.0876
12935W        W29783   0.973  16.293  14.577  0.0186  0.2354 -0.2653
12936W        W29784   1.831  16.219  12.147 -0.1118  0.1499  0.0626
12937W        W29785  14.773   1.242  14.913  0.0650  0.1468 -0.0569
12938W        W29786  11.562  12.686   4.500  0.2505  0.0374  0.1280
12939W        W29787  12.514   1.988   3.352  0.0423 -0.0163  0.2265
12940W        W29788  14.886  16.449  12.872  0.0775  0.0201 -0.0363
12941W        W29789  13.782   1.588  12.559 -0.2816 -0.1397  0.3138
12942W        W29790  16.135   2.304   3.683 -0.0338 -0.3049  0.0050
12943W        W29791   1.495  12.568  11.095  0.1607  0.1736 -0.1475
12944W        W29792   7.387  10.244   4.028  0.0808  0.1112  0.1748
12945W        W29793   4.478   9.101   3.327 -0.0897  0.1929 -0.0395
12946W        W29794   9.186  17.042   4.224 -0.1819 -0.1767 -0.1843
12947W        W29795   4.524  11.468  14.367 -0.0291  0.1876 -0.0262
12948W        W29796  16.588   3.218  11.506  0.1607 -0.1797 -0.0055
12949W        W29797  14.340   8.632   2.498 -0.0407  0.1946 -0.5825
12950W        W29798   5.380  10.273   1.813  0.1755  0.1387 -0.0557
12951W        W29799   3.470   2.220   0.570  0.1187  0.1722 -0.3903
12952W        W29800   2.967   8.062  12.945 -0.1471  0.0455 -0.0127
12953W        W29801  17.240  10.735  11.427 -0.1352 -0.3978 -0.1673
12954W        W29802  12.809   9.281   0.088 -0.1123  0.0766  0.3466
12955W        W29803  16.793   5.399  12.566  0.3821 -0.3254 -0.0807
12956W        W29804   1.947  10.029   6.240 -0.4103 -0.4815  0.1286
12957W        W29805   7.131   5.574   5.487  0.0897  0.1557  0.1925
12958W        W29806   3.813   7.433  12.855  0.0209  0.2449  0.0370
12959W        W29807  11.507   5.557   3.853 -0.1260  0.2251 -0.0501
12960W        W29808  17.488  13.912  15.324  0.3366  0.0108 -0.0991
12961W        W29809   6.415  17.481   0.990 -0.0755 -0.2016  0.0995
12962W        W29810   3.370   2.423  11.637 -0.3520  0.1774  0.0719
12963W        W29811   1.153  12.994   4.317 -0.1000 -0.2118  0.1916
12964W        W29812   0.179   6.942   4.806 -0.1928  0.1569  0.0464
12965W        W29813  10.306   8.683  13.524  0.0954 -0.3383 -0.0445
12966W        W29814   6.767   9.983  14.877 -0.0867 -0.1811 -0.1006
12967W        W29815   3.418   0.210   4.925 -0.1473  0.1721 -0.1138
12968W        W29816  13.056   1.831   1.916  0.1159  0.0524  0.2425
12969W        W29817   1.193  10.162  10.864  0.0207  0.0276 -0.3063
12970W        W29818   6.753   9.409   2.477 -0.0311 -0.2035  0.3428
12971W        W29819  10.520   8.137   1.816 -0.1484  0.0508  0.0572
12972W        W29820  13.523   6.084  14.946  0.0428  0.1453 -0.0721
12973W        W29821   3.930  10.115  12.400 -0.2466  0.1342 -0.1265
12974W        W29822  17.153   5.587  13.592 -0.2978 -0.0146  0.1499
12975W        W29823   4.397  12.578  16.070  0.2541 -0.0212  0.0746
12976W        W29824   8.525  15.195   3.445 -0.1467  0.0002 -0.0625
12977W        W29825   9.418  14.466   0.445 -0.0321 -0.2653 -0.1200
12978W        W29826   9.983  18.176   2.032 -0.1609  0.2751 -0.0711
12979W        W29827  10.428   8.101   3.499 -0.3119 -0.0064 -0.1992
12980W        W29828   1.681   2.148  14.756  0.1556  0.0665 -0.1157
12981W        W29829  17.332   9.148   2.380  0.1735  0.1992  0.1711
12982W        W29830   8.376   4.135   4.929 -0.1022  0.0056 -0.0083
12983W        W29831  16.296   1.962  10.229 -0.0173  0.0846  0.0035
12984W        W29832   1.441  17.035  12.070 -0.2261 -0.0411 -0.1979
12985W        W29833  15.955   8.615   4.939 -0.0739 -0.1054 -0.0980
12986W        W29834   8.383   3.632   4.246 -0.3110 -0.2547  0.0660
12987W        W29835   8.574  15.649  13.595  0.1019 -0.2817  0.4416
12988W        W29836   4.211   8.998   3.753  0.2833  0.1056  0.1579
12989W        W29837   9.808  11.743   1.924  0.0926 -0.0869  0.0727
12990W        W29838  11.175   4.726  11.379 -0.2375 -0.1787  0.0185
12991W        W29839   2.225  18.177   4.244 -0.1350 -0.0088  0.0168
12992W        W29840   5.545   9.653  13.749  0.0797  0.2124  0.1876
12993W        W29841   4.158  16.802  11.306  0.3761  0.0217 -0.1189
12994W        W29842   0.170   2.626  11.414 -0.2896  0.3087 -0.1938
12995W        W29843  17.667   9.832   5.063  0.0293  0.1802  0.0016
12996W        W29844  10.568   3.123  15.557 -0.2814 -0.0010 -0.0852
12997W        W29845   0.340   7.941   4.765  0.0236  0.0627 -0.0210
12998W        W29846   7.683   5.655  12.246 -0.2983 -0.0881  0.1321
12999W        W29847  14.189  17.418  16.105 -0.1430  0.2099  0.2537
13000W        W29848   2.582  15.590   4.422 -0.1914  0.0562 -0.0530
13001W        W29849   7.357   0.144   5.394  0.0170  0.1377  0.0734
13002W        W29850   2.141   3.191   2.231  0.1618 -0.2839  0.1735
13003W        W29851   7.937  17.248  13.496  0.0713  0.0894  0.3916
13004W        W29852  14.728  15.178   0.633  0.1069 -0.1846  0.1148
13005W        W29853   5.251  14.269  12.447 -0.0453  0.0641  0.1524
13006W        W29854   9.890  13.160   3.541  0.2329 -0.0595  0.1835
13007W        W29855  18.172  12.236   4.808 -0.4774  0.2578  0.0936
13008W        W29856  13.800  15.089   4.336 -0.0046 -0.1260 -0.3908
13009W        W29857  16.638   5.805  11.699  0.2034  0.0110  0.1605
13010W        W29858   2.829  17.182  14.943 -0.0590  0.0108 -0.5319
13011W        W29859   7.321   1.897   5.017  0.2457  0.1320 -0.1174
13012W        W29860  16.676  14.244  14.909  0.2732  0.1905  0.2277
13013W        W29861   3.304  16.597   0.666 -0.1061 -0.3691  0.3360
13014W        W29862   8.315  10.427   2.456  0.3675 -0.1996 -0.0416
13015W        W29863  10.978  11.035  14.161 -0.1003 -0.2344  0.2558
13016W        W29864   2.784  11.961  11.671  0.1588  0.1048  0.3824
13017W        W29865   3.765  11.343   4.458  0.1533  0.0025 -0.2826
13018W        W29866   2.449   5.659   4.157 -0.0684 -0.0978 -0.1732
13019W        W29867   0.956   2.470  13.143  0.0291  0.1467 -0.0309
13020W        W29868  15.652   4.260  14.404 -0.1400  0.2194  0.1423
13021W        W29869   8.517  10.074   0.657 -0.0461 -0.1744  0.0524
13022W        W29870   6.866  14.777   0.718  0.1747 -0.2288 -0.0975
13023W        W29871  17.434   9.962  15.066  0.1283 -0.1654 -0.2403
13024W        W29872  17.389  17.817  13.013  0.1810  0.0043  0.1053
13025W        W29873  17.566   2.675  10.853  0.1209 -0.1326  0.0945
13026W        W29874   9.890   0.474   1.990  0.0835  0.0588 -0.0101
13027W        W29875   1.388  17.409   1.696 -0.2008 -0.0841  0.2014
13028W        W29876   2.430  10.323  12.209 -0.0218 -0.1308 -0.2246
13029W        W29877   1.860   9.542  13.313  0.0046 -0.1491 -0.0696
13030W        W29878  14.768  11.772   1.250 -0.1753  0.1526 -0.0776
13031W        W29879   9.261   8.282   0.687  0.0996  0.0226 -0.0699
13032W        W29880  14.706   3.144   1.246  0.0077  0.1661  0.0228
13033W        W29881   0.599  14.745  11.342  0.1819 -0.2123 -0.1801
13034W        W29882   2.999   3.115  13.665 -0.0237 -0.3070 -0.1965
13035W        W29883  15.505  13.723   0.397  0.0563 -0.3055 -0.1883
13036W        W29884   5.088  17.522   5.135 -0.1002  0.1017  0.0191
13037W        W29885   8.780   5.017  15.718  0.0557 -0.0965 -0.3147
13038W        W29886   6.926   5.185  12.563 -0.0789 -0.0082  0.1624
13039W        W29887   2.644   2.447   3.295  0.0168 -0.3638 -0.0862
13040W        W29888   8.390   1.719  14.283 -0.1084  0.1494  0.2826
13041W        W29889   7.559  11.546  13.694  0.1721  0.0066 -0.0231
13042W        W29890   0.133   4.178   3.005 -0.2747 -0.2444 -0.0679
13043W        W29891   4.831   6.382  12.722  0.1462 -0.1273  0.1933
13044W        W29892  10.941   2.728   1.927 -0.1772  0.0630  0.0534
13045W        W29893  16.735  10.708  13.929 -0.0178 -0.1921 -0.0425
13046W        W29894  17.475   4.137   4.153 -0.0867 -0.0592  0.1439
13047W        W29895   2.385  14.174   1.763  0.1095 -0.1145 -0.1593
13048W        W29896   7.390  12.270  11.720 -0.1490 -0.0351  0.2153
13049W        W29897   6.354  12.533  14.671 -0.1671  0.2007 -0.2089
13050W        W29898   1.334  17.732   3.635 -0.2647  0.1039 -0.1239
13051W        W29899   0.484  16.144  12.819  0.1658 -0.0228 -0.1021
13052W        W29900   2.291   2.770   4.774  0.0318 -0.5533  0.3451
13053W        W29901  10.509  12.243   0.165  0.0833 -0.0640 -0.1911
13054W        W29902   7.857   9.049  12.689 -0.2648  0.0303 -0.3262
13055W        W29903   2.494   4.200   3.035  0.0956 -0.0463 -0.0788
13056W        W29904   9.363   7.795  15.229 -0.0313  0.0483 -0.1039
13057W        W29905  14.213  14.792  13.365  0.1957  0.1993 -0.0981
13058W        W29906   8.936   0.944   2.178  0.0963  0.0491 -0.2123
13059W        W29907   9.987  11.307   1.931 -0.1343  0.0416 -0.4151
13060W        W29908   2.909  12.304   0.653  0.0462 -0.1398 -0.2110
13061W        W29909   9.163   4.653   3.254  0.1540  0.1236  0.1046
13062W        W29910  11.013  10.979  15.625  0.0621 -0.0169 -0.2684
13063W        W29911  13.119   7.210  12.888 -0.0925  0.1231  0.0745
13064W        W29912   0.387  10.811  13.639  0.1964  0.1116  0.1019
13065W        W29913   0.439   9.363   4.750  0.2085  0.3428  0.1939
13066W        W29914   9.933  17.671  11.051  0.1575 -0.0079  0.0318
13067W        W29915  17.790  13.489  11.381 -0.1273  0.1133 -0.0490
13068W        W29916   5.684  17.407  11.400 -0.1515  0.1818 -0.2250
13069W        W29917  10.589   9.154   3.640 -0.1355  0.1706  0.0495
13070W        W29918  15.924  12.216  11.829  0.2071  0.0047 -0.0806
13071W        W29919  10.106   5.942   2.118  0.1765 -0.2526 -0.0191
13072W        W29920  13.090  13.161   0.342  0.1088  0.0057 -0.1186
13073W        W29921   8.352  12.715  14.010 -0.0898  0.3599 -0.0926
13074W        W29922   0.592  11.870   0.192  0.3847 -0.0582  0.1991
13075W        W29923  15.190   6.506  12.322  0.0702  0.1387 -0.2835
13076W        W29924   8.946   4.867   0.076 -0.1729 -0.1941  0.0611
13077W        W29925  14.659  15.507   4.290  0.1493 -0.0292 -0.0076
13078W        W29926   4.869  14.533  13.418  0.0535 -0.0836 -0.4107
13079W        W29927   4.063  15.850  12.325 -0.0117 -0.0125  0.1180
13080W        W29928  11.670   8.397  15.704 -0.2270 -0.2816  0.0648
13081W        W29929   0.523  10.457  14.037 -0.0721  0.1580  0.0156
13082W        W29930   9.275   4.698   4.162  0.2731  0.0679 -0.1485
13083W        W29931   0.706   7.805   5.112  0.1337 -0.1464  0.5101
13084W        W29932   0.806   4.197  10.840  0.4475  0.0967  0.1545
13085W        W29933  14.911  17.438  15.149  0.1226 -0.0483  0.0589
13086W        W29934  15.667   6.344   5.364 -0.1501 -0.0995 -0.2934
13087W        W29935   2.678   8.187   2.834 -0.0865 -0.1124 -0.1348
13088W        W29936  16.917   9.459   3.191 -0.1220 -0.1016 -0.0316
13089W        W29937  11.776   1.060  13.468 -0.2588  0.3466 -0.1163
13090W        W29938  10.721   2.773  15.245 -0.1803  0.1428 -0.1095
13091W        W29939  17.976   3.034   0.782  0.0841  0.1837 -0.3856
13092W        W29940   0.572  15.250   3.927 -0.1980  0.1857 -0.1504
13093W        W29941  12.112  14.936  15.870 -0.1357 -0.1189 -0.2160
13094W        W29942   1.064  12.111   0.371 -0.2078  0.1948  0.0698
13095W        W29943   5.134   7.376  11.934 -0.0745  0.3026 -0.1384
13096W        W29944  14.838  16.157   0.140  0.0595 -0.0291 -0.1535
13097W        W29945  15.225  11.598   4.211 -0.1181  0.0091 -0.0202
13098W        W29946   7.643  15.214   1.349  0.0880  0.2669 -0.1982
13099W        W29947   2.758   1.198  11.663 -0.1747  0.1647  0.2820
13100W        W29948  10.932  13.548   4.153  0.0147  0.1516  0.1911
13101W        W29949   1.347  13.802   3.668 -0.4780 -0.0595  0.0401
13102W        W29950  14.567   8.386  15.229  0.2305 -0.0302  0.0548
13103W        W29951  14.487  11.759   5.570 -0.3782  0.1293  0.1162
13104W        W29952   3.051   7.973   3.649 -0.1107 -0.2936 -0.0900
13105W        W29953  16.949  12.250   0.569  0.1611  0.0204  0.1214
13106W        W29954  16.626   5.988   3.654  0.1407  0.3676  0.2193
13107W        W29955  10.071   7.576  12.047  0.1548 -0.1005  0.2510
13108W        W29956   3.791  13.683   3.442  0.4393  0.1914  0.0772
13109W        W29957  13.321   2.717  13.828 -0.1113 -0.1658  0.1003
13110W        W29958  17.446  14.454  15.658 -0.0075  0.0814  0.3489
13111W        W29959   9.542   7.194  14.519 -0.4374 -0.0859 -0.1820
13112W        W29960  10.757  10.537   4.848  0.1059  0.0605  0.1968
13113W        W29961   9.233   4.115   0.082  0.4355 -0.2628  0.2845
13114W        W29962   4.044   4.678  12.348 -0.0318 -0.4019 -0.0117
13115W        W29963   6.386   2.878  11.574 -0.0441  0.1922 -0.0883
13116W        W29964   1.561  13.274   4.374 -0.0565  0.0363  0.6036
13117W        W29965  15.941   3.725   4.332  0.1851  0.1311 -0.1455
13118W        W29966  14.641  14.476   4.458 -0.2864 -0.1463  0.0104
13119W        W29967  14.018   4.574   4.206  0.0016 -0.3540  0.0681
13120W        W29968  10.211  16.252   3.999  0.1864  0.0195 -0.1756
13121W        W29969   1.755   6.062   3.926 -0.2088 -0.0269 -0.0021
13122W        W29970   5.581  18.063  11.191  0.2093  0.3380 -0.0093
13123W        W29971   6.876  13.870  10.707  0.2657 -0.1663 -0.1425
13124W        W29972   7.676  14.394  16.100  0.0257 -0.2382  0.1173
13125W        W29973  14.107   7.779  10.461  0.0945  0.0900 -0.1029
13126W        W29974  10.565  16.160  11.293  0.1180 -0.1042  0.0546
13127W        W29975   7.510  11.769   3.440 -0.1810 -0.0368 -0.3610
13128W        W29976   3.450   9.232  15.703  0.1189 -0.0934 -0.0231
13129W        W29977  13.429  10.706   1.189 -0.0781  0.1884  0.1154
13130W        W29978  14.273   1.696  13.845 -0.2084  0.1707 -0.2133
13131W        W29979   5.029  16.898  11.976  0.3000 -0.0643  0.0631
13132W        W29980  12.716  11.399   5.660 -0.1074 -0.3085 -0.0699
13133W        W29981   3.328  11.413  15.252 -0.0506 -0.2784 -0.0272
13134W        W29982  15.491   0.221  13.838 -0.1301 -0.1444  0.2497
13135W        W29983   1.169  16.839   4.672 -0.2635  0.1584  0.2347
13136W        W29984  12.710   4.767  15.440  0.1739 -0.0530  0.2285
13137W        W29985  14.942   5.656  12.534 -0.0545 -0.4419 -0.1073
13138W        W29986  14.880  13.310  13.520  0.2079 -0.4145 -0.0000
13139W        W29987   0.659   5.054   1.639 -0.1437 -0.0766 -0.1763
13140W        W29988  11.529   9.993  12.841  0.0324  0.0878  0.2333
13141W        W29989  14.113   6.940  13.586 -0.1151 -0.0801 -0.1180
13142W        W29990  15.484   2.369  13.740 -0.1353 -0.2312  0.0237
13143W        W29991  16.357  10.568   5.207 -0.2655  0.3201 -0.1259
13144W        W29992  18.091  13.969  15.050  0.0955 -0.3656 -0.0710
13145W        W29993   4.148  15.106   1.748 -0.4594 -0.1778 -0.2816
13146W        W29994   2.633   8.220   3.454 -0.0029 -0.0543 -0.0477
13147W        W29995  13.627  10.834   0.175 -0.3128  0.2414 -0.1915
13148W        W29996  13.178  12.374  13.288 -0.3418  0.4271  0.2296
13149W        W29997   7.822   0.144   2.135  0.1982  0.1006 -0.0516
13150W        W29998   6.382   8.209   4.662  0.1663  0.0843 -0.0822
13151W        W29999   9.270   2.730   4.878  0.0585 -0.2642  0.1727
13152W        W30000  14.649   6.326   1.729  0.0867  0.0211 -0.4015
13153W        W30001  10.329  16.742  15.855  0.2346  0.3336  0.0240
13154W        W30002   9.960  17.072   1.917  0.2631 -0.2932  0.2817
13155W        W30003   4.925  12.227   3.565  0.0914  0.1673  0.0585
13156W        W30004   7.212   2.279   0.957 -0.2236 -0.0400 -0.0617
13157W        W30005   9.435  12.200   2.952 -0.1425 -0.1394 -0.0436
13158W        W30006  14.277  13.399  12.883  0.1757 -0.0047 -0.3624
13159W        W30007   2.602  11.662   1.967  0.0479 -0.0024  0.1776
13160W        W30008   0.187   4.922  13.342 -0.1759 -0.0400 -0.0056
13161W        W30009   2.543  13.672   1.940 -0.5232  0.0650  0.1124
13162W        W30010   5.383   4.505   5.379 -0.1457  0.1900 -0.0015
13163W        W30011   5.082  14.877  14.943  0.1378 -0.1350 -0.1895
13164W        W30012   5.131  13.351  14.757  0.2427 -0.4771  0.4824
13165W        W30013   0.537   7.008   2.360 -0.0271 -0.0959  0.2670
13166W        W30014   2.571   4.235   4.076 -0.0374 -0.2960  0.0365
13167W        W30015  13.086   7.664   3.462  0.0203  0.1230  0.2233
13168W        W30016  12.614   2.231  13.283 -0.1630  0.0759 -0.2064
13169W        W30017  14.256   4.184  14.447 -0.0986  0.0035  0.1353
13170W        W30018  16.842   5.803   3.216 -0.3622  0.1656  0.0735
13171W        W30019  15.844   6.221   1.527  0.1181 -0.1151  0.0283
13172W        W30020   4.282  12.555   4.886 -0.0108  0.2089  0.2227
13173W        W30021   4.676   7.170   3.138 -0.1134  0.1147 -0.0055
13174W        W30022   8.017   8.286   1.428  0.2653  0.0567 -0.1807
13175W        W30023   3.443   1.693  14.257  0.1730 -0.2987 -0.1134
13176W        W30024   3.224   1.403  15.778  0.0051 -0.1625 -0.2613
13177W        W30025   0.952   9.638   4.425 -0.0863 -0.0830 -0.0775
13178W        W30026  11.805   0.688   0.780 -0.1693 -0.3067 -0.1478
13179W        W30027   1.462   4.855   3.170  0.4435  0.0642 -0.1954
13180W        W30028   7.684   7.747   4.730  0.1496  0.2065  0.2994
13181W        W30029  17.596  15.727   1.482  0.2268  0.0278 -0.1684
13182W        W30030  13.389   6.786  12.127  0.0944  0.3177 -0.0693
13183W        W30031  17.659  16.456   3.114 -0.3364 -0.1371  0.1982
13184W        W30032   7.636   4.822   4.141  0.0974  0.3610 -0.2384
13185W        W30033   4.641  12.501   1.709 -0.1891  0.2818  0.2457
13186W        W30034   4.418  14.637   4.365  0.0772 -0.2324  0.2001
13187W        W30035  15.844  11.338  14.951  0.0190  0.1494 -0.0695
13188W        W30036  17.945  12.355   1.956 -0.2841 -0.1382 -0.0384
13189W        W30037  10.045  17.519   0.161 -0.0315 -0.1750  0.2540
13190W        W30038  11.412  11.328   2.545 -0.1545  0.3300 -0.1004
13191W        W30039   0.866  17.619  14.816 -0.0228 -0.0428 -0.2945
13192W        W30040   3.146  15.488   0.619 -0.1821  0.1884 -0.0916
13193W        W30041   5.390   3.891   4.506 -0.0618  0.0353 -0.1169
13194W        W30042  13.281   2.617  11.692 -0.1885  0.0049  0.2535
13195W        W30043   4.304  11.068   2.153 -0.0287  0.2769 -0.0110
13196W        W30044   9.928   5.645   4.697 -0.0526  0.1661 -0.0317
13197W        W30045   9.014   0.945  15.189  0.4270  0.0488 -0.4262
13198W        W30046   7.327   9.891   3.481  0.1465 -0.2013  0.0859
13199W        W30047   1.362   9.974  14.647 -0.1982 -0.1704 -0.0190
13200W        W30048   7.941   9.548   5.615 -0.1135  0.1140 -0.0696
13201W        W30049  16.497   0.509  16.060  0.0629  0.0712  0.1627
13202W        W30050   4.427  13.793  10.923  0.2466 -0.2479 -0.1570
13203W        W30051   6.347   3.828   1.061 -0.3541 -0.1764 -0.0406
13204W        W30052   6.464  17.164   2.259 -0.0983  0.2018 -0.2255
13205W        W30053  17.503   2.276  11.140  0.1845 -0.0885 -0.2378
13206W        W30054  13.525  14.095  12.253 -0.0094  0.2710 -0.1200
13207W        W30055  14.374  17.420  11.771  0.1887  0.3393  0.5259
13208W        W30056   9.688   4.017  14.341 -0.0578 -0.0562  0.1888
13209W        W30057   2.645   1.381   2.680  0.0745 -0.2568 -0.0211
13210W        W30058   7.932   2.773   2.899 -0.2769 -0.0804  0.0153
13211W        W30059  15.494  16.536  15.076 -0.1171 -0.2706 -0.2782
13212W        W30060   6.176   5.188  13.284  0.1173  0.0715 -0.1126
13213W        W30061   6.021  16.643  12.015  0.0650 -0.1355  0.0056
13214W        W30062   5.077  11.827   3.977 -0.2982  0.0475 -0.0239
13215W        W30063  10.087  17.440  14.148  0.1360  0.1363  0.0254
13216W        W30064   1.595   1.645  12.495  0.0218 -0.3930  0.4094
13217W        W30065   3.975  13.169   1.788  0.1480 -0.0272 -0.0522
13218W        W30066   9.381  12.010  15.358  0.1840  0.3366  0.2617
13219W        W30067   5.560  14.645   1.521  0.3019 -0.1654 -0.2691
13220W        W30068   0.669   7.061   4.935  0.2915 -0.0470  0.0269
13221W        W30069   8.192   8.419  12.543  0.0017  0.0566  0.3842
13222W        W30070   2.853   6.269  11.541 -0.1825  0.1424 -0.1469
13223W        W30071   3.662  14.528   3.932 -0.1590 -0.1446 -0.1616
13224W        W30072   4.574  10.041   0.775  0.1656 -0.1458 -0.1651
13225W        W30073   7.757   8.257   4.300 -0.0554  0.0261  0.0892
13226W        W30074   6.253   3.026  13.545  0.3951 -0.3086 -0.0081
13227W        W30075  15.984   5.180   4.884  0.1031  0.1391 -0.4313
13228W        W30076   7.344  14.469  10.157  0.2240 -0.0067 -0.2011
13229W        W30077  11.736   9.241  11.456  0.1379  0.0470 -0.1391
13230W        W30078   3.245   3.381  11.529 -0.0590  0.0379  0.0871
13231W        W30079   5.316  18.148   4.270 -0.3788 -0.0514  0.2444
13232W        W30080  11.693  11.106   4.472 -0.1334  0.1548  0.2122
13233W        W30081   0.997  11.101  12.139  0.1527  0.0644 -0.1838
13234W        W30082   3.334   7.700  15.767  0.1320  0.2055  0.2430
13235W        W30083  13.776   4.464   3.262 -0.0046 -0.1788  0.5900
13236W        W30084  17.264  13.512   2.724 -0.0267  0.0552 -0.0548
13237W        W30085   9.951   6.146  13.927  0.1604  0.0341 -0.2021
13238W        W30086  14.853   0.157   2.920  0.0066  0.0120  0.0497
13239W        W30087   2.774  11.995   3.675  0.0001 -0.1640  0.0648
13240W        W30088   7.663  18.156   2.600  0.0466 -0.0954 -0.0067
13241W        W30089  11.701  17.260   0.177 -0.1798  0.3360 -0.1601
13242W        W30090   6.046  17.679  15.562  0.0477 -0.1987 -0.3912
13243W        W30091  15.902  16.041   2.927  0.0869  0.0416  0.0189
13244W        W30092  13.336   0.569   1.029  0.1023 -0.0709 -0.0422
13245W        W30093  16.910   4.475   1.369  0.1325  0.1112  0.1756
13246W        W30094   0.299   1.927   1.588  0.0407 -0.4333 -0.2042
13247W        W30095  16.598   1.625  15.595 -0.2099 -0.0549 -0.1564
13248W        W30096   7.656  16.209  11.126  0.2347 -0.1120 -0.0697
13249W        W30097   5.509  10.171   0.521  0.1463  0.0779  0.3460
13250W        W30098   4.840  13.943  13.220  0.0202  0.2952  0.4118
13251W        W30099  15.935  12.185  13.980  0.0078  0.2511 -0.0598
13252W        W30100  16.328   8.728   2.726 -0.3395  0.1730  0.0281
13253W        W30101  16.183  13.343   0.264 -0.0518  0.0673 -0.2187
13254W        W30102   2.157   6.138   6.449  0.0639 -0.2051  0.2611
13255W        W30103  10.278  11.674   1.137 -0.0751  0.2560  0.1304
13256W        W30104   5.111  12.245  10.893  0.1273  0.1903 -0.0651
13257W        W30105  16.817   1.985  13.965 -0.0614  0.0681  0.0588
13258W        W30106   8.298  10.001   5.662  0.0726  0.0902  0.0501
13259W        W30107  17.626   2.098  13.093  0.2011  0.2613 -0.0861
13260W        W30108   7.976   5.724  10.945  0.2461 -0.2654 -0.1055
13261W        W30109   8.629   1.100  14.228  0.3667  0.1308  0.0147
13262W        W30110   8.223  16.570  15.982 -0.2796 -0.1082  0.2940
13263W        W30111   6.349   2.118  14.341 -0.0715 -0.3624  0.0522
13264W        W30112   6.624   9.771  15.264 -0.0053  0.0378  0.0224
13265W        W30113  17.270  17.723   4.194 -0.1148 -0.1675  0.0742
13266W        W30114   4.531  13.977  14.822 -0.2993  0.0562 -0.2213
13267W        W30115  17.111   2.358  14.847 -0.1227  0.0613  0.2352
13268W        W30116  11.139   8.310   5.767  0.0505 -0.0395  0.0421
13269W        W30117   9.547  12.651   4.815  0.1311 -0.0355  0.1078
13270W        W30118   3.062   1.311  12.685 -0.1281 -0.0379  0.3888
13271W        W30119  11.883   8.931   5.149  0.0487  0.1194 -0.2169
13272W        W30120   4.733   0.346   2.671 -0.1375 -0.1243  0.0321
13273W        W30121   4.091   8.005  15.823 -0.1635 -0.2201  0.2571
13274W        W30122   9.626  16.203  12.232  0.1737 -0.3400 -0.1810
13275W        W30123   9.624   7.358   5.101 -0.1198  0.3603 -0.3478
13276W        W30124   1.049   6.934  15.620 -0.2189  0.1159  0.0013
13277W        W30125  15.796   7.052   2.821 -0.1636 -0.0081 -0.1997
13278W        W30126  10.554  11.325  11.561  0.0568  0.2445 -0.0769
13279W        W30127   7.647   2.299   1.805  0.3167  0.0707 -0.2643
13280W        W30128   1.556   7.111  13.736 -0.0113  0.1143  0.0982
13281W        W30129  12.343  17.657  11.952  0.0188 -0.0667  0.0747
13282W        W30130   3.595   6.410   2.434 -0.0974  0.1831  0.1272
13283W        W30131   8.763   3.128  12.328  0.1824 -0.1593 -0.1913
13284W        W30132  15.783  18.179  15.019 -0.4015 -0.1060  0.1386
13285W        W30133  15.614   8.832   4.657  0.0804 -0.4046 -0.0579
13286W        W30134  14.247   1.882  14.327  0.0072  0.0215 -0.0148
13287W        W30135  10.353   1.495   1.335  0.0995  0.0071  0.2024
13288W        W30136   3.415  14.658  15.552  0.0125  0.2814 -0.0390
13289W        W30137   5.833  15.007  12.247  0.1942 -0.0027  0.1741
13290W        W30138  14.013   0.131  12.315  0.0531 -0.1350 -0.1861
13291W        W30139  14.119   6.397   0.787  0.1688  0.2780 -0.2005
13292W        W30140  10.138   4.246   1.454 -0.2608 -0.0111  0.0828
13293W        W30141  11.533   7.432   3.665 -0.0542 -0.0370  0.1118
13294W        W30142   5.384  14.128  11.822 -0.0428 -0.0221  0.3380
13295W        W30143   9.367   8.420  13.621 -0.1364  0.0496  0.1063
13296W        W30144   8.759  12.361   3.767 -0.0723 -0.1734  0.0138
13297W        W30145   1.143  14.805  13.983  0.0871  0.2499 -0.0903
13298W        W30146   6.516   8.540  13.838  0.2808 -0.0890  0.2648
13299W        W30147   5.152   6.011   0.452  0.1436  0.0957 -0.0567
13300W        W30148   2.194  13.834   0.048 -0.2379 -0.0607 -0.0238
13301W        W30149   5.722  10.170  12.261 -0.1650  0.4882  0.3596
13302W        W30150   6.528  11.379  13.760  0.2062 -0.1766  0.5465
13303W        W30151  13.427   1.296   2.630 -0.0165 -0.1607  0.1815
13304W        W30152   0.575   3.467  11.596  0.1850 -0.0958 -0.1699
13305W        W30153   0.802  13.865  11.742  0.0445  0.0836 -0.1507
13306W        W30154   2.354  14.037   4.978 -0.0897  0.2380 -0.1038
13307W        W30155  14.249  14.846  14.723  0.0384  0.3399 -0.0561
13308W        W30156   6.788   7.024   4.656 -0.2099  0.2080  0.2563
13309W        W30157  13.732   1.795  11.692 -0.0105 -0.2167 -0.2312
13310W        W30158  14.874   9.341   3.660  0.3400  0.1283 -0.0977
13311W        W30159   0.040  11.309  12.463  0.1548 -0.0755 -0.2884
13312W        W30160   4.617   4.943   3.697  0.0570 -0.0674  0.1806
13313W        W30161   9.385  11.947  12.805  0.1988  0.0060  0.1689
13314W        W30162   4.025  13.665  13.680 -0.0917 -0.0732 -0.1845
13315W        W30163   2.371   0.237  11.875 -0.3153  0.1081  0.0927
13316W        W30164  13.661  10.788  14.569 -0.0595  0.1281 -0.2023
13317W        W30165   8.323   1.527   4.000 -0.2590 -0.0115 -0.3481
13318W        W30166   7.923   9.728   1.909 -0.1125  0.7095 -0.0579
13319W        W30167   4.969   1.135  11.651  0.2436 -0.2118 -0.0462
13320W        W30168   4.263   9.186  12.192 -0.5001 -0.1889 -0.2870
13321W        W30169  12.472  15.811   3.082  0.2227  0.0532 -0.0040
13322W        W30170   4.253   0.463   3.741 -0.1136 -0.0492 -0.0703
13323W        W30171  12.620   9.380   3.108 -0.2005 -0.0575 -0.0939
13324W        W30172   6.118  17.534   2.192  0.1800  0.1198 -0.1539
13325W        W30173   9.261   2.266   2.549 -0.0754 -0.1625 -0.0399
13326W        W30174  12.246   4.830  14.296 -0.3583 -0.0985  0.0814
13327W        W30175  11.828   6.930   1.014 -0.1335 -0.0734 -0.2625
13328W        W30176  12.138  15.690   5.739  0.0287 -0.3150  0.3186
13329W        W30177  13.407   3.520  15.395 -0.1110 -0.2262 -0.2385
13330W        W30178   9.252  11.088  12.288  0.4715 -0.0200 -0.2115
13331W        W30179  13.404   4.364   4.828 -0.2936 -0.3261  0.1297
13332W        W30180  16.868  16.327  12.808  0.0650  0.1942  0.0767
13333W        W30181   6.079  11.171   2.604  0.2339  0.1035 -0.1339
13334W        W30182   5.102   1.737   1.941 -0.0177  0.0697 -0.0340
13335W        W30183  18.214   0.466   5.031  0.1535 -0.0923  0.2853
13336W        W30184   1.351   3.198   1.701  0.1371  0.3250 -0.3607
13337W        W30185  15.414  14.507   5.150 -0.1066 -0.0502 -0.0639
13338W        W30186  15.807   9.788  16.079 -0.3535  0.0324  0.1283
13339W        W30187  12.411  17.172   3.930 -0.1438 -0.2104 -0.5183
13340W        W30188  17.674   3.931  15.144  0.4064 -0.1146  0.1046
13341W        W30189   8.306  12.896  12.287 -0.3902  0.0191  0.1539
13342W        W30190   9.931  13.959  14.782  0.2779  0.0747 -0.1158
13343W        W30191   6.330   1.861  12.540  0.1936 -0.2597 -0.7692
13344W        W30192  10.721   5.093  11.936  0.1446  0.1061 -0.2080
13345W        W30193   8.863   9.175   4.634  0.0338  0.2437 -0.1762
13346W        W30194  13.561   0.430   0.110  0.2718  0.1161 -0.1210
13347W        W30195   2.663  13.916   2.734 -0.1579  0.3474 -0.0002
13348W        W30196   7.178  10.160   0.494  0.1516  0.2993  0.0525
13349W        W30197  12.828  12.248  12.841  0.0253 -0.1357  0.2480
13350W        W30198   1.098  14.200  13.433  0.0666 -0.3249 -0.2681
13351W        W30199  16.401   3.072  13.151  0.1738 -0.0906 -0.1166
13352W        W30200  10.579   1.765  13.893 -0.1012 -0.0364 -0.1401
13353W        W30201   4.755   3.910   5.091  0.2489  0.1384  0.3219
13354W        W30202   3.458  17.828  15.947  0.1986  0.0582  0.0941
13355W        W30203   3.745   9.210   4.382  0.1759  0.3898  0.2089
13356W        W30204   9.938   9.585  13.294  0.1162 -0.1705  0.0644
13357W        W30205   2.315   4.970   3.512  0.0249 -0.2162  0.0303
13358W        W30206  15.032  14.731   3.492 -0.2310  0.0841 -0.0707
13359W        W30207   3.996   7.405  10.612  0.0318 -0.0009  0.1498
13360W        W30208   7.713  13.401   2.600 -0.0932 -0.2926  0.1368
13361W        W30209   6.876  10.460   0.789 -0.0605 -0.0110  0.1680
13362W        W30210  16.974   7.020   4.660  0.2050  0.0507  0.0210
13363W        W30211   2.937  16.816  14.386 -0.0421 -0.1204  0.0968
13364W        W30212   0.666   7.156   3.638  0.1151  0.3729 -0.1773
13365W        W30213  15.570  15.074   4.482  0.1315  0.3782 -0.2095
13366W        W30214   8.093   1.903  15.800 -0.1246 -0.0028  0.0103
13367W        W30215  12.920  11.381   4.529 -0.1440  0.2374 -0.2868
13368W        W30216   5.610   1.607   5.098 -0.1435 -0.0986  0.0799
13369W        W30217  13.824   9.009   4.636  0.0835 -0.1245 -0.1282
13370W        W30218   2.926  11.227  12.703 -0.2959  0.1343  0.0902
13371W        W30219  12.855   8.695  16.066 -0.3510 -0.1067  0.3536
13372W        W30220   5.827   3.873  12.356  0.4632 -0.0415 -0.0031
13373W        W30221   2.935   4.392   2.802  0.0915  0.0074  0.4004
13374W        W30222   9.534  18.183  13.472  0.0258 -0.1628 -0.0736
13375W        W30223   4.408   0.155  13.950 -0.2744 -0.2202 -0.3339
13376W        W30224   8.264   0.088   0.340  0.1924 -0.1046  0.0399
13377W        W30225   4.048   1.055  14.188  0.0104  0.4077 -0.4203
13378W        W30226   5.772   1.527  13.796  0.1235 -0.1184 -0.0493
13379W        W30227  18.124   0.860  15.479  0.0452 -0.0953  0.1845
13380W        W30228   3.936  16.574  15.543 -0.2018  0.1705  0.0715
13381W        W30229   7.157  14.005   3.112  0.1602  0.3752 -0.0986
13382W        W30230  16.484   2.030  12.415 -0.1515 -0.1814 -0.0181
13383W        W30231   2.127   3.901   2.240 -0.1042  0.0316  0.0335
13384W        W30232   9.381  16.124  15.211  0.0326  0.0606  0.2498
13385W        W30233  14.305  12.932   3.692 -0.0326  0.5878  0.1672
13386W        W30234  12.098   3.851   0.091 -0.2326  0.0593  0.0220
13387W        W30235  13.791  15.967   2.153 -0.1747  0.1128  0.2153
13388W        W30236  17.738  15.583  11.222  0.1307 -0.1432 -0.0216
13389W        W30237  10.845   8.068   0.829 -0.0314 -0.2083  0.0804
13390W        W30238   7.645   7.011   1.087 -0.2417  0.2978 -0.3482
13391W        W30239  15.721   6.727   3.963  0.0225  0.0903  0.1876
13392W        W30240  10.212   7.543  15.181 -0.0876  0.1555  0.3853
13393W        W30241  15.627   5.892  12.818 -0.0523 -0.1772  0.1599
13394W        W30242  18.087  13.630   4.432 -0.3028 -0.2938 -0.0953
13395W        W30243  16.405  11.495  15.043  0.1643  0.0472 -0.2053
13396W        W30244   7.736  16.220  15.981  0.0251 -0.0132  0.2252
13397W        W30245   0.172   6.642   4.362 -0.1257  0.0360  0.1516
13398W        W30246  11.386  11.908  12.482 -0.2018  0.0134  0.0980
13399W        W30247  13.739  17.801  10.270  0.0110  0.0340  0.1404
13400W        W30248   9.527   9.407   1.036 -0.0882  0.1825 -0.3233
13401W        W30249  14.088  10.434  14.578 -0.1306 -0.0780 -0.2011
13402W        W30250   5.152  10.085   5.505 -0.0596  0.1666 -0.1664
13403W        W30251  11.117   2.830   2.392  0.2780  0.2839 -0.1175
13404W        W30252   6.603   1.997  14.811  0.2921  0.0182 -0.1573
13405W        W30253  12.396   4.344  15.544  0.0295  0.0338  0.2237
13406W        W30254   4.125   0.800   1.596  0.0482  0.1011  0.0182
13407W        W30255   6.287   9.311  13.732 -0.1990 -0.4395  0.2182
13408W        W30256   8.947   6.523   1.205 -0.3160  0.2380 -0.0962
13409W        W30257  15.862  11.824   0.192  0.3008 -0.0589 -0.1297
13410W        W30258   9.752   4.708   5.888  0.1082  0.1416  0.0239
13411W        W30259  17.480  10.800   1.017  0.2220  0.1648 -0.1011
13412W        W30260  13.086   2.828  13.284  0.3858 -0.0162  0.1019
13413W        W30261   2.904   1.197   4.535  0.0446  0.1031 -0.0588
13414W        W30262   5.394  12.012  12.548  0.2462  0.2602  0.1761
13415W        W30263  15.838   3.297  12.991  0.1541  0.1138 -0.0166
13416W        W30264   1.435   6.990   4.815 -0.1270 -0.1717 -0.1803
13417W        W30265   3.933   1.800   5.559 -0.0319  0.3222 -0.1046
13418W        W30266  17.671  16.096  11.249 -0.0421 -0.1630  0.0819
13419W        W30267   4.469   2.582  11.328 -0.2479  0.2379  0.0210
13420W        W30268   7.403  15.911  14.241  0.2101 -0.1962 -0.2623
13421W        W30269  15.843   6.132   1.041 -0.0306 -0.1525  0.2803
13422W        W30270  12.656  13.475   1.036 -0.0700  0.1354  0.1343
13423W        W30271   8.892  15.279  11.210  0.5723  0.2201  0.0234
13424W        W30272   9.687   1.988  12.180 -0.2333 -0.1857  0.1456
13425W        W30273  13.855   5.257  14.859  0.0465 -0.2258 -0.0082
13426W        W30274   0.509   2.654  13.047 -0.2591  0.1843 -0.0647
13427W        W30275  14.944   9.064  13.635 -0.0357  0.0838 -0.1430
13428W        W30276  11.359   4.186  14.405 -0.0396  0.1186 -0.0454
13429W        W30277  15.340   4.592   4.456  0.1414 -0.1993  0.0733
13430W        W30278   3.550   5.038   3.391  0.1648  0.1570  0.2572
13431W        W30279  15.299   3.053   1.210  0.1789  0.2626  0.4275
13432W        W30280   6.153  11.487  10.693  0.1904 -0.1734  0.1136
13433W        W30281   8.365   7.328  15.719  0.0587 -0.1159  0.2215
13434W        W30282  13.353  13.276  13.976 -0.0101 -0.4915 -0.3490
13435W        W30283  13.943  15.599  12.849  0.2221  0.1005 -0.1980
13436W        W30284  13.346   3.564   1.940  0.0803 -0.0401 -0.2890
13437W        W30285   1.057  10.346  15.277 -0.0338 -0.0031 -0.1271
13438W        W30286  15.867  12.070  15.824 -0.1343  0.0757  0.0008
13439W        W30287   2.102   1.921  14.665  0.0145 -0.3794  0.1003
13440W        W30288  10.613   2.254  15.128  0.1989 -0.2512 -0.1708
13441W        W30289  14.648   8.065   0.843 -0.2094  0.4726 -0.0182
13442W        W30290   0.495   6.549  11.946  0.2093  0.0862  0.0553
13443W        W30291   5.885   1.972   1.087  0.0057 -0.0560 -0.1182
13444W        W30292   2.307   5.478   0.155 -0.2008 -0.1377  0.1385
13445W        W30293   9.366   0.229   3.941  0.4040 -0.1879  0.0987
13446W        W30294  10.934  15.495   1.384 -0.0497 -0.0752 -0.0484
13447W        W30295   4.373  14.386  15.287 -0.0997 -0.0557 -0.1023
13448W        W30296   4.264   1.848   1.812  0.2037 -0.0027 -0.5120
13449W        W30297  12.343  13.830  15.771  0.2208  0.0480 -0.1087
13450W        W30298   7.883   0.386  16.010 -0.0706  0.0405  0.1887
13451W        W30299   5.201   0.716   1.239 -0.1768 -0.2196 -0.1230
13452W        W30300  16.909   9.629  12.494  0.0285 -0.0787  0.7719
13453W        W30301  14.272   2.944   1.241  0.2082 -0.0133 -0.4210
13454W        W30302   0.824  13.666  15.530 -0.2490 -0.0737 -0.0238
13455W        W30303  11.630   9.992   1.340  0.2993 -0.0431  0.3203
13456W        W30304  11.308  12.369   1.540 -0.1859 -0.2920  0.0446
13457W        W30305   4.156   9.159  15.192  0.1428 -0.0453 -0.2095
13458W        W30306   8.036  13.505  11.167 -0.1476 -0.0714 -0.2369
13459W        W30307  13.737   5.624  15.323 -0.2178 -0.4244  0.1855
13460W        W30308  17.208   2.643   3.678 -0.0634 -0.2595 -0.0526
13461W        W30309   5.059   3.512  13.171 -0.0910  0.1368  0.0419
13462W        W30310   7.166   2.516  15.004 -0.1227 -0.1798 -0.1201
13463W        W30311  10.151  18.014   1.453 -0.1466  0.2629 -0.1285
13464W        W30312  10.568  16.835   4.749 -0.1988 -0.1463  0.1859
13465W        W30313  11.287   3.859   1.807  0.0545 -0.0630 -0.1598
13466W        W30314   5.221  14.759   2.638  0.0465 -0.1791  0.2860
13467W        W30315  16.671   8.045  13.567  0.1571 -0.3542  0.1841
13468W        W30316  13.846  13.872  14.630  0.0121  0.2894 -0.1197
13469W        W30317   7.481   5.302   4.218 -0.2412  0.1967  0.1563
13470W        W30318   6.892  16.914  11.984 -0.0958  0.2539 -0.2463
13471W        W30319  16.546   4.474   1.786 -0.3582 -0.2032 -0.1945
13472W        W30320   8.983   2.699   2.466  0.0116  0.0766 -0.0575
13473W        W30321   0.692   5.346   2.578 -0.3226  0.4961  0.3464
13474W        W30322   0.660  18.118   1.152  0.5482 -0.0570  0.0865
13475W        W30323  15.928   5.124   3.034 -0.2744  0.4377 -0.2037
13476W        W30324   5.176  13.937   2.148 -0.1833  0.0826 -0.0889
13477W        W30325  11.126  15.052  14.374  0.4650 -0.1457  0.1805
13478W        W30326  16.757  11.659   4.580 -0.0704  0.0294  0.1227
13479W        W30327  14.991  17.558   2.061 -0.5928  0.5298 -0.0385
13480W        W30328   5.893  12.812   4.297  0.0214  0.2013 -0.5769
13481W        W30329   4.178  13.289  12.718  0.0346 -0.3261 -0.2008
13482W        W30330   7.563  15.695   0.509  0.0927 -0.3200 -0.1258
13483W        W30331   6.441  17.410   3.384 -0.0209 -0.0562 -0.2086
13484W        W30332   4.677  11.652  14.818 -0.1544  0.1099  0.2881
13485W        W30333   7.412  15.879  14.807 -0.0396  0.1895  0.0370
13486W        W30334  11.854  17.648  14.421  0.0044  0.0533 -0.0735
13487W        W30335   0.421   2.542   0.314 -0.1733 -0.1476 -0.0397
13488W        W30336   1.609  12.098  11.793  0.2671 -0.0266  0.1494
13489W        W30337   7.895   9.082  13.441 -0.0613 -0.1331 -0.1848
13490W        W30338  17.121   1.309   2.707  0.4724  0.0814 -0.0279
13491W        W30339   0.029   9.492  10.944 -0.1565  0.0236 -0.0077
13492W        W30340  14.115  13.765  10.458  0.2837 -0.0701 -0.1208
13493W        W30341  15.795  12.963   4.811  0.1553 -0.1191 -0.2742
13494W        W30342   7.542   6.356   3.909  0.1305  0.0871 -0.0574
13495W        W30343  16.971  13.657   2.354  0.0359  0.3039 -0.0586
13496W        W30344  16.141  11.665  15.967 -0.0344 -0.2176  0.0410
13497W        W30345   2.799   7.739  16.000 -0.0170 -0.1883  0.0648
13498W        W30346  12.370  15.424   5.422 -0.0740  0.2123 -0.0759
13499W        W30347  14.690   3.803   1.784  0.2717 -0.2247 -0.2360
13500W        W30348   0.619   9.773  15.232  0.2411 -0.1421  0.1519
13501W        W30349   5.780  15.813   3.284  0.0975 -0.1453  0.2649
13502W        W30350   6.605   5.607   2.589 -0.1050  0.1428  0.2271
13503W        W30351   9.768  16.218   0.430  0.0433 -0.0270 -0.1269
13504W        W30352   0.911  17.901   4.442  0.1314 -0.2631 -0.2773
13505W        W30353  16.625   3.166  14.904  0.1861 -0.1375 -0.3374
13506W        W30354  10.165  12.941  14.510 -0.5951  0.0640 -0.0698
13507W        W30355   3.845   8.697   0.304 -0.2493  0.1712 -0.2955
13508W        W30356   1.506  16.235   1.479  0.3199 -0.2262 -0.4104
13509W        W30357   8.618  17.739   2.697 -0.2519 -0.1657 -0.0137
13510W        W30358  17.768  16.135   2.690  0.2595 -0.0589  0.2491
13511W        W30359   5.498   2.476  14.300  0.5035  0.3957  0.1044
13512W        W30360  11.669   2.719   3.658 -0.0990 -0.1538 -0.0052
13513W        W30361  17.582  12.715   4.462  0.1042 -0.2779 -0.2449
13514W        W30362   6.712   8.476  14.383 -0.1668  0.0308 -0.3763
13515W        W30363   6.044  12.194  12.788 -0.0731  0.2232  0.0796
13516W        W30364   6.755   5.550  15.281  0.1607  0.4525  0.0864
13517W        W30365  15.179   2.349   1.374  0.0524 -0.0111 -0.0071
13518W        W30366   4.008   7.926   0.774 -0.1221 -0.1639  0.2493
13519W        W30367  10.787  12.114   2.980  0.0432  0.1877  0.0576
13520W        W30368   4.460  16.019  14.915  0.0737  0.0639 -0.4630
13521W        W30369   8.203  12.180   0.199 -0.2778  0.1069 -0.1892
13522W        W30370  17.877  16.047   4.488  0.0166 -0.0520 -0.6181
13523W        W30371   9.902   7.355  14.180  0.0816 -0.3817 -0.1618
13524W        W30372   1.906   5.397  13.451  0.0823  0.2024 -0.2695
13525W        W30373   3.141  11.728  14.804  0.0925  0.0336 -0.5353
13526W        W30374  12.163  16.980   1.248 -0.0057  0.1078  0.0708
13527W        W30375   4.288  14.585   5.959 -0.1672 -0.2109  0.0416
13528W        W30376   4.630  15.169   2.005 -0.1589 -0.0255 -0.1336
13529W        W30377  10.432   9.802  15.646  0.2240 -0.0256 -0.1586
13530W        W30378   5.447   8.142  12.083  0.4000  0.0872 -0.1306
13531W        W30379   9.245   3.964   5.426  0.1171 -0.2240  0.1529
13532W        W30380  11.584  11.098   3.485  0.1226  0.4291  0.1123
13533W        W30381  16.399   1.986   1.540  0.3762 -0.0358 -0.1554
13534W        W30382   1.133  11.042   0.309 -0.1371 -0.1365 -0.3556
13535W        W30383   8.494  12.372  12.352 -0.0248 -0.4701  0.0425
13536W        W30384  17.985   2.763   4.895  0.0770  0.0941 -0.1208
13537W        W30385  16.599  15.680  15.420 -0.2455 -0.2567  0.2841
13538W        W30386  10.370   1.855   2.074  0.0744  0.0585 -0.2445
13539W        W30387  17.183   6.833  13.017 -0.1444 -0.4411 -0.1881
13540W        W30388   0.523   8.280   5.124  0.0725 -0.3007  0.2087
13541W        W30389  13.303   6.223  11.196 -0.0473  0.0996  0.1032
13542W        W30390   6.291  16.115  11.870 -0.0567  0.0719  0.1200
13543W        W30391   3.864   9.744   4.244  0.2522  0.0106 -0.1616
13544W        W30392   6.911   0.263  11.221 -0.0865 -0.0229 -0.4867
13545W        W30393  17.496   5.818   4.866 -0.2034  0.0246 -0.0572
13546W        W30394  11.975  10.360   1.108  0.2584  0.3262 -0.0524
13547W        W30395   3.417  10.210  14.565 -0.0309  0.2114  0.0665
13548W        W30396  15.210  15.337  13.419 -0.1752  0.0886 -0.2079
13549W        W30397  16.564  14.663  11.154 -0.1751 -0.5413 -0.1357
13550W        W30398   6.531  17.556   1.929  0.0373  0.3333  0.0519
13551W        W30399   3.695   3.313  11.815  0.1140 -0.0181 -0.1268
13552W        W30400   9.553  10.725  13.518  0.1180 -0.0315 -0.1667
13553W        W30401   5.797   4.854  13.614 -0.0313 -0.0707 -0.4538
13554W        W30402  11.645   3.295  11.741 -0.1605 -0.0771 -0.1039
13555W        W30403   3.971  13.383   5.630  0.2760  0.0844  0.0026
13556W        W30404   3.389   8.655  14.728 -0.0137 -0.1313 -0.2715
13557W        W30405   3.227   8.508   4.526 -0.1822  0.0247 -0.0227
13558W        W30406   6.596   6.367   3.859  0.0946 -0.1059 -0.0616
13559W        W30407   8.935   5.703  14.385  0.0913  0.2606 -0.1145
13560W        W30408   1.484  18.088  10.054 -0.4620 -0.3101 -0.0509
13561W        W30409   2.376   3.432   1.711 -0.3851  0.1077  0.2638
13562W        W30410   7.834  14.628   4.220  0.0164 -0.1923 -0.4875
13563W        W30411  17.460   2.237  11.836 -0.0917  0.2559 -0.2694
13564W        W30412   4.888   2.546   1.672 -0.2853  0.5530 -0.2105
13565W        W30413   5.071  16.108  14.343 -0.0906  0.2979 -0.0811
13566W        W30414   5.659  12.406   1.443 -0.3914 -0.0868 -0.0187
13567W        W30415   5.961   4.322   2.752 -0.1029 -0.2319  0.0446
13568W        W30416   4.344   4.138  11.076 -0.1224 -0.0772 -0.1209
13569W        W30417  13.793   7.546  14.224 -0.2630 -0.4028 -0.3035
13570W        W30418  18.020  14.669  14.318  0.1770  0.1504 -0.0085
13571W        W30419   5.396   6.473  13.932 -0.1741  0.0828 -0.0311
13572W        W30420   1.519   4.838  15.905 -0.0119  0.1048  0.2163
13573W        W30421  13.240   7.240   0.446  0.0277  0.0949  0.2006
13574W        W30422  12.225   3.045  13.187  0.1528  0.0765  0.1525
13575W        W30423   1.267   2.799  15.950  0.0677 -0.0933 -0.0018
13576W        W30424  12.542   6.791   1.771 -0.0313 -0.1309 -0.1512
13577W        W30425   5.511  16.467  13.381  0.1209 -0.2542 -0.1926
13578W        W30426  17.833   1.866  14.639 -0.2718  0.3494 -0.0847
13579W        W30427  16.473  15.351  12.567  0.3224  0.0773 -0.0607
13580W        W30428   3.013  13.709   0.002  0.0596 -0.0396  0.0207
13581W        W30429  15.354  13.068   3.868  0.3355 -0.1744 -0.1534
13582W        W30430   0.622   6.908   1.592  0.1642  0.3113 -0.1764
13583W        W30431   4.860  12.244  11.351 -0.5126  0.0266  0.0045
13584W        W30432  12.950   4.363  15.223 -0.0234 -0.3541 -0.0903
13585W        W30433  15.544  15.201   3.975 -0.1149 -0.1170  0.0660
13586W        W30434   5.344  17.720   1.435 -0.0888  0.2416  0.0373
13587W        W30435   7.704  15.446   2.261  0.1720  0.1059 -0.0885
13588W        W30436   1.925   4.958   4.068 -0.0187 -0.2071  0.1357
13589W        W30437   3.415   7.298   1.463 -0.0698  0.1452 -0.1436
13590W        W30438  14.517   7.893   4.114 -0.4904  0.3430 -0.0185
13591W        W30439   3.349  15.926   1.028  0.1588  0.0681 -0.1086
13592W        W30440  12.472   7.788   2.837  0.1056  0.0858  0.0336
13593W        W30441   5.655   8.395   0.596 -0.0395 -0.1457 -0.2020
13594W        W30442   3.813   2.253  11.557  0.1086 -0.1895  0.0191
13595W        W30443  15.997   1.301  12.384  0.0479 -0.0307 -0.2076
13596W        W30444   9.744  17.010  13.224  0.0224  0.2262  0.1258
13597W        W30445  13.049   7.045   2.783 -0.1126  0.0216 -0.0611
13598W        W30446  12.529   9.689  14.775 -0.0590  0.0375  0.1407
13599W        W30447   3.895  11.436   2.212 -0.0182 -0.0882 -0.0260
13600W        W30448  17.813   4.164   3.685 -0.1317 -0.0972 -0.1604
13601W        W30449   5.991   3.367   1.359  0.2415 -0.0848 -0.2478
13602W        W30450   0.386  18.116   0.531 -0.0089  0.0706  0.1882
13603W        W30451   3.246   7.764   0.189 -0.0636 -0.1791  0.0902
13604W        W30452   5.864  14.955   0.121 -0.1322  0.1318  0.3148
13605W        W30453   8.706   0.664   1.281 -0.0240  0.2912 -0.1504
13606W        W30454   1.213   0.481   3.954 -0.2523  0.0184  0.1034
13607W        W30455   8.071  15.290   4.962  0.0564  0.2636 -0.2612
13608W        W30456   4.520   0.771  14.095 -0.1332 -0.1447 -0.0770
13609W        W30457   6.904  15.846   0.465  0.1776 -0.1577 -0.3683
13610W        W30458  12.399  15.768  14.522 -0.1100 -0.0499 -0.0031
13611W        W30459   0.862  15.418  13.397 -0.2009  0.0824  0.0969
13612W        W30460   6.994  11.441   4.710  0.2017  0.1490  0.1591
13613W        W30461  15.106  15.070  11.526 -0.0206  0.1924  0.1198
13614W        W30462  12.737  11.710  10.741 -0.2806  0.4062 -0.0670
13615W        W30463   5.721  15.248   1.178 -0.1071  0.0310  0.2279
13616W        W30464   9.116   9.326   0.114 -0.1060  0.0422 -0.3128
13617W        W30465   0.650   3.015  11.424  0.1004 -0.0793 -0.5601
13618W        W30466  12.191   5.649   6.064  0.1700 -0.1138 -0.1289
13619W        W30467  17.229  12.549   3.489  0.1494  0.1075  0.3091
13620W        W30468  10.847   7.003   0.763 -0.1632 -0.1197 -0.0703
13621W        W30469   0.763  17.339  15.407  0.0401  0.0370  0.1158
13622W        W30470   3.237  16.537   2.266  0.0580  0.2126 -0.1717
13623W        W30471   6.117  10.613  13.620 -0.1941  0.3169  0.3037
13624W        W30472   5.821   6.591  16.103 -0.4277  0.1884 -0.0427
13625W        W30473   3.009  16.610  14.909  0.1104  0.0934  0.1214
13626W        W30474  14.147   3.680   3.617 -0.1066  0.2178  0.0202
13627W        W30475  16.893   2.348  13.106 -0.1947  0.2247  0.2105
13628W        W30476  17.177   7.250  13.332 -0.3543 -0.0483 -0.1791
13629W        W30477  13.968  16.063   4.420  0.0899  0.1723  0.2490
13630W        W30478  12.948  15.307   2.137 -0.3463 -0.2789  0.0348
13631W        W30479   7.223   1.873  11.497  0.3182  0.2187 -0.2301
13632W        W30480  13.012  17.962  10.092  0.0464  0.0603 -0.3859
13633W        W30481  16.736  17.783   1.666 -0.0553  0.1406  0.4317
13634W        W30482  11.494  13.159   3.182  0.2838 -0.1378  0.0725
13635W        W30483  16.307  17.355  14.617  0.1549 -0.1406  0.0711
13636W        W30484  14.557  15.405   1.565 -0.2209  0.1014 -0.0109
13637W        W30485   9.085  11.993  13.191 -0.4477  0.0306 -0.1500
13638W        W30486  10.058   0.126  13.282 -0.0862 -0.1421  0.2600
13639W        W30487   9.606  10.055  12.298 -0.1575 -0.1240 -0.0442
13640W        W30488  12.357  11.807   4.934  0.0812 -0.0661  0.0561
13641W        W30489   9.210  14.286  15.272  0.0587  0.0109 -0.1921
13642W        W30490  16.772  13.778  14.747  0.2521 -0.0336 -0.0017
13643W        W30491  11.381  12.536  11.927  0.0224  0.2789 -0.5810
13644W        W30492  15.781   9.683   3.269 -0.1986  0.2833 -0.0074
13645W        W30493  15.912   4.879  11.388 -0.2455  0.0887  0.0197
13646W        W30494  10.835   1.857   3.719 -0.0043  0.1311 -0.0995
13647W        W30495  15.144   3.526   0.487  0.1884 -0.3102  0.0101
13648W        W30496   0.762  18.205  13.205  0.2752  0.1995 -0.1338
13649W        W30497   9.103  13.098   4.047  0.0843  0.2436  0.0843
13650W        W30498   5.180   6.479   4.515  0.0193 -0.2302  0.3583
13651W        W30499   3.081  13.236  11.976  0.1220  0.0622  0.1106
13652W        W30500   2.787  13.447   1.106  0.3732  0.0398  0.0727
13653W        W30501   2.049  13.891  10.022  0.1628  0.1705 -0.0508
13654W        W30502  16.162   4.231   1.643  0.1175  0.1193 -0.0589
13655W        W30503  14.535  10.773  13.389 -0.0382  0.0201 -0.5127
13656W        W30504  14.661   4.987  12.874  0.0817 -0.2406  0.2390
13657W        W30505   9.748  12.340   0.066 -0.2811 -0.1822  0.0876
13658W        W30506   9.907  10.127   0.139 -0.3185  0.0360 -0.1180
13659W        W30507   3.581  11.529   2.834  0.0572 -0.0565  0.1234
13660W        W30508  16.696   8.361   2.899 -0.3594  0.2306 -0.2736
13661W        W30509  10.636   9.300   0.012  0.3041  0.0535 -0.1038
13662W        W30510   3.686   0.827  11.768  0.2342  0.0868 -0.0339
13663W        W30511   0.882  10.531   4.895 -0.0305  0.1333  0.0266
13664W        W30512   0.136   0.022   5.243  0.1612 -0.0974  0.1791
13665W        W30513  12.001  13.499  11.606  0.0815  0.1500  0.2062
13666W        W30514  12.306   1.312  13.391 -0.3510  0.1508 -0.0877
13667W        W30515   9.087   7.963  13.404  0.1553 -0.1274 -0.1148
13668W        W30516  11.788   3.391  14.160 -0.1276  0.2531 -0.0501
13669W        W30517   2.023   5.889  11.709  0.0323 -0.1414 -0.0626
13670W        W30518   7.209   5.532  12.964  0.0399  0.2995 -0.0837
13671W        W30519   6.190   8.831  13.660 -0.0607 -0.3746 -0.3380
13672W        W30520   7.367   2.022  14.900  0.1875  0.0595  0.2141
13673W        W30521   8.109  16.902  12.091  0.1406  0.2309 -0.1781
13674W        W30522  16.328   7.166   1.037  0.0967  0.1578  0.0669
13675W        W30523   8.058  17.830   0.406 -0.4588 -0.2310  0.1258
13676W        W30524  10.669  12.903  14.578 -0.1199 -0.0523  0.0292
13677W        W30525  14.513   7.276   1.942 -0.0284 -0.0385 -0.0481
13678W        W30526   5.396   0.440  11.872  0.1285  0.1535  0.0478
13679W        W30527  11.454  12.823  14.024 -0.0685  0.0890  0.4645
13680W        W30528   4.243   5.200  13.292 -0.1161  0.0810  0.0715
13681W        W30529   8.173   6.244  13.439 -0.1239  0.1561  0.2812
13682W        W30530  12.894   7.725  13.596 -0.2409  0.0609 -0.1450
13683W        W30531  14.263   1.559  11.031  0.4211 -0.0451 -0.0650
13684W        W30532  14.669   8.377   2.809 -0.2427  0.2817  0.0778
13685W        W30533   8.097  10.516   0.621  0.1710  0.0170  0.2508
13686W        W30534   7.035  12.907   3.028  0.3667 -0.0292  0.2942
13687W        W30535  12.701   2.943  15.445  0.0411 -0.0255 -0.4364
13688W        W30536   2.046  17.398  15.693 -0.1494  0.1226  0.0860
13689W        W30537  12.767  13.839  13.968 -0.2524  0.2291 -0.0867
13690W        W30538  14.443  13.322  16.039  0.2617 -0.0787  0.1619
13691W        W30539   5.727   1.054  13.089  0.0012 -0.0144 -0.1003
13692W        W30540   5.130  13.935  14.750 -0.2855  0.3603  0.0364
13693W        W30541  16.434   1.757  11.026 -0.2234 -0.0992  0.2403
13694W        W30542  17.371   4.914  13.716 -0.2870  0.0102  0.1490
13695W        W30543   6.798   8.174   1.671  0.1672  0.0347 -0.0366
13696W        W30544   3.221   8.199  15.802  0.1228  0.1179  0.1474
13697W        W30545   6.607   6.597  15.736 -0.1903 -0.2052 -0.0979
13698W        W30546   7.930  11.227   1.221 -0.2822 -0.1358  0.4010
13699W        W30547  11.214  13.543   4.605  0.0091 -0.3556 -0.2529
13700W        W30548   0.017   6.990  11.213 -0.0108  0.0732 -0.0332
13701W        W30549  16.768   5.254  11.779  0.0007  0.1092  0.0233
13702W        W30550  17.887   0.968  15.043 -0.2984  0.1547 -0.3064
13703W        W30551   5.229   1.079  13.219 -0.1743 -0.2164 -0.1610
13704W        W30552  18.195  15.945   3.707  0.0569  0.1222 -0.0238
13705W        W30553  10.084  15.658  13.812  0.0963  0.1518 -0.1489
13706W        W30554  17.485  14.293  12.343  0.0017  0.1864  0.1861
13707W        W30555  17.641  12.421  13.958  0.1537 -0.3104 -0.1254
13708W        W30556   7.890  15.979  14.174 -0.0541 -0.1456 -0.0765
13709W        W30557   4.667  15.612   3.304 -0.1934  0.0229 -0.3153
13710W        W30558   6.743   2.412   3.658 -0.2143 -0.0303  0.0860
13711W        W30559  10.085   5.311   4.409  0.0122  0.0278 -0.0161
13712W        W30560   4.196   5.698   5.355 -0.1336 -0.0565 -0.1364
13713W        W30561  15.494  11.712  15.970  0.1516  0.0730  0.2336
13714W        W30562   3.661  11.843  14.801  0.0115  0.1078  0.1937
13715W        W30563   9.344   0.676   0.051 -0.1541 -0.2470 -0.1279
13716W        W30564   6.582  16.057   2.692  0.0295  0.0380 -0.0028
13717W        W30565  10.996  15.447   0.163  0.2494 -0.3402  0.1342
13718W        W30566   2.993   8.458  13.735  0.2779 -0.1870 -0.0681
13719W        W30567   4.072   1.719   4.472 -0.0988 -0.1177 -0.4127
13720W        W30568   6.461   1.572   5.372 -0.0514 -0.0729  0.0019
13721W        W30569   3.558   3.892  14.463  0.1073 -0.0089 -0.0038
13722W        W30570   2.293  11.529   1.503 -0.0372  0.1940 -0.1365
13723W        W30571   8.197   7.564   5.892 -0.1090  0.3253  0.4544
13724W        W30572   3.744   6.501  11.695  0.1119 -0.0064 -0.0888
13725W        W30573  11.119   1.846   0.098 -0.0853 -0.1135  0.2540
13726W        W30574  12.245   5.171  12.123  0.0142 -0.1854 -0.3129
13727W        W30575   6.252   1.773   4.541  0.3881 -0.1310 -0.1949
13728W        W30576   4.678  17.704   0.912 -0.1359 -0.2421  0.0264
13729W        W30577  14.064   0.141  12.799  0.1764  0.2042  0.2619
13730W        W30578  11.956   6.466   6.076  0.0763  0.3394 -0.1976
13731W        W30579  10.977   8.189   5.300 -0.1464  0.0164 -0.1877
13732W        W30580  12.413   2.371  15.326 -0.0429 -0.0094 -0.1987
13733W        W30581   9.328  17.512  11.776  0.1884  0.0487  0.1401
13734W        W30582   5.137  13.734  11.564 -0.1330 -0.0161 -0.0264
13735W        W30583  17.006   9.318  11.825 -0.2143  0.1346  0.0693
13736W        W30584  12.030   8.033   2.876 -0.1277 -0.1373 -0.1067
13737W        W30585   4.796   6.838   3.583  0.1903 -0.3057 -0.0236
13738W        W30586   5.539  16.188   4.510 -0.1985  0.1563 -0.2695
13739W        W30587   9.257  11.056  13.007 -0.0534  0.2594 -0.4830
13740W        W30588  14.757  14.674  11.607 -0.0208 -0.0754  0.0066
13741W        W30589   3.633  13.789   2.345  0.0214  0.1786  0.1371
13742W        W30590  11.860  16.368  12.417  0.2254  0.1685  0.1713
13743W        W30591  12.612  13.052  12.524 -0.1028 -0.0161 -0.0206
13744W        W30592   6.799   4.544   0.623 -0.1393  0.1469 -0.0850
13745W        W30593   8.437   0.010  10.429 -0.3150  0.2413  0.1258
13746W        W30594  10.551  15.622  15.134 -0.2429 -0.1293 -0.0520
13747W        W30595  12.945   6.122   2.535 -0.4438  0.1703  0.1512
13748W        W30596   2.924  15.163  11.089 -0.1154  0.1455  0.1480
13749W        W30597   3.111   4.883  12.660  0.1198 -0.0750  0.1103
13750W        W30598  17.170  13.379  14.821  0.0439 -0.0139 -0.0952
13751W        W30599  12.307  15.003   0.639  0.2376 -0.4882  0.0300
13752W        W30600   3.503   7.276   5.069 -0.1924  0.1430  0.1825
13753W        W30601   0.186  15.215  13.830 -0.3012 -0.0870 -0.2238
13754W        W30602   0.001  12.008   4.307 -0.1225  0.3896 -0.0219
13755W        W30603  15.008   9.386  12.592  0.0375 -0.2249  0.1772
13756W        W30604  17.783  11.091   2.108  0.3424 -0.1212  0.0210
13757W        W30605   9.014  12.379  12.783  0.0587  0.0951 -0.0328
13758W        W30606  11.771  10.831   1.045  0.1711 -0.1722  0.1228
13759W        W30607   5.446  14.646  10.331 -0.0360 -0.3284 -0.1623
13760W        W30608   0.234   9.366   2.711  0.2054 -0.0064  0.1237
13761W        W30609  11.930   7.139   4.042  0.0051  0.1704 -0.3058
13762W        W30610  15.567  10.867  11.396  0.1506  0.1139 -0.1380
13763W        W30611   6.263   0.398   0.514  0.0842 -0.2539 -0.0096
13764W        W30612  15.252   0.773  15.586 -0.1605  0.1736 -0.2715
13765W        W30613  10.594  18.178  13.504 -0.2095  0.2032  0.1980
13766W        W30614  18.112  15.195   0.953  0.4088 -0.2070 -0.2557
13767W        W30615   3.473  14.410   4.754  0.1144 -0.0128 -0.1469
13768W        W30616   4.039   4.879  11.393 -0.2943  0.2400  0.2109
13769W        W30617  11.662  16.544   1.723  0.0011  0.3138 -0.0201
13770W        W30618   3.361   8.495   1.765 -0.0326 -0.3733 -0.0703
13771W        W30619  11.486  10.050   2.331  0.2813 -0.0606 -0.1529
13772W        W30620  11.987  11.676   3.128  0.1199  0.0430 -0.1271
13773W        W30621   8.089   5.451  12.751 -0.3435 -0.0589  0.2227
13774W        W30622   9.127   8.423  12.989  0.2605  0.0448  0.1386
13775W        W30623   4.656   7.206  15.935  0.0159 -0.1746  0.0080
13776W        W30624   8.449   6.297   1.788 -0.1019  0.1476 -0.0164
13777W        W30625  18.044   0.272  11.832  0.1897 -0.0490 -0.0171
13778W        W30626   5.195   7.585   2.991 -0.3359 -0.1318 -0.1359
13779W        W30627   7.634   4.101  13.945  0.0089  0.0703 -0.4036
13780W        W30628  14.288  16.611  10.937  0.3198 -0.0158 -0.1311
13781W        W30629   8.614  11.707  11.695 -0.1143  0.0389 -0.1904
13782W        W30630  14.743  12.677   2.572  0.0679 -0.2846 -0.0856
13783W        W30631  16.953  17.188   2.505 -0.2238  0.1158 -0.2372
13784W        W30632   3.798   5.159  13.420 -0.2156 -0.0739  0.1354
13785W        W30633  10.496  14.164   4.529  0.0849  0.0974 -0.0147
13786W        W30634  17.313  16.047  10.782 -0.3008 -0.0493  0.1704
13787W        W30635   4.403   3.873   4.741  0.0864  0.0910  0.2536
13788W        W30636  14.768  15.929  14.194 -0.1848  0.1591  0.0627
13789W        W30637   8.499   2.034  16.056 -0.1839  0.2085 -0.3853
13790W        W30638  12.279  17.530   4.389  0.1202  0.0521 -0.3989
13791W        W30639   9.004  16.667   0.041  0.0267  0.0313 -0.0741
13792W        W30640   9.066   6.663  15.257 -0.0419  0.0260 -0.1176
13793W        W30641   5.784  13.311  15.596 -0.1955  0.1376  0.1777
13794W        W30642   8.798  16.777  13.411 -0.1013  0.2421  0.0671
13795W        W30643   2.724   0.880   1.500  0.2140 -0.0221 -0.0820
13796W        W30644  16.967   1.411  15.841 -0.0382 -0.0015  0.1582
13797W        W30645   8.269   8.852   2.753  0.0202  0.0887 -0.0585
13798W        W30646   1.923  10.119  12.885  0.0389 -0.0229 -0.3293
13799W        W30647  11.104  16.421   0.029  0.2566  0.1437 -0.1996
13800W        W30648   7.518  10.296  14.126 -0.1740  0.2422 -0.1290
13801W        W30649   3.546   4.884  13.047  0.1163  0.1340 -0.1083
13802W        W30650  17.042  17.639  15.272 -0.0422 -0.1336  0.0258
13803W        W30651   2.821   1.920  10.993 -0.3312 -0.5301 -0.0410
13804W        W30652  14.680   0.687  13.360 -0.0735 -0.0420  0.1424
13805W        W30653   5.371   1.285  15.913  0.1504 -0.0257  0.0063
13806W        W30654  12.821  11.374   2.354 -0.0026  0.1104  0.1395
13807W        W30655   0.114   8.693  15.089 -0.2181  0.1293 -0.1524
13808W        W30656   0.190   6.131  15.510 -0.0221 -0.1868 -0.2561
13809W        W30657  10.657  12.462  11.655  0.2761  0.1114 -0.1368
13810W        W30658   0.543   3.984   2.676 -0.1277  0.0151  0.1202
13811W        W30659   7.369   3.074   1.500  0.1259  0.1148 -0.0365
13812W        W30660  12.782   9.115   1.597  0.2230 -0.4000  0.0807
13813W        W30661  10.256  17.022   3.079 -0.1605  0.3491 -0.1525
13814W        W30662   0.157  17.526  15.893  0.3312  0.0978 -0.0406
13815W        W30663   7.965  17.474   1.162  0.0672 -0.2146 -0.0528
13816W        W30664  18.148  17.608   0.533  0.0247  0.0162  0.2957
13817W        W30665  16.787  11.302  12.651  0.0583  0.1280 -0.2277
13818W        W30666   9.032  10.050  13.076  0.0372  0.3835  0.1601
13819W        W30667  16.152  12.674   2.508 -0.0279  0.1154 -0.0139
13820W        W30668   7.417   1.363  13.321 -0.3371  0.0092 -0.0047
13821W        W30669   1.242  12.101   2.766 -0.1189 -0.4070  0.0257
13822W        W30670   7.105   4.668  13.384  0.2378 -0.0062 -0.0007
13823W        W30671  11.867  13.741  15.887 -0.0456 -0.0079 -0.2631
13824W        W30672   6.010  14.217   5.866  0.1066  0.1955 -0.1746
13825W        W30673  15.931  11.295   5.465 -0.0119  0.0868 -0.1454
13826W        W30674   1.476   3.581   1.237 -0.1756 -0.2827 -0.1109
13827W        W30675  13.707  12.918  13.694 -0.1075 -0.0074  0.2398
13828W        W30676   8.065   1.794   2.978 -0.1927 -0.0460 -0.5958
13829W        W30677   3.039  10.302  12.541  0.1955  0.0642 -0.2284
13830W        W30678  11.629  12.158  11.715  0.0539  0.1477  0.2645
13831W        W30679   8.994  17.316   3.266  0.0126  0.0118  0.1979
13832W        W30680   3.317   4.650   3.033  0.1104 -0.0589  0.1235
13833W        W30681   6.696  14.437   1.860 -0.0226  0.2216 -0.1631
13834W        W30682   3.928   9.186   0.571 -0.1524  0.1444  0.1341
13835W        W30683   3.424  14.288   5.561 -0.1073 -0.0338 -0.0541
13836W        W30684   3.674  12.326   2.775  0.2397 -0.0348 -0.0475
13837W        W30685  15.004  12.474   3.242 -0.2124 -0.0209 -0.1496
13838W        W30686  14.736  13.360  12.973  0.3287  0.1053  0.2247
13839W        W30687  13.736  10.302   0.994  0.4194 -0.0675 -0.0982
13840W        W30688   6.527  18.076   1.766  0.0913 -0.0405  0.0936
13841W        W30689   9.909   0.464  14.681  0.1735  0.0671  0.2211
13842W        W30690   6.795   7.689  13.666 -0.2635 -0.2018  0.1411
13843W        W30691  10.721  10.430  11.499  0.0595  0.1759  0.0692
13844W        W30692   0.520   9.989   1.859  0.0484  0.1857  0.0773
13845W        W30693   5.763   3.320  13.960 -0.0631  0.1968 -0.0155
13846W        W30694  15.783   2.294   0.071 -0.0923  0.0195 -0.0204
13847W        W30695   6.195  15.512   5.848 -0.2244 -0.1840  0.0628
13848W        W30696   9.943   7.435  14.691 -0.4288 -0.0198  0.2820
13849W        W30697   8.340  15.239  12.310 -0.1859 -0.1099 -0.1074
13850W        W30698  11.650   2.523   0.285 -0.0395 -0.1912  0.2769
13851W        W30699  15.573  13.021  12.203 -0.1905  0.2059  0.0940
13852W        W30700  11.607   5.148   0.904 -0.1883  0.3996  0.2441
13853W        W30701   6.551  14.870   2.013  0.1021 -0.0802 -0.2790
13854W        W30702  13.784   5.821  11.013  0.2778  0.3802  0.0600
13855W        W30703   7.662  17.118   4.858  0.3306  0.0942 -0.2757
13856W        W30704   2.379   0.868   0.553 -0.1586  0.2348 -0.3325
13857W        W30705   5.178   8.202   4.531  0.1803  0.0170 -0.1574
13858W        W30706  18.099  11.324  14.837  0.0865 -0.0199  0.0325
13859W        W30707   5.164  15.741   3.182  0.3708  0.3088  0.1218
13860W        W30708  15.744   4.251   2.736  0.0135  0.0978  0.1747
13861W        W30709  16.655   1.029  13.066  0.2799  0.0668  0.0348
13862W        W30710  11.105   9.530   2.086 -0.0495 -0.0093 -0.0724
13863W        W30711   3.997   5.327   4.309 -0.1169  0.2015 -0.2012
13864W        W30712  13.962   6.476  11.357 -0.0116 -0.3042  0.2790
13865W        W30713  14.990  15.757   2.552 -0.3149 -0.1789  0.0132
13866W        W30714  11.909  17.845   2.872 -0.0672 -0.0200  0.2714
13867W        W30715   8.569   3.854   2.026 -0.3481  0.1671  0.0199
13868W        W30716   2.745  11.969  14.188 -0.0425 -0.2070 -0.1183
13869W        W30717  11.254   9.616  12.991  0.1327 -0.1620 -0.1446
13870W        W30718   1.700  18.119  12.603  0.1389  0.0238 -0.0949
13871W        W30719   6.180   6.078   2.633 -0.1607 -0.1066  0.2543
13872W        W30720   6.250  12.491   1.391  0.1192  0.1211 -0.3207
13873W        W30721  17.537  12.430   1.708 -0.1576 -0.1412 -0.4859
13874W        W30722   2.487   4.880  15.271  0.2091  0.1538 -0.3731
13875W        W30723   2.140   6.973  13.726 -0.1612 -0.2459  0.3045
13876W        W30724   1.940   3.043   1.752 -0.2558  0.0107 -0.0176
13877W        W30725  10.463   9.096  13.218 -0.6025 -0.0638  0.0495
13878W        W30726   7.586  12.806  13.975  0.0543 -0.3251  0.0160
13879W        W30727  13.134  14.549  15.803 -0.1785 -0.0510 -0.0784
13880W        W30728   1.594  10.407   2.821  0.0393 -0.4985 -0.0141
13881W        W30729  16.604   2.587   1.205  0.1202 -0.1450 -0.2748
13882W        W30730  12.605   3.808   3.714  0.0029  0.1211  0.4360
13883W        W30731   5.889  14.356   4.471 -0.1135 -0.0519  0.2259
13884W        W30732   0.846   4.303  10.287 -0.2583  0.0570  0.2418
13885W        W30733  13.890  11.960   1.023 -0.0871 -0.1643  0.2136
13886W        W30734   2.525   9.216   4.262 -0.0489  0.0679  0.0553
13887W        W30735   5.973   7.301   4.744  0.4491  0.2647 -0.0896
13888W        W30736  15.707   4.808   0.487 -0.0340 -0.0477 -0.2548
13889W        W30737  17.487   0.008   0.640 -0.2677  0.1899  0.0712
13890W        W30738  15.319  13.030  11.817  0.4288 -0.2702  0.2283
13891W        W30739  17.687  14.806   5.574  0.2291 -0.1007 -0.0233
13892W        W30740  17.505   7.299  11.569  0.0069 -0.2059  0.1056
13893W        W30741  14.582  17.592   3.613 -0.2684  0.1745 -0.3042
13894W        W30742   8.164  10.229   1.442 -0.1010  0.4484  0.1865
13895W        W30743  18.163   2.142   3.080 -0.1202  0.1533 -0.0321
13896W        W30744  15.249  15.946  12.877 -0.0084  0.2461  0.1362
13897W        W30745   5.662  17.230  14.279  0.1877 -0.2488  0.0853
13898W        W30746   0.259  13.596   2.694  0.1089  0.2817  0.0524
13899W        W30747  13.053   2.637   2.216  0.1749  0.0204  0.0780
13900W        W30748  16.368  16.537  13.343 -0.0876 -0.0320 -0.4094
13901W        W30749  17.923   4.245   3.202  0.2401 -0.2208 -0.0554
13902W        W30750  15.225  11.058  13.444 -0.0256 -0.0178 -0.2068
13903W        W30751  14.292  11.578   1.183 -0.0076  0.0625 -0.0312
13904W        W30752  13.513   7.754   2.914 -0.1688 -0.1244 -0.1057
13905W        W30753  13.797  13.001  11.999 -0.3285  0.1077  0.1467
13906W        W30754  15.450  14.747  12.243 -0.1012 -0.0872 -0.2438
13907W        W30755   7.917  18.166   1.706 -0.3768  0.2996  0.3337
13908W        W30756  18.112  16.825   0.441 -0.1508 -0.1938 -0.2201
13909W        W30757   1.279  10.730   1.601 -0.0170 -0.1581 -0.2815
13910W        W30758  12.232  14.495  14.385  0.0132  0.0302  0.2893
13911W        W30759  13.853   3.262  15.131 -0.0507 -0.3195 -0.3607
13912W        W30760   9.706  11.903  14.654 -0.1522  0.1172 -0.0420
13913W        W30761  10.195   6.829   4.192  0.2003  0.1546  0.2867
13914W        W30762   2.886   9.605   0.988  0.0094 -0.1777  0.3055
13915W        W30763  13.543  16.749   2.854 -0.0710  0.0950  0.1718
13916W        W30764  13.586   3.175   9.902  0.3368 -0.2997 -0.0252
13917W        W30765   9.303   9.261   1.563 -0.0052 -0.0062 -0.1945
13918W        W30766  17.927  15.153  16.100  0.0854 -0.1231 -0.2342
13919W        W30767  15.776   2.359  15.174  0.1430  0.2813  0.1476
13920W        W30768   3.435   8.024   4.493 -0.1316  0.0586 -0.3080
13921W        W30769   3.006   4.492  11.219 -0.3387  0.1187  0.1229
13922W        W30770   0.099  15.628   3.329 -0.2127 -0.2179 -0.0012
13923W        W30771   8.958  10.548   3.099  0.1540 -0.1287 -0.2316
13924W        W30772  16.757   0.858  15.100  0.0306 -0.2148 -0.0577
13925W        W30773  12.623  14.853  11.494  0.0538 -0.0568  0.0749
13926W        W30774   4.864  11.738  15.296 -0.1363  0.0990  0.1131
13927W        W30775   5.548   6.039  13.837  0.0322 -0.2092 -0.0529
13928W        W30776   9.148   3.998  11.992 -0.1766 -0.2186  0.0525
13929W        W30777   9.824   7.379  12.399  0.1668  0.0079  0.0751
13930W        W30778  14.857   2.540  11.951  0.0877 -0.1339  0.0454
13931W        W30779   7.668  12.112   2.639 -0.1242 -0.0215 -0.3017
13932W        W30780  15.011   9.549   1.009  0.1338  0.4430  0.1002
13933W        W30781  17.637   1.307   4.371  0.1817  0.0033  0.0497
13934W        W30782  12.128   3.999   3.947 -0.0947 -0.0525  0.3147
13935W        W30783   7.983   5.475   3.935  0.2227  0.2002  0.0192
13936W        W30784  13.192   4.755  11.245 -0.1658 -0.1683  0.2123
13937W        W30785  15.999   0.789   2.918  0.2050 -0.1895 -0.2561
13938W        W30786  15.977   7.887  12.432  0.2004  0.0462 -0.4282
13939W        W30787   3.204  16.928   2.676  0.0072  0.0800 -0.0260
13940W        W30788   7.877  14.935   2.182 -0.2467  0.1115  0.2788
13941W        W30789   2.366  15.897   2.367 -0.1073  0.1982  0.3080
13942W        W30790  12.836  17.922  15.397 -0.4964  0.2090 -0.3022
13943W        W30791  11.742  14.849   4.352 -0.0238 -0.1469  0.1487
13944W        W30792   2.625  13.273   2.189 -0.0699  0.0848  0.0930
13945W        W30793  11.085   4.433   1.053 -0.3451 -0.0756 -0.2212
13946W        W30794   7.098  17.254  13.641  0.1684  0.4717 -0.0182
13947W        W30795  14.527  13.628  15.188  0.0260  0.3783  0.1424
13948W        W30796   9.444  11.667   0.664  0.2130 -0.1033 -0.0496
13949W        W30797   7.870  12.031   5.103 -0.0067 -0.0955  0.0273
13950W        W30798  13.381  12.339   2.930 -0.0691  0.3751 -0.0803
13951W        W30799   4.814  14.965   2.415 -0.3456  0.2028 -0.0735
13952W        W30800   9.398  16.368  12.884 -0.0647  0.1711 -0.1571
13953W        W30801   8.224   2.188  13.330 -0.2422 -0.2170 -0.0560
13954W        W30802   4.189   4.043   0.112  0.1613 -0.0185 -0.0234
13955W        W30803   0.626  12.709  15.831 -0.1399  0.0768  0.4219
13956W        W30804  18.053   4.214  15.429  0.2192 -0.0463 -0.0326
13957W        W30805   7.971   9.583  10.584 -0.1317 -0.1140 -0.2823
13958W        W30806   2.971   3.746   2.577 -0.0489 -0.3214  0.3716
13959W        W30807   5.514   4.178  14.252 -0.2217 -0.2110  0.1399
13960W        W30808  15.107  15.821  14.570 -0.1431  0.1037 -0.1694
13961W        W30809   7.471   7.161  13.180 -0.0748 -0.0909 -0.0547
13962W        W30810  11.702   5.805   4.770 -0.1657 -0.0295  0.1078
13963W        W30811   5.322   8.384  14.576 -0.0083  0.1821 -0.2278
13964W        W30812   8.937   4.331   4.217 -0.1436 -0.4312 -0.2236
13965W        W30813  12.377  11.484   2.728  0.0838  0.0849 -0.2683
13966W        W30814   6.007   1.775  12.961  0.3075 -0.2634  0.0671
13967W        W30815   4.242   0.489   0.746  0.0534  0.0397  0.0833
13968W        W30816   7.112  17.402  13.071 -0.1773 -0.0378  0.0281
13969W        W30817  16.057  18.210   4.752  0.3319 -0.1570 -0.0300
13970W        W30818  12.600   2.066   0.554 -0.0161  0.0466 -0.1744
13971W        W30819   4.014   2.845   3.736 -0.1126 -0.0300 -0.2355
13972W        W30820   8.699   1.819  11.252 -0.1629  0.0281  0.0208
13973W        W30821   1.128  10.952   4.699  0.0445  0.3216  0.1559
13974W        W30822  16.497  16.111  11.571  0.3068 -0.1422 -0.1357
13975W        W30823   3.465   8.397   4.030 -0.0438  0.1003  0.2986
13976W        W30824   1.515   9.549  16.113  0.1465  0.0736 -0.1046
13977W        W30825   9.003  13.944  14.450  0.2026 -0.1338 -0.0235
13978W        W30826   3.999   5.991  14.361  0.1609  0.2608 -0.0467
13979W        W30827  11.412   6.352   1.201 -0.1237  0.1975 -0.0929
13980W        W30828  17.430  16.231   3.727  0.2993 -0.2814 -0.3318
13981W        W30829   0.016  18.021   1.452 -0.0121  0.0598  0.1702
13982W        W30830   0.887  13.257   4.870 -0.1281 -0.1436 -0.0646
13983W        W30831   7.162   4.282   3.520  0.0089  0.1452 -0.0919
13984W        W30832  16.595   1.766   4.846  0.3271  0.0645  0.2431
13985W        W30833   5.436  11.851   5.674 -0.2370 -0.0206 -0.3041
13986W        W30834   0.302  13.981   0.355  0.0583  0.1547 -0.5879
13987W        W30835  12.098  13.467   5.065 -0.2606 -0.0869  0.0395
13988W        W30836   3.346   0.464  11.559 -0.2199 -0.0972 -0.3830
13989W        W30837   9.776  13.573  13.924 -0.1714 -0.2328  0.0805
13990W        W30838  14.971  16.095  11.892 -0.1507  0.0635  0.3756
13991W        W30839  15.944  15.544  14.202 -0.1277 -0.1678 -0.1130
13992W        W30840   0.932  15.984   0.866  0.0636 -0.0195 -0.2752
13993W        W30841   6.156  12.886  15.347 -0.2033  0.0817  0.0060
13994W        W30842  10.633   2.610   2.414 -0.0427  0.1391 -0.2744
13995W        W30843  10.497  16.652   3.802  0.3213 -0.1013  0.1116
13996W        W30844  10.396   1.201  14.654  0.1507 -0.1544 -0.0346
13997W        W30845   3.050  17.744  13.555 -0.5267 -0.3751  0.0568
13998W        W30846  13.245   5.680   4.796 -0.2996 -0.1151 -0.1434
13999W        W30847  11.711  14.959   2.191 -0.0464  0.0282 -0.2436
14000W        W30848   9.105   3.103   5.131  0.1027 -0.0880 -0.2440
14001W        W30849  16.062   5.645   1.894 -0.1170  0.0395  0.0516
14002W        W30850  14.151   5.031  12.594 -0.0106  0.0183  0.3193
14003W        W30851   7.242   2.971  14.059  0.1161 -0.0469  0.0019
14004W        W30852   9.250   9.392   5.412 -0.0072  0.2031  0.1637
14005W        W30853   3.442   7.399  14.297  0.0158 -0.0150  0.3493
14006W        W30854   6.990  15.670  14.694  0.1107 -0.1001  0.0133
14007W        W30855  15.954  15.431   4.242  0.1319 -0.1115  0.0768
14008W        W30856   5.943   8.175   5.097 -0.1387 -0.0922  0.1306
14009W        W30857  14.448  13.185   4.074 -0.0491  0.1269  0.2025
14010W        W30858   2.354   5.499  13.587  0.0408 -0.3019 -0.1067
14011W        W30859   7.233   1.103  12.204  0.2344  0.2732  0.1051
14012W        W30860   3.930   1.315   4.238 -0.1714 -0.2726  0.1458
14013W        W30861   7.706   7.987   0.656 -0.1650 -0.2641  0.1798
14014W        W30862  10.457   1.665  13.139  0.1240  0.2359 -0.0930
14015W        W30863  12.907  17.236   5.540 -0.3567  0.2853  0.0851
14016W        W30864  17.088  15.070   0.031 -0.2708  0.0462  0.0873
14017W        W30865   7.373  13.260   3.209  0.1449  0.0723 -0.3569
14018W        W30866  10.079   0.742  15.907  0.1054 -0.0294 -0.2329
14019W        W30867  10.550   2.471   3.354  0.2196  0.1781 -0.1670
14020W        W30868   0.529  12.911   3.236 -0.1336  0.2796  0.2391
14021W        W30869   5.231   1.116  11.167  0.1733  0.2325 -0.0222
14022W        W30870   5.207   8.829  15.188 -0.1133  0.0756  0.1259
14023W        W30871   9.243   7.598   0.215 -0.1828 -0.0437 -0.1189
14024W        W30872   5.208   5.230  12.488  0.0414  0.1111  0.0028
14025W        W30873   8.834  11.386   1.986 -0.1661 -0.1820  0.1798
14026W        W30874   8.490  11.653  13.890 -0.2711  0.2025  0.3129
14027W        W30875  15.848  15.069  12.243  0.0642  0.1428  0.0623
14028W        W30876   1.170   0.959  12.125  0.0660  0.0634 -0.1698
14029W        W30877   7.349   6.611  15.683  0.2735 -0.1352 -0.3808
14030W        W30878  13.936   2.143   1.361  0.0502  0.0878 -0.0885
14031W        W30879   3.783   6.368  15.148 -0.0093 -0.0557  0.0819
14032W        W30880  13.967   9.285   1.860 -0.1286 -0.3383  0.1452
14033W        W30881   2.260  16.272   4.045  0.1983 -0.1159  0.1730
14034W        W30882   6.934  17.190   0.568 -0.0592 -0.2611  0.0122
14035W        W30883   9.346  13.891   4.644 -0.2182  0.1270  0.2405
14036W        W30884  12.513   1.510   4.475 -0.0748 -0.2307 -0.0939
14037W        W30885   4.554  12.441  15.360 -0.0660  0.1147 -0.1881
14038W        W30886  13.461   8.875  13.132  0.4011  0.2569  0.2684
14039W        W30887   7.316  11.862   3.906  0.0126  0.0457  0.1173
14040W        W30888  15.937  11.234   2.689  0.1908  0.1924  0.0193
14041W        W30889   3.276   2.446   4.449  0.0786 -0.2754 -0.0711
14042W        W30890   3.843  14.894   3.515  0.1934 -0.3377 -0.2960
14043W        W30891   1.688   6.593   0.002  0.0725 -0.1130 -0.1984
14044W        W30892   2.813   5.782   4.599  0.0484 -0.1437  0.1937
14045W        W30893  16.396  13.037   2.279 -0.0762 -0.0857 -0.0066
14046W        W30894  16.355   0.638   3.943  0.0640 -0.1218 -0.1292
14047W        W30895  17.470   5.325   1.940 -0.0724  0.0159 -0.0749
14048W        W30896  16.665   7.152   2.395 -0.1156  0.0893  0.0951
14049W        W30897  13.122   2.384  11.208 -0.0992  0.1573  0.0071
14050W        W30898   4.674  11.533   3.236 -0.0827  0.0595  0.0253
14051W        W30899  15.805  15.029  15.382  0.1369 -0.1128  0.0280
14052W        W30900  12.219  14.495  12.366 -0.1533  0.3095  0.0315
14053W        W30901   1.233  10.118  15.680  0.0425  0.0180 -0.2646
14054W        W30902  14.664   7.990  14.031  0.1169  0.1671  0.1366
14055W        W30903   5.818   2.883   2.717  0.0770  0.1112 -0.2808
14056W        W30904   1.096   1.529  14.367 -0.1277  0.3325  0.0992
14057W        W30905  15.451  10.689   2.116  0.0639 -0.0573 -0.2643
14058W        W30906   8.534   5.717  12.833 -0.2960 -0.3333  0.0528
14059W        W30907   8.964   9.140  11.084  0.0623 -0.0723 -0.1718
14060W        W30908  11.755   7.156   2.194 -0.2315  0.4012 -0.5159
14061W        W30909  15.845  17.771   0.704 -0.2067 -0.0001 -0.1343
14062W        W30910   0.381  12.781  13.285  0.0643  0.4082  0.2333
14063W        W30911   6.168   9.205   0.793  0.2065  0.0267 -0.1284
14064W        W30912   7.078  14.930  10.898 -0.1348  0.1911  0.0175
14065W        W30913   7.806  14.998  13.402 -0.0562  0.1322  0.1922
14066W        W30914  17.145   1.697  13.675 -0.0131  0.0857  0.0998
14067W        W30915   2.851  15.259  13.618 -0.0422  0.1146 -0.2874
14068W        W30916  13.091  11.751  15.325  0.1645 -0.4435 -0.0715
14069W        W30917  17.174   5.040  12.707  0.0329 -0.2342  0.0800
14070W        W30918   8.311   0.422   2.979  0.1074 -0.0834  0.1747
14071W        W30919  14.637  15.208  11.332  0.3140 -0.1073  0.1515
14072W        W30920  11.681   1.190   2.801  0.0161  0.5947 -0.0436
14073W        W30921  12.919  17.418   5.071  0.1303  0.1352  0.0612
14074W        W30922  12.284   1.698   3.715 -0.2456  0.2310  0.2602
14075W        W30923   8.571  17.002   0.756 -0.1727 -0.0925 -0.0825
14076W        W30924   8.014   6.725  13.267  0.1465 -0.0694  0.1803
14077W        W30925  15.785   5.202   2.021  0.0193  0.2553  0.0037
14078W        W30926  17.724  16.529   2.107 -0.0373 -0.0205 -0.2339
14079W        W30927  10.610   2.702  12.424 -0.5292  0.0234 -0.2175
14080W        W30928  16.892   1.367   0.909 -0.1644 -0.0299  0.1252
14081W        W30929   4.999   1.694   4.982 -0.2838  0.1412 -0.4836
14082W        W30930   7.902   6.773  11.614 -0.2406 -0.1833  0.2295
14083W        W30931  15.834   8.276  13.327  0.0238 -0.4306 -0.1158
14084W        W30932  12.086   5.943   5.037 -0.2265  0.2084 -0.1457
14085W        W30933  16.321   3.542  13.227 -0.1323 -0.0525 -0.4812
14086W        W30934   9.405   7.365  13.994 -0.1471 -0.5672 -0.1500
14087W        W30935  15.416   7.853   1.944 -0.3171 -0.0725  0.0725
14088W        W30936   0.400  11.633  12.582 -0.1818  0.0241 -0.1905
14089W        W30937   4.137   3.457  14.177  0.2613  0.1054 -0.5235
14090W        W30938  17.193   9.383   4.432  0.1337 -0.0699 -0.1909
14091W        W30939  13.095   3.680  11.805  0.2843  0.0561 -0.2458
14092W        W30940   9.264   4.188   2.305  0.0817 -0.0208  0.2085
14093W        W30941   8.511   6.302   5.388 -0.0500  0.3334  0.1114
14094W        W30942   4.544  12.936  10.581  0.2162  0.1261  0.2858
14095W        W30943   8.840  17.036  14.456 -0.1354  0.0359  0.1809
14096W        W30944   0.745  18.173  15.092  0.0275  0.0305 -0.1358
14097W        W30945   5.083   4.630   1.463  0.1100 -0.1333  0.1187
14098W        W30946  15.385   7.202  11.723  0.2936 -0.2940 -0.1325
14099W        W30947  17.166  15.884   0.640  0.0160 -0.0927 -0.0475
14100W        W30948  16.564  14.381   2.045  0.1086  0.2029 -0.0882
14101W        W30949  17.929  13.577  10.073 -0.2843  0.3381  0.2735
14102W        W30950  11.643  16.157   2.588  0.2016  0.1300 -0.0854
14103W        W30951   7.390  13.729  11.243  0.1896 -0.3019  0.0972
14104W        W30952   3.614  17.530   5.190 -0.0839  0.1439  0.2065
14105W        W30953   3.036   5.915   3.124  0.0858 -0.0741 -0.1806
14106W        W30954  15.649   0.707  11.066 -0.1456  0.3706 -0.1341
14107W        W30955   4.920   5.823  14.178  0.0896 -0.0809  0.0933
14108W        W30956  12.775  17.515  15.822  0.1412 -0.1789 -0.1090
14109W        W30957  10.400  14.279   1.342  0.0287 -0.0674  0.4551
14110W        W30958   2.968   5.605   5.384 -0.2318  0.0080 -0.0167
14111W        W30959   1.261   2.127   3.916 -0.2005  0.0200  0.0273
14112W        W30960  14.845  18.137  11.609  0.0428  0.1683  0.4167
14113W        W30961  11.227   2.353  11.831 -0.1671  0.0411 -0.2622
14114W        W30962   4.048  10.188   0.489 -0.4019 -0.1874  0.0826
14115W        W30963   8.561   1.688   1.736 -0.1218 -0.4001  0.0568
14116W        W30964  10.955  16.029  15.055  0.1852  0.0944 -0.0151
14117W        W30965  11.348   7.416   4.223 -0.0117 -0.0801  0.0436
14118W        W30966  14.449   3.807  12.151  0.0389 -0.0826 -0.0472
14119W        W30967   0.197   7.581   3.436  0.0079  0.1515 -0.1671
14120W        W30968  16.874  12.473   5.797  0.2182  0.1049  0.1169
14121W        W30969   7.903  17.466  11.971  0.2748 -0.2250  0.1523
14122W        W30970   0.155  15.028  12.946  0.0283  0.0748 -0.1385
14123W        W30971   4.596   3.844  15.725  0.0123  0.0705  0.1918
14124W        W30972  10.915  16.853  10.875 -0.0139 -0.0202 -0.3666
14125W        W30973   3.108   6.917  12.156 -0.0719  0.0053 -0.0992
14126W        W30974  17.717  10.124  12.626  0.1702 -0.2836 -0.3618
14127W        W30975   9.420  17.065  11.812 -0.1975 -0.1583  0.0489
14128W        W30976  13.053  11.904  11.568 -0.2611  0.0210  0.1651
14129W        W30977   1.872   9.424   4.991 -0.0562  0.0944 -0.1329
14130W        W30978   2.274   9.347   2.814 -0.0463 -0.2193  0.3486
14131W        W30979   9.178   9.747  15.017 -0.0155 -0.1129  0.0370
14132W        W30980   7.782   0.133  15.568 -0.0208 -0.1724 -0.2246
14133W        W30981  10.484   0.661   3.508 -0.0204  0.0983  0.1697
14134W        W30982   3.010   7.767  14.308 -0.1579  0.0168 -0.0007
14135W        W30983   8.472   7.082  14.726 -0.1378  0.0236  0.0205
14136W        W30984   0.017   9.680   3.073  0.0226 -0.1683  0.1475
14137W        W30985   0.682   2.935   1.943  0.3480  0.1994 -0.5378
14138W        W30986  10.125  15.222  10.590 -0.1224  0.0506  0.0474
14139W        W30987   7.389   6.659  12.757 -0.1647  0.2686  0.1799
14140W        W30988  13.946  17.622  14.026  0.0227 -0.3171  0.3165
14141W        W30989  11.943  16.545  11.588  0.0491 -0.0556  0.0645
14142W        W30990   6.539   4.459   3.672  0.1859 -0.2000  0.1403
14143W        W30991   4.329   4.119  14.807  0.1649  0.2075 -0.1399
14144W        W30992   1.082   6.078  13.726 -0.2329 -0.3597  0.3352
14145W        W30993   8.000  13.942   3.612  0.1362  0.0381  0.1069
14146W        W30994   5.005   4.404   2.304  0.1167  0.2075 -0.4102
14147W        W30995  16.276  14.257   3.729 -0.0185 -0.0483  0.0645
14148W        W30996   0.136   1.662   0.241 -0.1955  0.2349  0.0532
14149W        W30997  15.277  15.252   3.537 -0.2248  0.1413 -0.1179
14150W        W30998  16.926   4.202  14.792 -0.2156 -0.2270  0.1543
14151W        W30999  17.466  14.654   1.549  0.0670  0.0248  0.1347
14152W        W31000   3.849  14.904  15.621  0.2590  0.1419 -0.1416
14153W        W31001  12.403  17.640  13.643 -0.2993 -0.4970  0.1685
14154W        W31002   7.852  15.290  15.926  0.0433 -0.0150 -0.2305
14155W        W31003  12.786   5.834   3.950 -0.1363 -0.3662 -0.0659
14156W        W31004   6.519  15.132   2.976 -0.0517  0.1857 -0.0341
14157W        W31005   4.409   7.813   0.401  0.1231 -0.0868 -0.2602
14158W        W31006   3.038   2.852   1.413  0.2369 -0.2794  0.0107
14159W        W31007  15.287  15.305  15.372  0.0886  0.2322  0.0686
14160W        W31008  12.641   1.699  13.102 -0.1106  0.0841  0.0748
14161W        W31009  13.912  17.514   4.688  0.1370 -0.4529 -0.2254
14162W        W31010  17.001   0.808  14.238 -0.0478 -0.2350 -0.3315
14163W        W31011  17.424  11.353   2.769  0.0294 -0.1535 -0.0569
14164W        W31012   7.932  13.932  14.840 -0.2651  0.1548  0.0860
14165W        W31013   2.257   0.079   2.561 -0.0845 -0.0998  0.1043
14166W        W31014   7.188  10.216   4.563 -0.1507  0.1584  0.1027
14167W        W31015  10.996  13.371  11.675  0.1038  0.0646  0.1747
14168W        W31016   2.490  16.947   0.585 -0.0971  0.0042  0.0372
14169W        W31017  13.349   4.319  11.526 -0.2146  0.4168  0.2343
14170W        W31018  14.952   8.247  14.890  0.0626  0.3786  0.1245
14171W        W31019  15.530   0.111   2.110  0.0853 -0.0519  0.2939
14172W        W31020  12.248  17.187   1.705  0.0286  0.0561 -0.0864
14173W        W31021  12.672   1.594   5.501 -0.2545 -0.2978  0.3732
14174W        W31022   5.638   9.353   0.088  0.1828 -0.1938 -0.1931
14175W        W31023  12.713  11.866   2.500  0.3108  0.0779  0.1820
14176W        W31024   7.531  14.899  14.809 -0.3452 -0.3091  0.4159
14177W        W31025  14.667  12.764   3.063  0.0892 -0.1347 -0.0996
14178W        W31026   0.881  17.390   1.752  0.0519  0.0640 -0.1549
14179W        W31027  14.187  13.792   4.746  0.1437  0.1841 -0.0867
14180W        W31028  16.294   9.324  15.886 -0.3645 -0.1129 -0.0120
14181W        W31029  10.564  13.438  15.712  0.1130  0.0676  0.1445
14182W        W31030  15.379  13.181  14.865 -0.1749  0.1058 -0.1761
14183W        W31031   4.334   7.566  13.753  0.0324  0.0729  0.0505
14184W        W31032   3.057   3.598   2.117  0.0445  0.0184 -0.1021
14185W        W31033   8.749   0.734  11.372 -0.1393 -0.1936 -0.2232
14186W        W31034   7.952  11.625   4.293  0.4905 -0.0119  0.0868
14187W        W31035   6.366  14.775  13.065 -0.0500  0.2967 -0.2532
14188W        W31036  15.934  10.829   6.363 -0.1687  0.0625 -0.0314
14189W        W31037   4.894  13.323  10.587  0.2336  0.1443  0.2974
14190W        W31038  16.425  11.080  11.678 -0.1938 -0.0443 -0.0935
14191W        W31039  16.444   8.390   0.986  0.2140 -0.0610  0.0252
14192W        W31040   8.109   4.222  12.836 -0.0022 -0.2513  0.1060
14193W        W31041   8.383  10.520   1.099  0.0324 -0.2404  0.0167
14194W        W31042  10.703  11.329  15.110 -0.1585  0.2138  0.0370
14195W        W31043  12.413  17.032   3.057  0.1526 -0.0806  0.0347
14196W        W31044  12.440   2.779  12.122 -0.0257 -0.0444  0.0698
14197W        W31045  16.005   3.126   2.381 -0.0432 -0.0165  0.2575
14198W        W31046  15.785   0.927   2.390  0.1070 -0.0349  0.0926
14199W        W31047   6.842   1.478   3.403  0.0822 -0.0018 -0.0999
14200W        W31048  12.097   5.129  14.680  0.2514  0.0163  0.2147
14201W        W31049   7.545  16.239   0.270  0.3550 -0.2886  0.0478
14202W        W31050  13.103  15.937   0.923 -0.1319 -0.0838  0.2624
14203W        W31051   4.290  17.793  11.731 -0.0220  0.2109 -0.0358
14204W        W31052   5.147   7.260   0.540 -0.0425  0.1289  0.0493
14205W        W31053  15.240   4.288   3.036 -0.3832 -0.3212  0.4907
14206W        W31054  10.917  18.047  14.492  0.1086  0.2194 -0.0059
14207W        W31055   0.580   8.993  12.818 -0.0308  0.2201  0.0141
14208W        W31056  16.104   3.298   2.836  0.0227 -0.1053 -0.0715
14209W        W31057  13.861   1.277   1.139 -0.0991 -0.1676  0.0652
14210W        W31058   7.176   9.148  15.174 -0.0179  0.3183 -0.0313
14211W        W31059  15.685  10.603  12.910  0.0101 -0.2860  0.1119
14212W        W31060  17.156  14.030  14.935  0.2347 -0.0955  0.3003
14213W        W31061   1.513   0.743  12.454 -0.1984  0.2236 -0.0633
14214W        W31062   8.866   7.091  15.133 -0.2083  0.6258 -0.0735
14215W        W31063  11.775   1.679  13.433  0.0842 -0.2352  0.1516
14216W        W31064   0.105   8.443  13.468  0.1077 -0.0112 -0.2634
14217W        W31065   5.717  17.864  14.830  0.0042 -0.0262  0.0374
14218W        W31066   1.946  18.012  13.100 -0.0453 -0.0930  0.1176
14219W        W31067  14.266  15.315  13.143  0.4421  0.1321 -0.0048
14220W        W31068   0.006  11.372  15.731 -0.0227  0.0014  0.2347
14221W        W31069   2.661   1.250  14.402 -0.1588 -0.3298  0.3726
14222W        W31070   7.207  10.882  11.877 -0.3374  0.1985 -0.2460
14223W        W31071  15.208   0.424   3.178  0.2533 -0.0185  0.0777
14224W        W31072   2.771  10.626  12.829 -0.1098 -0.0502  0.3926
14225W        W31073  14.065   6.205  14.683  0.0785 -0.0266 -0.0780
14226W        W31074  16.599   8.893   4.400  0.0976  0.1366  0.2240
14227W        W31075  12.806  11.706  12.938 -0.0074 -0.0153  0.0047
14228W        W31076   0.452   4.385  11.164  0.1192  0.0476  0.2095
14229W        W31077  13.284   0.060   3.500 -0.3063  0.1542 -0.1396
14230W        W31078   8.142   0.772  12.615 -0.0421  0.2810 -0.2536
14231W        W31079  14.606  15.964   1.633 -0.3898 -0.0112 -0.2943
14232W        W31080   8.093   7.654   0.704 -0.0071  0.0717  0.0496
14233W        W31081   4.733  15.705   2.840 -0.2915  0.1342 -0.1673
14234W        W31082   8.623   0.110   5.591  0.1812 -0.0186 -0.1266
14235W        W31083  18.100   9.137  15.162  0.0815  0.0193 -0.0631
14236W        W31084  10.992   4.862   3.744 -0.1215 -0.0825  0.2734
14237W        W31085  13.246  15.806   4.222 -0.1295  0.2278 -0.0164
14238W        W31086  12.812   0.810  15.780  0.0005 -0.0083  0.1000
14239W        W31087  14.440  17.505  14.762  0.0181  0.0520  0.4894
14240W        W31088   0.278   4.525  11.635  0.1321  0.0660  0.1140
14241W        W31089   1.369   2.987   4.909  0.2548 -0.1318  0.1433
14242W        W31090  16.493   6.248  15.254 -0.0525 -0.0606  0.1043
14243W        W31091  16.553   6.590  14.827 -0.0455  0.0566  0.0520
14244W        W31092  12.522   2.498  12.509  0.0764 -0.2277 -0.0017
14245W        W31093   8.857  10.960  13.828  0.0405  0.1682  0.1434
14246W        W31094   1.403  12.276   3.338  0.0557 -0.1260 -0.0921
14247W        W31095  10.315   7.760  13.287  0.0426 -0.0769  0.1072
14248W        W31096  12.090  12.068  15.593  0.1677  0.1193  0.0568
14249W        W31097  10.269  11.054   0.178  0.3167  0.0395  0.1563
14250W        W31098  11.969   7.019  12.390 -0.0753 -0.2651  0.0789
14251W        W31099  11.839  17.497   1.872 -0.4558  0.1391 -0.1223
14252W        W31100   2.319   4.980   0.060 -0.1693 -0.2340  0.1580
14253W        W31101  16.369  10.733   4.416 -0.0144 -0.0742  0.2240
14254W        W31102   8.821  13.506  14.226 -0.2355  0.0601 -0.2775
14255W        W31103   0.127   3.143  11.451  0.0285  0.0338 -0.0125
14256W        W31104  15.798   3.710  13.475 -0.1526  0.1357  0.0596
14257W        W31105   4.720  18.055  13.675  0.0812  0.0881 -0.1075
14258W        W31106  17.449   4.366  11.231  0.0303  0.1681 -0.0293
14259W        W31107   3.579  16.314  14.895 -0.1687 -0.0279 -0.1441
14260W        W31108   9.107  10.538   2.293 -0.1770  0.0706 -0.0885
14261W        W31109   8.569   4.547   5.143  0.2442  0.2123 -0.0922
14262W        W31110   2.941   2.170   2.965 -0.1222 -0.2288 -0.1080
14263W        W31111   2.034   8.748  13.625 -0.1322  0.0339  0.1251
14264W        W31112  13.629   2.499  14.509 -0.1470 -0.1341  0.1927
14265W        W31113   8.759   7.059  11.899 -0.0735  0.1465 -0.1149
14266W        W31114  14.344   5.336   1.465  0.4108  0.1638 -0.1802
14267W        W31115   4.733  14.311  10.972  0.0584  0.1526 -0.0649
14268W        W31116  11.255   7.345   0.793  0.1957  0.1062  0.1707
14269W        W31117   5.906   2.047   5.191 -0.0037 -0.0854 -0.0191
14270W        W31118  18.034  13.581   2.239  0.0513 -0.1508  0.3314
14271W        W31119  10.996   0.676  14.960  0.2177 -0.1552  0.0023
14272W        W31120   7.534   7.054  14.396 -0.1216  0.0496 -0.0988
14273W        W31121  11.994   2.879   1.869  0.0374  0.0943 -0.0363
14274W        W31122   3.320   0.415  13.780  0.6043  0.1739 -0.2623
14275W        W31123   4.869  12.643   5.351 -0.0386 -0.0257 -0.0658
14276W        W31124  15.472   5.764   1.976  0.1473 -0.0254  0.1979
14277W        W31125  15.357   5.297   2.334 -0.2912  0.0901  0.3188
14278W        W31126   5.575  12.764  10.198 -0.0318  0.0471  0.0122
14279W        W31127   7.367   7.313   3.531 -0.2300 -0.0403 -0.0663
14280W        W31128   2.242  10.135  13.325 -0.0771  0.2633 -0.4316
14281W        W31129   9.534  16.528  13.489  0.2868 -0.2100  0.2254
14282W        W31130  11.968   8.414  12.960  0.0293  0.2066 -0.2311
14283W        W31131   3.642   2.752   1.957  0.2712  0.2607  0.0480
14284W        W31132  10.512   6.559  13.148 -0.3063  0.0005  0.4939
14285W        W31133  17.223   8.681  14.788  0.0556  0.1420 -0.0649
14286W        W31134  10.318   7.828   5.332 -0.2762  0.0042  0.0155
14287W        W31135  12.891  11.352   2.863  0.3029  0.1735  0.2042
14288W        W31136   4.829  16.426   4.148 -0.0300  0.0900 -0.3909
14289W        W31137   1.058   4.908  16.122 -0.0952  0.0396 -0.3038
14290W        W31138  15.785   8.613   1.423 -0.2767 -0.2221  0.0756
14291W        W31139  10.000  17.427  15.638  0.1025 -0.0498  0.1308
14292W        W31140   6.477  16.790  14.835  0.1036  0.0230 -0.3568
14293W        W31141  11.097  14.475   0.341 -0.2361 -0.0649 -0.0961
14294W        W31142   4.592  17.182   0.826 -0.6328 -0.0620 -0.1282
14295W        W31143   9.547  18.018   1.825  0.1960  0.0858 -0.3742
14296W        W31144   1.865   3.419  13.085  0.0816 -0.0853 -0.1442
14297W        W31145  14.898   3.099   4.025  0.1051 -0.0430  0.2373
14298W        W31146   2.004   9.855   2.548 -0.1506  0.0545 -0.0599
14299W        W31147  13.111   7.857  11.492  0.0421  0.1846  0.1539
14300W        W31148   0.917   0.085  14.194 -0.2533  0.1356 -0.0944
14301W        W31149   3.684  13.424   1.317  0.2446  0.3626 -0.1793
14302W        W31150   7.056   6.577   3.812  0.0090  0.0907  0.0413
14303W        W31151   6.112  13.094   2.609 -0.1315  0.1659 -0.0435
14304W        W31152  15.322   1.586  15.043 -0.1345  0.0860 -0.0584
14305W        W31153   1.351  14.473  13.111 -0.0052 -0.1105 -0.1665
14306W        W31154   3.441  10.186   2.227  0.1057 -0.0525  0.1648
14307W        W31155   1.122   7.976  15.152  0.2151  0.1969 -0.1600
14308W        W31156   7.026   4.252   1.374 -0.3333 -0.0959 -0.0915
14309W        W31157   8.779   9.796  13.904  0.0588 -0.3743  0.0242
14310W        W31158   5.603  10.557   1.441  0.3652  0.0058  0.3044
14311W        W31159   0.345  15.324  12.511 -0.1899 -0.1003  0.0499
14312W        W31160  11.507  14.895   5.279  0.1716 -0.0551 -0.2559
14313W        W31161   4.452  17.355   0.409  0.1800  0.3428  0.1657
14314W        W31162   8.048   2.927  16.004 -0.0255  0.1913  0.2662
14315W        W31163  13.917   2.145  13.955 -0.0490  0.3059 -0.1962
14316W        W31164  13.027  18.149   0.827  0.3043 -0.0125  0.3807
14317W        W31165  14.923  12.312  13.162 -0.1222  0.0242 -0.2819
14318W        W31166   6.166   5.141  15.353 -0.1705 -0.0291  0.1133
14319W        W31167   0.551  14.473   4.374  0.0119 -0.2383  0.1892
14320W        W31168  12.956   7.293   3.785 -0.2094  0.1243  0.1142
14321W        W31169   0.024   7.843  14.120  0.1384  0.1086 -0.2276
14322W        W31170   5.192  11.740  10.942 -0.5587 -0.2426  0.1806
14323W        W31171   7.071   9.895  15.241 -0.0368 -0.0844  0.0342
14324W        W31172   5.755   5.776   3.926  0.1351  0.2845 -0.2013
14325W        W31173   0.029  16.319  15.772 -0.2252 -0.0753  0.1816
14326W        W31174   2.825   6.624  11.213  0.2548  0.0126  0.0894
14327W        W31175   9.613  12.301  14.267  0.0213  0.1937  0.2866
14328W        W31176   9.477  12.413  12.594 -0.0351 -0.2931 -0.2092
14329W        W31177   3.158   9.599  15.494  0.0373 -0.2970 -0.1188
14330W        W31178   2.251  17.844   0.519 -0.1790 -0.1206  0.0914
14331W        W31179   8.974   2.838  14.185  0.0511 -0.2926 -0.1403
14332W        W31180   8.852   9.353   4.147  0.2020 -0.0442  0.1790
14333W        W31181   2.053   9.347  11.298 -0.2064  0.0606 -0.2538
14334W        W31182   1.634   9.604  12.925  0.1391 -0.2840 -0.2186
14335W        W31183   9.427   7.363   4.246 -0.4862 -0.1493  0.2747
14336W        W31184  17.565  13.204  13.954 -0.2651  0.1153 -0.2218
14337W        W31185   7.838  13.898  13.412  0.0576 -0.1486  0.0506
14338W        W31186  17.763   7.101  13.150  0.0094 -0.0165  0.2533
14339W        W31187  15.127  10.689   5.298 -0.1154 -0.2386 -0.1493
14340W        W31188  10.168  11.341   4.252  0.1074  0.3720  0.3557
14341W        W31189  13.186   0.355  12.747  0.0729  0.0095  0.1604
14342W        W31190   5.354   8.087  12.576 -0.0215 -0.2471  0.1551
14343W        W31191   2.377  15.159   3.408  0.0151  0.2970 -0.0056
14344W        W31192   9.772  10.198   3.388 -0.0968 -0.2229 -0.0176
14345W        W31193   7.641  14.718  12.938  0.2313  0.0185  0.4023
14346W        W31194   8.636   3.522   2.463 -0.0674  0.1561 -0.0465
14347W        W31195  11.396  16.452   3.053  0.0671 -0.0942 -0.1133
14348W        W31196   8.215   1.691  13.466  0.0030 -0.0894  0.1013
14349W        W31197   7.126   7.751   0.740  0.0700 -0.2625  0.0432
14350W        W31198   9.236  11.728  13.590  0.0110 -0.0933  0.1509
14351W        W31199   7.858   5.004   2.003 -0.1958  0.1803  0.0688
14352W        W31200  17.645   1.723  15.169  0.4458  0.0629  0.2678
14353W        W31201   9.096  14.795  11.333 -0.1961 -0.0240  0.1320
14354W        W31202  12.358  11.565   2.245 -0.0141 -0.1370 -0.0267
14355W        W31203   7.281   9.421  11.319  0.1507 -0.0657  0.1506
14356W        W31204   6.313  10.132  14.764  0.3298  0.2133 -0.0082
14357W        W31205   3.527   6.793   4.899 -0.0493  0.2465  0.0340
14358W        W31206   8.865  15.115  11.696 -0.0634  0.3488  0.0728
14359W        W31207   5.483   7.861   0.613  0.2103  0.1358 -0.0669
14360W        W31208  17.472  14.965  15.443 -0.1077 -0.0493 -0.1172
14361W        W31209  16.233  11.094   5.073 -0.0292 -0.3795  0.1139
14362W        W31210  16.543  13.482   2.656  0.3425  0.1973  0.1123
14363W        W31211  17.099  14.210   4.375 -0.0074 -0.2602  0.3285
14364W        W31212   9.997   6.197  11.955 -0.0477  0.0487 -0.2294
14365W        W31213   2.427   1.449   0.535 -0.0082 -0.1006  0.1141
14366W        W31214   1.586  17.218  15.778  0.1181  0.1453  0.0097
14367W        W31215   4.722   0.085  10.522  0.1805  0.1475 -0.3191
14368W        W31216  14.159  15.146   0.260 -0.0688  0.0387  0.2604
14369W        W31217  15.248  14.091   2.646 -0.1072 -0.1953  0.0658
14370W        W31218   0.175   0.087   1.001  0.0372  0.0851 -0.1549
14371W        W31219  17.315   8.990   4.759  0.2357 -0.1749 -0.1834
14372W        W31220  15.881  11.085  13.263 -0.0177  0.0062 -0.0654
14373W        W31221   6.484  14.242   0.028  0.3531 -0.1972 -0.1055
14374W        W31222  17.592  15.511  13.680 -0.0076  0.1286 -0.0323
14375W        W31223  11.920  10.304   5.615 -0.0826 -0.0716 -0.0636
14376W        W31224   4.934   8.441  14.991 -0.1427  0.0455  0.2659
14377W        W31225  14.380   3.938   0.745 -0.0611  0.1249 -0.0151
14378W        W31226   1.364  16.433   0.982 -0.0722  0.2665  0.0003
14379W        W31227  16.705  10.680   0.483 -0.1728  0.0616  0.0447
14380W        W31228   6.700  13.178   0.698 -0.0622  0.0350 -0.1988
14381W        W31229  14.967  16.435   3.068 -0.0963  0.0927 -0.2219
14382W        W31230  16.158  11.670   1.195 -0.1334 -0.1157  0.1064
14383W        W31231  10.393  12.074   3.873 -0.2482  0.3514  0.2702
14384W        W31232   7.209  14.657  12.659  0.1648  0.0615 -0.0002
14385W        W31233   8.158  17.307   3.285  0.1866 -0.0150  0.3097
14386W        W31234  16.816  12.269  12.374  0.6057 -0.0469  0.1662
14387W        W31235  16.451  17.918   2.400  0.2175  0.0047 -0.1128
14388W        W31236   4.430  11.882  11.427 -0.2840 -0.1660  0.1106
14389W        W31237  13.398   1.949   2.621 -0.1419 -0.0658 -0.1839
14390W        W31238  16.940   1.337  12.734 -0.1043  0.1588 -0.1073
14391W        W31239   7.814   6.649   2.617  0.0483  0.4173 -0.0134
14392W        W31240  16.277   9.627  11.077 -0.1000 -0.0580  0.0955
14393W        W31241   8.528   1.937   4.761 -0.0292 -0.1212 -0.0334
14394W        W31242  11.730   2.341  11.104  0.0133 -0.0630 -0.0820
14395W        W31243   7.770   6.574  12.403  0.0750  0.0535 -0.1020
14396W        W31244   3.327  14.432   1.059 -0.2486 -0.1400  0.2036
14397W        W31245   0.351   0.782   5.087  0.1309 -0.2245  0.0447
14398W        W31246  11.551  13.656  13.012 -0.0607 -0.1574 -0.2872
14399W        W31247   1.211   3.629  11.414  0.2301 -0.2286  0.1620
14400W        W31248   6.646  16.336  11.130 -0.3215 -0.0564  0.1014
14401W        W31249   7.562   1.945  12.073 -0.1226  0.1466 -0.3775
14402W        W31250   3.446   1.272   0.071  0.1253 -0.0140  0.2169
14403W        W31251   0.777  12.431  12.271  0.1237  0.0211 -0.1110
14404W        W31252   7.430  12.329   5.476  0.0381  0.3679  0.0431
14405W        W31253  17.853   7.697  13.783  0.0851 -0.0928  0.1729
14406W        W31254  12.426  18.109   3.547 -0.2297 -0.0498 -0.2219
14407W        W31255  13.323  14.277   4.816  0.0789 -0.0306 -0.1630
14408W        W31256  15.983   2.971   5.083 -0.0589  0.0204  0.1801
14409W        W31257  16.199  18.125  14.294  0.2651 -0.4297 -0.0818
14410W        W31258  13.258   0.918  13.023 -0.1303 -0.0422  0.0420
14411W        W31259   8.655   4.904  14.945  0.0602  0.0760 -0.0674
14412W        W31260  13.377  16.750  15.774  0.2071 -0.1437  0.2733
14413W        W31261  13.239  12.442  11.897  0.0685  0.4778 -0.0058
14414W        W31262   2.342  13.168  10.727 -0.2004 -0.2586 -0.1784
14415W        W31263   5.445  12.258  14.342 -0.0740 -0.1234 -0.0152
14416W        W31264  17.230  11.193   3.378  0.3926  0.0670 -0.1806
14417W        W31265  15.451  14.753  14.565 -0.2053  0.0762  0.0495
14418W        W31266  16.836   7.732  15.260  0.0571  0.2976  0.3401
14419W        W31267  14.708  16.804  12.500 -0.3252 -0.0338 -0.1472
14420W        W31268   1.365   5.630  14.085 -0.0341 -0.1008  0.1940
14421W        W31269   9.183   7.211  13.544  0.1452  0.3164  0.2399
14422W        W31270  17.414  11.615  11.897 -0.1684 -0.2008  0.0229
14423W        W31271   0.922   7.605   3.766  0.1018  0.1553  0.0936
14424W        W31272   3.023   7.005  15.332  0.1793 -0.0106  0.2669
14425W        W31273  10.345  16.269   2.887  0.2456 -0.0479  0.1876
14426W        W31274   3.670   2.850  10.825 -0.2080  0.1320  0.0480
14427W        W31275  17.763   1.432   0.603  0.1329  0.1015  0.1449
14428W        W31276  10.995  17.658   0.475  0.0864  0.0186 -0.2965
14429W        W31277   7.661   2.824   1.961 -0.0558 -0.2805  0.1326
14430W        W31278   8.929   7.471   0.840  0.2921 -0.1665  0.1226
14431W        W31279   2.121  13.713  13.663  0.0244 -0.2532 -0.1314
14432W        W31280   7.045   4.461   5.325 -0.3512 -0.1905  0.1339
14433W        W31281  13.711   6.512   2.361 -0.2069 -0.2960  0.0984
14434W        W31282   8.749   3.611  12.116 -0.2124  0.3075 -0.0393
14435W        W31283  17.553  13.060   0.478  0.1186 -0.2247  0.1415
14436W        W31284   5.430   1.795   2.336 -0.0102 -0.0017 -0.0321
14437W        W31285   4.815   2.595   2.497  0.2189  0.0370  0.0944
14438W        W31286  14.390   0.151  13.271  0.0968 -0.0910  0.1463
14439W        W31287  16.745   6.360  11.897  0.0609 -0.2207  0.1154
14440W        W31288   9.040   8.000  16.114  0.0072 -0.1073 -0.0445
14441W        W31289   8.496   4.157  13.227  0.2188 -0.2787  0.1586
14442W        W31290  16.638  12.577   2.722  0.0214 -0.2044 -0.0579
14443W        W31291  16.150   1.562   3.899  0.0395  0.3794  0.2890
14444W        W31292   6.041  17.194   1.269  0.2741 -0.0327  0.1220
14445W        W31293   4.877  12.918   2.969 -0.3011 -0.1013  0.2510
14446W        W31294  14.381   6.908   1.660  0.0522  0.0493 -0.1745
14447W        W31295   3.978   9.952   2.929 -0.0162  0.0576  0.0650
14448W        W31296  13.558   7.795   1.604  0.3311 -0.1993  0.2273
14449W        W31297   7.871  17.277  15.343 -0.1595  0.0381 -0.2853
14450W        W31298  11.825  14.434   3.326 -0.1237  0.2765  0.5451
14451W        W31299   8.561  11.476  12.427  0.0393 -0.0105 -0.3020
14452W        W31300  10.139   6.304   2.470  0.2193  0.0372 -0.1392
14453W        W31301   4.868   0.117  15.622  0.1158 -0.0369 -0.3984
14454W        W31302  15.515   2.129   2.774  0.0090  0.0976 -0.0131
14455W        W31303   8.140   5.201  14.727  0.0903  0.0058 -0.1637
14456W        W31304  10.600  11.366   1.022 -0.1470  0.1971  0.2235
14457W        W31305   4.470   7.085  15.507  0.1870  0.1237 -0.0007
14458W        W31306   2.583   2.837  13.619  0.1106 -0.0339  0.1157
14459W        W31307  16.005  16.467  13.659 -0.1559 -0.1525 -0.0212
14460W        W31308   9.880   7.951   3.438  0.1005 -0.5188 -0.0236
14461W        W31309  13.892  17.850   5.067 -0.0530  0.0170 -0.2427
14462W        W31310   3.429   5.941   2.273  0.0483 -0.2416 -0.0139
14463W        W31311   0.486   7.367   1.432  0.0628  0.0730 -0.0835
14464W        W31312   6.302  15.596  13.197 -0.3321 -0.0744  0.1622
14465W        W31313  13.594   4.785  11.555 -0.2109 -0.0667  0.0946
14466W        W31314  11.535   0.763  15.150  0.1984 -0.0611  0.2836
14467W        W31315   2.940   3.283   1.682 -0.3024  0.0157  0.0413
14468W        W31316  12.365  10.809   1.190  0.1697  0.2011 -0.0921
14469W        W31317   5.030  17.762   4.197 -0.2531  0.0113  0.2182
14470W        W31318   5.149  14.848   0.053  0.2025  0.1293 -0.3460
14471W        W31319   9.854   4.630  11.701  0.0438 -0.3669  0.3808
14472W        W31320   5.464   1.074  14.148 -0.2618 -0.3298  0.1058
14473W        W31321  13.574  17.559   0.357 -0.0410 -0.3861  0.2057
14474W        W31322  16.036  12.941   0.602  0.1595  0.0172 -0.0909
14475W        W31323  13.818  10.109  14.230 -0.0621  0.1031 -0.1479
14476W        W31324   8.798  16.243   4.511  0.2704  0.4771 -0.2219
14477W        W31325   8.297  16.002  15.940  0.0973 -0.1434  0.2693
14478W        W31326  10.394   9.667  13.556 -0.0029 -0.0932 -0.0323
14479W        W31327   1.163   6.399   2.038  0.0092  0.1373 -0.0171
14480W        W31328   0.096  13.318   0.018 -0.2513 -0.2715 -0.0822
14481W        W31329  17.854   2.136   3.476  0.0446  0.3651 -0.0597
14482W        W31330   4.709   5.389   1.473  0.0654 -0.2110  0.0265
14483W        W31331   0.225  11.239  13.302  0.0343 -0.0932 -0.0937
14484W        W31332   5.648   3.934  14.673  0.1426  0.0257 -0.1384
14485W        W31333   5.655  15.141  14.859 -0.1963 -0.0877  0.1023
14486W        W31334  11.943  14.931   3.464  0.2470 -0.1513  0.1579
14487W        W31335   1.139   7.536   1.849  0.2550 -0.0208  0.2088
14488W        W31336   6.800   2.602  12.886 -0.3082  0.1460 -0.1668
14489W        W31337   6.624  13.359  15.990 -0.0294  0.0275  0.0370
14490W        W31338  12.139  11.569  13.653  0.0377  0.1016 -0.1348
14491W        W31339   3.868  15.954  11.590  0.0392 -0.1686  0.0058
14492W        W31340  16.525  11.549  14.106 -0.1370 -0.4239  0.3402
14493W        W31341  12.673   9.598   5.207 -0.2237 -0.3128  0.1361
14494W        W31342  10.102   4.453  15.704  0.1898  0.0670  0.1326
14495W        W31343   9.561  11.829  15.969 -0.0892 -0.3976 -0.1647
14496W        W31344  12.706   0.537  15.135 -0.0511  0.1687  0.4751
14497W        W31345  16.836  15.393   9.978  0.0945 -0.0483  0.1911
14498W        W31346  11.480  11.321  10.716  0.0997  0.0833 -0.0930
14499W        W31347   7.938   2.920   4.143 -0.1439 -0.2519  0.1820
14500W        W31348  16.151   5.825   2.363  0.1511 -0.1878 -0.2387
14501W        W31349  13.694   3.966  11.321 -0.0652  0.0690 -0.0060
14502W        W31350   6.130  13.328   1.791 -0.0747  0.1183  0.1449
14503W        W31351  15.268  15.838  13.386  0.0267  0.1436  0.2470
14504W        W31352   9.660   7.166  13.158 -0.1504  0.3196 -0.1378
14505W        W31353  10.019  14.384   4.470 -0.1732 -0.0518  0.1263
14506W        W31354  16.848   9.913   5.162  0.0871  0.2215 -0.0166
14507W        W31355   6.559   8.860   0.499 -0.1358 -0.0546  0.1679
14508W        W31356  10.019  15.620   0.633 -0.1075 -0.0913 -0.3377
14509W        W31357   3.280  16.625   3.562 -0.1751  0.1878 -0.0757
14510W        W31358   0.609   4.639   1.879 -0.2002  0.0912  0.0999
14511W        W31359   1.573   5.867   5.345 -0.1480  0.1109  0.0070
14512W        W31360   6.935   8.840  11.780  0.2686  0.1168 -0.1069
14513W        W31361   2.826   1.922   2.336  0.0779 -0.0233  0.2648
14514W        W31362  12.632  12.941   2.588  0.1356 -0.2808  0.0459
14515W        W31363  13.839  15.997   5.791  0.2176  0.1350  0.2744
14516W        W31364   0.707   4.775  12.559  0.1448  0.1655 -0.0311
14517W        W31365   4.510   0.807  14.592 -0.2852 -0.2426 -0.1609
14518W        W31366   3.347  11.936  14.365  0.1528  0.0706  0.3453
14519W        W31367   5.455  13.334  12.920  0.1635 -0.2857 -0.1781
14520W        W31368  11.940   6.046   2.545  0.0143  0.0629 -0.1068
14521W        W31369  10.655  10.536   4.272  0.1614 -0.1664 -0.0738
14522W        W31370   3.258  12.228   5.668 -0.0626 -0.2666  0.1308
14523W        W31371   4.541  10.363   4.223 -0.1359 -0.0070  0.2262
14524W        W31372   2.304   2.768   2.104  0.1494 -0.1286  0.3183
14525W        W31373  16.448   3.936  11.948 -0.0452  0.2415  0.4874
14526W        W31374  16.932   8.725   6.211 -0.3481  0.0528 -0.1100
14527W        W31375  17.614   8.914  15.536  0.3342  0.0438  0.1397
14528W        W31376  14.810   6.388  15.322  0.2500 -0.0220  0.2468
14529W        W31377  18.188   8.815   1.270  0.1018 -0.1199 -0.0306
14530W        W31378  13.966   6.858   2.983 -0.0161 -0.3302  0.2494
14531W        W31379   4.262   6.145  13.403 -0.1159 -0.1534 -0.2263
14532W        W31380  17.038  14.888   1.438  0.0266  0.0156 -0.1474
14533W        W31381  16.298   1.990  13.779  0.0056 -0.0494  0.0697
14534W        W31382  14.481   2.496   0.938  0.0983 -0.1678 -0.0102
14535W        W31383   4.604   3.291  10.959  0.1548 -0.0628  0.0880
14536W        W31384   6.532  15.590  15.501  0.0443 -0.1810 -0.0319
14537W        W31385   7.000   8.655   4.849 -0.1691  0.1417  0.0997
14538W        W31386   0.356  10.644   1.165 -0.1433 -0.0551 -0.4504
14539W        W31387  17.574  12.934  11.996 -0.2735  0.1831 -0.0426
14540W        W31388   6.548   1.132   1.466 -0.1796  0.0324  0.1677
14541W        W31389   9.573   5.364  14.534  0.2213 -0.0466  0.1894
14542W        W31390  13.882  14.515   3.210 -0.2389 -0.2428  0.4196
14543W        W31391   0.843  17.886   0.420 -0.1621  0.3591  0.1730
14544W        W31392   6.406   8.893   5.602 -0.5053 -0.0963 -0.1196
14545W        W31393  12.874   7.249   3.283  0.2062  0.3633 -0.0815
14546W        W31394  13.796  13.177   4.262 -0.0220  0.0804 -0.0321
14547W        W31395   1.486  17.822   5.613 -0.1137 -0.0198  0.2267
14548W        W31396   5.342  12.748   2.939  0.0218  0.2784  0.1010
14549W        W31397  14.458  10.111   3.129  0.0431  0.0745  0.1914
14550W        W31398  14.027   7.738  12.025 -0.0727 -0.0731  0.4716
14551W        W31399   6.953  16.110  15.603 -0.0793 -0.0109  0.2170
14552W        W31400   9.888   7.878  10.711 -0.1120 -0.4538  0.3855
14553W        W31401   6.135  12.452   4.020 -0.2877  0.1189 -0.1711
14554W        W31402  16.192   0.946   4.379  0.0882  0.0931  0.2583
14555W        W31403   3.564   4.731  14.420  0.0344 -0.2245 -0.2875
14556W        W31404   5.282  15.941  10.632  0.0725 -0.4076  0.0348
14557W        W31405  13.274  15.964  11.986 -0.3609 -0.0275  0.2669
14558W        W31406  11.357  16.310  13.387 -0.1710 -0.1640  0.1155
14559W        W31407   0.711   0.927   0.476  0.0957  0.2775  0.0022
14560W        W31408   2.924   0.352   2.672 -0.2391 -0.0880  0.1550
14561W        W31409  11.949   4.951   1.341 -0.0614 -0.1306 -0.2681
14562W        W31410  12.770  10.123  13.808  0.0064 -0.1320  0.0495
14563W        W31411   5.760   6.076   4.889  0.1127  0.1369  0.0011
14564W        W31412  17.565  13.841   0.009  0.0452  0.1656  0.0173
14565W        W31413  16.026   8.045  11.965  0.0841 -0.1088  0.0487
14566W        W31414   3.068   3.490  10.703 -0.0611  0.6988 -0.2088
14567W        W31415   5.750   1.257   0.847  0.4036 -0.0861  0.0862
14568W        W31416   9.066   1.865  12.204  0.0347  0.3450 -0.0019
14569W        W31417  15.239   0.930   3.209  0.4338  0.0403  0.2709
14570W        W31418  10.154   2.443   1.355  0.1867  0.1464 -0.3138
14571W        W31419   4.456   1.148   1.412  0.1063  0.0799  0.1505
14572W        W31420   0.889   6.973  13.336  0.0924  0.1439  0.0424
14573W        W31421  15.067   5.239   2.772 -0.2876  0.3583 -0.0539
14574W        W31422  11.568   1.434   2.347 -0.0919 -0.0637  0.1262
14575W        W31423  10.654  12.991   2.900  0.0702  0.2285 -0.2007
14576W        W31424  12.021  17.395  13.353 -0.0939  0.2580 -0.1203
14577W        W31425  16.494  15.796   2.772 -0.2095  0.0305 -0.0215
14578W        W31426   1.729  11.004  13.399  0.3455  0.0592  0.2006
14579W        W31427  10.190   9.225   0.234 -0.0214 -0.0006  0.1347
14580W        W31428  13.268   2.815  14.282  0.1350  0.0015  0.2614
14581W        W31429  11.298   0.754  12.217  0.2575  0.1012 -0.1720
14582W        W31430   4.758   8.633   3.197 -0.2022  0.1117  0.1019
14583W        W31431  18.146   6.505   4.803  0.1094 -0.2161 -0.2677
14584W        W31432  17.051  14.098   2.085  0.0909  0.0132 -0.2436
14585W        W31433  14.962   6.068  14.970 -0.0973  0.1877  0.3145
14586W        W31434  11.484  17.632   2.747 -0.1407  0.3585 -0.1908
14587W        W31435   1.185   5.997  10.707  0.2012  0.2474  0.1846
14588W        W31436   1.147  18.034  14.773  0.3908 -0.0973  0.4794
14589W        W31437   1.791  10.519  11.761 -0.0307 -0.1737 -0.1224
14590W        W31438   0.604   4.350   2.340  0.0094  0.3353  0.1692
14591W        W31439   9.212  10.583   4.232  0.2703 -0.1560  0.0398
14592W        W31440   4.774   9.878  11.506  0.2186  0.0133  0.1418
14593W        W31441   9.174   6.053   4.880  0.2139 -0.0430 -0.0115
14594W        W31442   3.670   6.045  12.495 -0.0724  0.3876  0.1502
14595W        W31443  12.828   6.731  15.306  0.1710  0.0062 -0.0016
14596W        W31444  13.300   0.557   1.608 -0.0358  0.4120 -0.2711
14597W        W31445   2.316  12.077   0.967 -0.2405  0.0780 -0.1230
14598W        W31446  16.607  15.880   4.657 -0.2651  0.0213 -0.2994
14599W        W31447  16.621   4.746  16.053 -0.1451  0.0476  0.0545
14600W        W31448   4.093  15.584   1.367 -0.2350  0.1467 -0.1648
14601W        W31449  18.080   0.299   0.213  0.2337  0.1339 -0.1059
14602W        W31450   3.341   9.757  14.925  0.0101 -0.0481 -0.1458
14603W        W31451  16.860   0.963  16.031 -0.3077  0.1229 -0.2258
14604W        W31452  15.324  12.560   3.623  0.0238 -0.0656  0.3165
14605W        W31453   5.427   9.541  12.262 -0.0696 -0.0227  0.0429
14606W        W31454   5.412   2.571   1.591  0.0378 -0.2079  0.2871
14607W        W31455   8.526   5.384   0.866 -0.2575  0.3102  0.2162
14608W        W31456   4.429   1.653   2.783 -0.0130  0.4037 -0.0377
14609W        W31457  15.027   6.951  13.479  0.0232 -0.1004  0.1152
14610W        W31458   8.150   7.275   5.425 -0.2752 -0.2153  0.0257
14611W        W31459   6.208   4.172   2.345 -0.2561 -0.0465 -0.2486
14612W        W31460   8.238  15.608   3.516 -0.0252 -0.0461  0.3396
14613W        W31461  15.267   5.738   0.699 -0.2629  0.3667 -0.1847
14614W        W31462   7.503  15.763  12.748  0.0632  0.0490  0.2824
14615W        W31463   6.305  12.979   1.435  0.0118  0.0882 -0.2367
14616W        W31464  10.508   6.679  15.185 -0.1284  0.4019  0.0732
14617W        W31465   1.604   6.208   3.417 -0.2897  0.1782 -0.1496
14618W        W31466   6.908  14.759  15.029 -0.0704  0.0154 -0.1445
14619W        W31467   4.162  12.035   0.551 -0.2430 -0.0350  0.0405
14620W        W31468  12.025   1.564  14.653 -0.0966 -0.4622  0.0094
14621W        W31469   7.429   8.413   1.413 -0.2872  0.0805 -0.1298
14622W        W31470   8.715   9.985   2.029 -0.2580 -0.3245 -0.2003
14623W        W31471  16.240  13.542  13.340 -0.1173 -0.1081  0.5006
14624W        W31472   9.539   1.729   2.785 -0.0231  0.0536 -0.4690
14625W        W31473   8.476   0.906   2.947 -0.1848 -0.0380  0.0925
14626W        W31474   6.748  11.891  13.536 -0.3390 -0.4108 -0.0538
14627W        W31475   2.699  16.195  11.800  0.3080  0.1228  0.3069
14628W        W31476   7.415  15.345  14.571  0.0158 -0.2211 -0.2651
14629W        W31477   3.646   7.020  10.856  0.1685  0.0810 -0.0208
14630W        W31478  18.190   2.653   1.679 -0.2457  0.0259  0.0687
14631W        W31479  16.962   9.074   1.815  0.1194 -0.0585  0.0973
14632W        W31480  14.493   5.953  14.820  0.2234  0.3593  0.2951
14633W        W31481  15.668   7.818  14.841  0.1942 -0.0176 -0.2743
14634W        W31482   8.989  12.055   3.051 -0.0435 -0.1210  0.3671
14635W        W31483  11.754  11.830   0.874  0.0171  0.2954 -0.2130
14636W        W31484   3.055   7.923  11.033 -0.3549 -0.1056  0.0077
14637W        W31485   2.084   1.398  12.625 -0.0475 -0.2559  0.1530
14638W        W31486   7.396  10.838  15.312  0.0607 -0.3574  0.1761
14639W        W31487  11.725  14.725  13.679 -0.0786  0.1116 -0.3390
14640W        W31488   7.888  15.458  12.541  0.0083  0.0616 -0.2022
14641W        W31489   2.121  16.290  10.365  0.0521 -0.0300 -0.0083
14642W        W31490  17.782  10.425   0.892  0.0060  0.0324  0.2518
14643W        W31491  14.573   0.272   1.132 -0.1219  0.0382  0.1389
14644W        W31492   7.216  14.495  14.758 -0.1493 -0.0083  0.1008
14645W        W31493   2.036  10.925  13.933 -0.2396  0.0329 -0.1594
14646W        W31494   3.494  12.395  16.011 -0.2258  0.0974  0.2268
14647W        W31495   3.249  11.022  14.933 -0.0814 -0.0754 -0.1887
14648W        W31496  11.992   4.535   0.940  0.3047 -0.2196 -0.3716
14649W        W31497  14.422   6.040   1.117 -0.0319 -0.1650  0.2513
14650W        W31498  16.061   4.362   3.594  0.4967  0.3938 -0.0083
14651W        W31499   1.450   2.512   4.163 -0.2458  0.1314 -0.0481
14652W        W31500   5.903   9.513   0.492  0.1894 -0.1423 -0.1106
14653W        W31501   3.135   0.902  12.193  0.0057 -0.0863  0.0606
14654W        W31502  17.463   0.268   0.225  0.1784  0.0490 -0.2623
14655W        W31503  15.013  14.927  11.991  0.3116 -0.3570  0.0099
14656W        W31504   9.150  11.018   1.975  0.3200  0.2049  0.0430
14657W        W31505   0.497   6.688   0.184  0.0241  0.2246 -0.0808
14658W        W31506   5.344   6.339  15.085  0.0843  0.1521  0.2956
14659W        W31507  18.074  17.562   1.399 -0.1651 -0.0344 -0.1927
14660W        W31508   3.819   4.392   0.096 -0.1242  0.0502 -0.4347
14661W        W31509  13.097   2.656   1.264  0.0758 -0.2412  0.3099
14662W        W31510   3.594  18.125  10.860  0.2379  0.1903  0.2574
14663W        W31511   3.524  15.583   3.881 -0.0709  0.0258  0.1458
14664W        W31512   0.910  15.912   5.113  0.0453 -0.0130 -0.1696
14665W        W31513  16.711   7.615   4.534 -0.0310  0.2540  0.3601
14666W        W31514  10.491   5.000   4.581 -0.1142 -0.0107  0.1948
14667W        W31515   4.270  11.419  15.810 -0.1202  0.1276  0.0890
14668W        W31516   5.139  10.503   0.165 -0.0084 -0.1469  0.0130
14669W        W31517   5.398  17.652   3.767 -0.2034 -0.2054 -0.0784
14670W        W31518   6.697   8.185   3.188  0.0166  0.3076  0.1107
14671W        W31519   8.069  17.921   3.945  0.1135  0.0427  0.1838
14672W        W31520   6.697   0.206   1.410  0.1684 -0.1883 -0.1111
14673W        W31521   4.492   6.184  14.279  0.2556  0.1353  0.2664
14674W        W31522  18.180  15.056   3.128  0.2482 -0.3324  0.0200
14675W        W31523   0.637   1.047  16.039  0.2511 -0.3651  0.2791
14676W        W31524   3.551  18.098   0.346 -0.0269  0.2293  0.3011
14677W        W31525   7.801  13.520  15.690 -0.0441 -0.1840  0.0584
14678W        W31526   8.119   0.779   2.611 -0.1453 -0.0990 -0.0702
14679W        W31527   2.759  15.885  12.401 -0.1358  0.1376 -0.0307
14680W        W31528  12.218  14.766  11.924  0.2340  0.5063  0.1050
14681W        W31529   0.435   4.680   0.707 -0.1551  0.1516  0.4330
14682W        W31530   0.508   4.505  13.561  0.1624 -0.0169 -0.0561
14683W        W31531   0.046  17.201   0.146 -0.1010  0.1639 -0.1793
14684W        W31532   6.651   6.734   3.408  0.0165 -0.3838 -0.0826
14685W        W31533   5.053   2.246   0.145  0.4174  0.0116  0.0646
14686W        W31534   4.588   5.923  12.380 -0.0139  0.2086 -0.5485
14687W        W31535  10.876   1.577  13.521  0.1991 -0.0916 -0.0297
14688W        W31536  13.928   1.515  14.254 -0.2144  0.2643  0.0539
14689W        W31537   6.874  14.019   1.687  0.1298 -0.3391 -0.0099
14690W        W31538  15.347   3.943   1.808 -0.1229  0.0247 -0.1405
14691W        W31539   9.895  13.170   4.481  0.1469  0.1503 -0.3943
14692W        W31540  15.122  11.134   4.347 -0.0643  0.1770  0.1597
14693W        W31541   7.219  16.230   1.374 -0.2271 -0.0719  0.0882
14694W        W31542  17.921  13.248  13.375 -0.1118  0.0967  0.3221
14695W        W31543  12.108   0.945  11.283  0.1191 -0.0918 -0.2599
14696W        W31544   7.887  16.410   4.562  0.0861  0.0703  0.0402
14697W        W31545   5.667  14.856  13.141 -0.1304  0.3041 -0.0060
14698W        W31546  13.556   8.809   5.021  0.2506 -0.2125 -0.0923
14699W        W31547   9.494   9.787   2.462 -0.2449 -0.2565 -0.1510
14700W        W31548  17.206  16.768  11.367 -0.4326 -0.1173  0.1964
14701W        W31549   2.199   6.617   1.865 -0.0234  0.1970  0.2429
14702W        W31550   9.537  12.069   0.371  0.0087  0.1577 -0.3011
14703W        W31551   1.847   3.435  15.636 -0.2981 -0.1440 -0.1480
14704W        W31552   0.068  11.196   1.965 -0.2230  0.0191 -0.1015
14705W        W31553   3.257   2.028  11.293 -0.1142 -0.0804 -0.0176
14706W        W31554  13.794   2.008  14.416  0.0313 -0.0690 -0.1587
14707W        W31555   1.917   7.053   1.635 -0.2775  0.4517 -0.0893
14708W        W31556   0.897  15.996   2.643  0.2820  0.2785  0.0583
14709W        W31557   9.618   7.584   1.369 -0.4174 -0.2525  0.1824
14710W        W31558  14.161  11.419   3.597 -0.3523 -0.0815  0.1318
14711W        W31559  10.028  16.045  13.440 -0.1223  0.1402 -0.0035
14712W        W31560   6.317   4.892   0.653 -0.0796 -0.2081 -0.1423
14713W        W31561   9.467   9.189  12.461  0.1596 -0.5259 -0.4253
14714W        W31562  10.443  13.471   4.248  0.4113 -0.0453  0.2398
14715W        W31563  15.093   3.317  10.943  0.1249  0.1030 -0.1415
14716W        W31564  10.931   8.412   4.048  0.0972  0.2931  0.1232
14717W        W31565  11.723   5.264   4.860  0.1317 -0.0983  0.2537
14718W        W31566   8.422  15.881   1.177  0.0519  0.1593  0.2432
14719W        W31567  12.611  12.032   1.616 -0.0943 -0.0979 -0.0012
14720W        W31568  17.221   0.045  12.940  0.1080 -0.1709  0.2005
14721W        W31569   6.165   0.997   3.106 -0.3375  0.1556  0.4139
14722W        W31570   4.964  16.287   5.793 -0.0586  0.0444  0.0069
14723W        W31571   4.841  16.925  15.789 -0.2905  0.4273 -0.1556
14724W        W31572  17.910  11.650   0.023 -0.1287  0.2864 -0.1049
14725W        W31573  13.769   8.203   0.724  0.2902  0.1326  0.2528
14726W        W31574   0.314   2.361  14.453 -0.0841  0.2418 -0.3122
14727W        W31575  11.060  10.877   5.082  0.0172  0.1985  0.0609
14728W        W31576   3.817   4.462   4.574  0.1672  0.2541  0.0018
14729W        W31577  12.536  11.116  14.092  0.2392  0.1782  0.1879
14730W        W31578  16.369  10.940   1.701 -0.2336 -0.0586 -0.1926
14731W        W31579  11.002   6.209   1.822  0.0529  0.0009 -0.0076
14732W        W31580   5.326   7.775  15.828  0.0370 -0.1670 -0.0048
14733W        W31581   6.871  14.350   4.442 -0.2711  0.2636 -0.0334
14734W        W31582  17.066   4.960  15.907  0.3854 -0.1282 -0.0373
14735W        W31583  12.894   8.842  10.798  0.1283 -0.0778 -0.1186
14736W        W31584  13.991  12.123  10.088  0.1534 -0.0935  0.0012
14737W        W31585   2.376  17.724   4.117  0.1186  0.1447 -0.2157
14738W        W31586   3.227   0.958  11.511  0.1023 -0.1138 -0.1616
14739W        W31587  13.481  17.066  11.754 -0.1725  0.2513 -0.3304
14740W        W31588  15.882  13.036   2.180  0.0542  0.5356 -0.0623
14741W        W31589   9.506   4.508   5.412  0.1916 -0.4672  0.0139
14742W        W31590   5.106  16.213   3.757  0.0095 -0.0181 -0.4745
14743W        W31591   2.056  14.055  13.215  0.4911 -0.0066 -0.0546
14744W        W31592   5.982  11.230  11.136  0.2814 -0.2183  0.0466
14745W        W31593  16.740  13.142   3.872 -0.2585  0.0618 -0.3809
14746W        W31594  17.053  17.332  12.678 -0.2836  0.0382  0.0396
14747W        W31595  15.574  11.572   3.183  0.0719 -0.1592 -0.0489
14748W        W31596   8.170   2.466  13.835  0.2393  0.5091 -0.0648
14749W        W31597   2.441  15.881   3.514 -0.1962  0.1286 -0.0783
14750W        W31598  15.915   7.631  14.413 -0.0754  0.5072 -0.0744
14751W        W31599   9.787  13.141  11.373 -0.5929  0.2628 -0.0985
14752W        W31600  13.597  13.008  10.411  0.1543  0.3381  0.1099
14753W        W31601  11.665   8.242   1.386 -0.2110  0.4797 -0.2057
14754W        W31602   9.810   5.365  12.408 -0.0711 -0.0937  0.2590
14755W        W31603   8.507   8.492   1.504  0.1081  0.0583  0.0950
14756W        W31604   1.203  17.305  16.117 -0.2005  0.1050  0.0571
14757W        W31605   0.743   0.146  11.867 -0.0549 -0.1251 -0.0988
14758W        W31606  15.761  18.059   4.101  0.2477  0.2940  0.0848
14759W        W31607  12.253   7.878   0.683  0.0591 -0.1448  0.0601
14760W        W31608  14.712  12.551   1.450  0.2340  0.3240  0.0279
14761W        W31609   5.017  11.403   3.627 -0.3412 -0.2581 -0.0071
14762W        W31610   1.851   0.078   4.541  0.0621 -0.0339  0.1403
14763W        W31611  16.184   8.812   0.229 -0.1220  0.1385 -0.1338
14764W        W31612   9.101   4.949  13.059  0.3232 -0.2383 -0.4823
14765W        W31613   0.772   1.175   3.666  0.1966  0.0487 -0.0656
14766W        W31614  12.804   7.488  12.065 -0.4105  0.0771  0.4466
14767W        W31615  12.411  13.807   3.019 -0.2321  0.0899 -0.0332
14768W        W31616   4.393   1.538   4.897 -0.0183  0.1450  0.0681
14769W        W31617   5.696  12.991  15.013 -0.2740  0.2502 -0.3026
14770W        W31618  14.961   9.840  12.433 -0.0032  0.0260  0.0378
14771W        W31619   2.566  12.318   4.086 -0.0477 -0.1738  0.1362
14772W        W31620   0.880   1.313   0.730 -0.2440  0.0817  0.0797
14773W        W31621  13.842  11.310   0.229 -0.1847  0.2548  0.2036
14774W        W31622  13.537  16.589   1.217  0.3124 -0.1884 -0.4127
14775W        W31623   5.276  15.237   2.369 -0.3592  0.1777 -0.0959
14776W        W31624   7.518   7.374  12.078 -0.0703  0.1692 -0.1420
14777W        W31625   1.176   5.680   2.752  0.1224 -0.0615  0.2032
14778W        W31626  16.486  10.114   3.430 -0.0062  0.0243  0.2052
14779W        W31627  12.713  18.045   1.280 -0.0796 -0.1570 -0.0157
14780W        W31628   1.153   1.954  12.255  0.1732  0.2553 -0.2725
14781W        W31629   3.331   6.644  13.322  0.1691 -0.3406 -0.1784
14782W        W31630  16.153  15.169  14.837  0.2113  0.2381  0.0964
14783W        W31631   2.854  12.315  10.738  0.2138  0.1116 -0.0049
14784W        W31632  12.565   8.783  12.179 -0.2407  0.2000  0.2559
14785W        W31633  14.706  11.229   2.128  0.1876  0.1216  0.0808
14786W        W31634   4.306   3.050  11.262  0.0822  0.2228  0.1384
14787W        W31635  16.491  10.148  11.923 -0.1457  0.0904 -0.0443
14788W        W31636  17.714  15.581   2.395 -0.0848  0.2824 -0.1677
14789W        W31637   0.237   9.409  11.857 -0.0081 -0.2057  0.1999
14790W        W31638  14.409  10.766   1.287  0.3050 -0.1715  0.1319
14791W        W31639  14.966  10.624   0.398  0.1285  0.1998  0.0933
14792W        W31640  13.421   7.011  10.626 -0.3215  0.2949 -0.1458
14793W        W31641  14.186  11.514   1.842  0.0802 -0.3641  0.0536
14794W        W31642   3.659  10.332  13.886  0.0578  0.1823 -0.3290
14795W        W31643   2.083   2.218  12.065  0.2220  0.0814 -0.0995
14796W        W31644   9.712   0.546  15.595 -0.1164 -0.3234 -0.2223
14797W        W31645  16.849   9.185   0.708  0.1840 -0.0590 -0.1277
14798W        W31646   8.705  11.859   0.867  0.0776 -0.0342  0.0365
14799W        W31647  15.443  10.909   4.011 -0.0031 -0.0813 -0.0861
14800W        W31648  13.562  12.575   3.354  0.2713  0.1171 -0.1376
14801W        W31649  15.338  12.408   0.781 -0.0912  0.0085  0.0477
14802W        W31650   9.924  12.271   4.692  0.0245 -0.4042  0.0055
14803W        W31651  15.211   4.634  14.371 -0.0495 -0.2182  0.2791
14804W        W31652   6.608   2.418   5.175  0.0191  0.0077 -0.0883
14805W        W31653  15.828  14.819   4.865 -0.5419 -0.2232  0.2569
14806W        W31654  11.304  11.838  13.575  0.0606 -0.1196  0.0387
14807W        W31655   4.607   0.407   1.909 -0.3264 -0.1516 -0.2665
14808W        W31656  17.646  17.349  14.939  0.0764  0.0432 -0.1432
14809W        W31657  14.899   7.425  14.391  0.0449 -0.4111  0.0306
14810W        W31658  11.097   3.812  12.961 -0.1281 -0.0430 -0.0315
14811W        W31659   2.055   6.298   3.610 -0.0310  0.0191 -0.0221
14812W        W31660  13.663  14.026  13.557  0.1530  0.3897  0.2436
14813W        W31661   1.621   4.455   0.405  0.5298 -0.0470  0.2511
14814W        W31662  15.776  13.732   3.154  0.3518  0.0582  0.0252
14815W        W31663   5.718   0.302  14.451 -0.2153  0.5257 -0.0153
14816W        W31664   3.268   0.178  12.952  0.0968  0.2226  0.0603
14817W        W31665   4.336  12.313  11.073  0.3301  0.0940  0.1276
14818W        W31666   5.345   1.684  14.641 -0.0002 -0.3397  0.1896
14819W        W31667  17.910   2.253   2.496  0.1440  0.1326 -0.0088
14820W        W31668   8.301   9.105   0.324  0.1469  0.1976  0.1936
14821W        W31669   5.918  12.734  15.785  0.0224  0.0508  0.1881
14822W        W31670  16.461  17.949  11.840  0.0720  0.2619  0.1550
14823W        W31671  11.631  14.360   0.466  0.2187 -0.1610 -0.1738
14824W        W31672   4.795   7.487   2.684 -0.0672 -0.0526 -0.1972
14825W        W31673   6.777  11.967   5.081 -0.1039  0.0546  0.0151
14826W        W31674  17.006   0.418   4.669  0.2082 -0.0393  0.0430
14827W        W31675   7.950   2.601  12.922 -0.0210 -0.0444 -0.2875
14828W        W31676  13.792  14.468  11.440  0.0598 -0.0806  0.1025
14829W        W31677   9.486   5.139   6.019  0.2231  0.3258 -0.2044
14830W        W31678   2.795  11.534  15.187 -0.4431 -0.3305 -0.3487
14831W        W31679   1.030   4.908  13.638  0.2173  0.2788 -0.1729
14832W        W31680   3.882   9.435   2.203 -0.0458 -0.1619 -0.3097
14833W        W31681   2.948   5.354   4.008  0.0979  0.0375  0.0238
14834W        W31682   8.491   6.636  13.364 -0.1389 -0.0464  0.1606
14835W        W31683   9.221   4.482  11.492 -0.4129 -0.1796 -0.1350
14836W        W31684   5.115   1.157   1.950 -0.1374 -0.1722  0.0861
14837W        W31685   5.557   5.088   0.357  0.2797 -0.0289 -0.0289
14838W        W31686   6.169  12.285   2.658 -0.4646  0.2474  0.1929
14839W        W31687   2.140   8.664  14.441  0.1307 -0.1050 -0.0476
14840W        W31688  14.522   3.090  11.105 -0.2335  0.0213 -0.2335
14841W        W31689   4.377  10.460   1.545  0.2320 -0.0364  0.0005
14842W        W31690   8.909  10.349   5.283 -0.4178 -0.0162  0.1354
14843W        W31691   4.713   3.675   9.970 -0.0630  0.0058  0.2489
14844W        W31692  14.436   6.409  11.737  0.1084  0.1841 -0.0216
14845W        W31693   3.772   5.480  12.541 -0.3629 -0.0853  0.2352
14846W        W31694  11.514   6.456   3.832  0.1719 -0.2976  0.0940
14847W        W31695  16.415   4.933   0.754 -0.2140 -0.0607  0.1055
14848W        W31696  12.880  16.366  11.813 -0.0098  0.0457  0.0901
14849W        W31697  17.428   5.647  15.555  0.0983 -0.1417  0.2913
14850W        W31698  15.904   3.316   3.730  0.1791  0.2566  0.3527
14851W        W31699  13.853  14.454   1.427 -0.1014  0.0017  0.4956
14852W        W31700  10.430   1.755   4.046  0.2064  0.3745  0.3500
14853W        W31701   2.958  10.014   1.483  0.1799  0.1521 -0.4472
14854W        W31702   3.220   4.146  15.871  0.0176  0.0224 -0.0319
14855W        W31703  11.805   0.542   3.536  0.0822  0.2126  0.2589
14856W        W31704  13.654   2.105  14.883 -0.2578 -0.4454  0.0431
14857W        W31705   4.275   0.865   2.108 -0.0035 -0.0921  0.1422
14858W        W31706  12.165   7.850  12.335 -0.0046 -0.2293 -0.1069
14859W        W31707   4.046   1.681   3.054  0.0061  0.1234 -0.1579
14860W        W31708  17.462  11.503   1.763 -0.0919 -0.2646  0.2283
14861W        W31709  12.116   4.799   0.013  0.4234 -0.6102 -0.2483
14862W        W31710   8.563   0.239   4.507  0.0900 -0.1273  0.1340
14863W        W31711   4.541  11.640  13.555  0.3768  0.3853 -0.0520
14864W        W31712   8.029   4.472   4.064  0.0737 -0.0563  0.3058
14865W        W31713  13.698   4.140   0.027  0.2800  0.2930  0.0293
14866W        W31714  15.200   8.962   5.543  0.2554 -0.0334 -0.0128
14867W        W31715   9.164   2.716   1.497  0.0391  0.1401 -0.2006
14868W        W31716   9.799   7.680  13.309  0.2413  0.0822  0.2895
14869W        W31717   7.625   5.250   2.902  0.2031 -0.1778  0.0500
14870W        W31718   2.463   8.191   4.771 -0.1726  0.1254  0.2501
14871W        W31719   7.584  14.808   1.772 -0.4673 -0.3050 -0.0722
14872W        W31720  12.297   9.103   3.970  0.1847  0.0622 -0.2106
14873W        W31721   4.857   3.096  14.643  0.0214  0.2497  0.0188
14874W        W31722  13.577   5.774  11.893 -0.0331 -0.2503  0.0005
14875W        W31723  11.744   5.246   2.341  0.0880  0.1486 -0.3673
14876W        W31724   4.397   4.239  15.376  0.1613  0.1835  0.2862
14877W        W31725  15.790   1.518  11.549  0.4242  0.1465 -0.0384
14878W        W31726   0.301   1.251  14.321  0.0698 -0.2266 -0.1377
14879W        W31727  10.738   7.926  12.427  0.1828 -0.0122 -0.0003
14880W        W31728   2.754  12.862   4.973  0.1620 -0.0154 -0.3065
14881W        W31729   1.878   7.655  11.650  0.2836 -0.2616 -0.0940
14882W        W31730   9.858  12.187  15.063 -0.3428 -0.1856  0.0112
14883W        W31731   8.437  17.028  13.689 -0.0468  0.0505 -0.3838
14884W        W31732  14.310  10.802  13.852 -0.0531 -0.1186 -0.2622
14885W        W31733  12.823  12.236   2.967 -0.0562 -0.2507  0.0642
14886W        W31734  14.191   8.918  14.081  0.1109 -0.1018  0.0143
14887W        W31735  16.559   9.475  13.073  0.0844  0.0231 -0.0971
14888W        W31736   8.292   1.043   1.147 -0.1603  0.0233  0.2183
14889W        W31737  16.269  12.092  13.087 -0.0585  0.2821 -0.1294
14890W        W31738   2.529   8.276  12.189 -0.0348  0.0023  0.2823
14891W        W31739   4.927   8.877   6.366  0.2774  0.0536  0.1211
14892W        W31740  11.901  17.827   4.084  0.1181  0.1249 -0.2955
14893W        W31741  18.207   8.595   2.141 -0.2060  0.2144  0.2001
14894W        W31742  14.595  16.907  13.028  0.0428 -0.0286 -0.1164
14895W        W31743  14.530   4.720  14.495 -0.3664  0.1401 -0.1346
14896W        W31744   8.095   8.294   0.693  0.0590  0.1958  0.2076
14897W        W31745  11.836   6.215  11.936  0.0189 -0.0421 -0.2442
14898W        W31746   7.172  17.264  14.502 -0.1526 -0.3321  0.2021
14899W        W31747   7.803   0.405  11.150  0.1429 -0.2121  0.1981
14900W        W31748  14.075   0.364  10.659  0.0048  0.0119 -0.3250
14901W        W31749   5.251   5.628  13.773  0.1542  0.2870  0.2885
14902W        W31750  10.636   5.429  14.465 -0.4434  0.0438  0.0918
14903W        W31751   9.896  17.293   5.314 -0.0765 -0.1388  0.2055
14904W        W31752  16.535   1.009   0.939  0.0618 -0.2480  0.4476
14905W        W31753   6.681  12.229   2.408  0.2413 -0.1717 -0.2625
14906W        W31754   5.820   1.402  12.025  0.0575  0.3148 -0.2309
14907W        W31755   2.146   7.963   4.410 -0.1066  0.0848  0.2203
14908W        W31756   0.911  10.303  12.646 -0.0634  0.0598  0.5021
14909W        W31757  14.192   9.845  12.909  0.3319  0.1883 -0.0023
14910W        W31758  14.982  17.784  15.972 -0.1228 -0.0876  0.2404
14911W        W31759   3.733  15.073   0.472  0.1331  0.1698  0.2961
14912W        W31760  18.107  13.796  12.101 -0.3827 -0.0817 -0.0489
14913W        W31761  10.738  13.636  10.314  0.1306  0.1680  0.1264
14914W        W31762   0.557   0.446  12.357 -0.0880 -0.1175 -0.0095
14915W        W31763   2.091   6.438   4.234  0.2380 -0.2033 -0.0287
14916W        W31764   2.033   7.118  12.365  0.2800  0.2210 -0.0508
14917W        W31765  18.084   9.950  10.908 -0.2259 -0.0558 -0.0172
14918W        W31766   5.608   4.961   1.489 -0.0784 -0.0775  0.4866
14919W        W31767   8.716   6.280  15.286 -0.1232 -0.0743  0.1012
14920W        W31768   5.658   5.756   5.859  0.1579 -0.0616  0.0935
14921W        W31769  12.355  17.935   2.539  0.0171  0.0844  0.1542
14922W        W31770   8.726   4.265  15.544 -0.1427  0.0466  0.0153
14923W        W31771   3.852  16.102   1.772 -0.0985 -0.2196 -0.3382
14924W        W31772   2.232  14.990   5.213  0.0503 -0.0915 -0.2523
14925W        W31773  17.474   7.112  14.717 -0.0376  0.0918 -0.2478
14926W        W31774  17.296  12.764  13.853 -0.0831 -0.1619  0.1001
14927W        W31775   4.710  14.492   0.757 -0.0372 -0.1162  0.1668
14928W        W31776   8.175  17.010   2.818  0.0287  0.2093 -0.2281
14929W        W31777   1.157   7.062  15.153 -0.0637 -0.1241  0.0072
14930W        W31778   2.871   9.080   2.867  0.0684 -0.0881 -0.2378
14931W        W31779  15.136   3.297   4.750 -0.0959  0.2016 -0.1225
14932W        W31780  15.413   7.946   4.490 -0.2473 -0.1258  0.0813
14933W        W31781  14.978   3.263  13.283  0.1896  0.1567  0.2839
14934W        W31782   7.618   9.442  13.118 -0.4140  0.1001 -0.0754
14935W        W31783   9.049   4.325   0.548  0.0044 -0.0975 -0.3233
14936W        W31784   9.009  16.837   2.765 -0.1444 -0.2576 -0.0920
14937W        W31785   8.840   9.048   2.549  0.0547 -0.0331 -0.0377
14938W        W31786  10.168   8.678  12.982  0.2180 -0.0071  0.1943
14939W        W31787  17.417  17.406  10.097  0.0956 -0.1019  0.0629
14940W        W31788   5.504  18.102   1.047  0.0713  0.2359  0.0958
14941W        W31789   8.174   3.804  11.991 -0.2703  0.2645  0.0103
14942W        W31790   8.430   0.916  15.300  0.0451  0.3663 -0.2261
14943W        W31791  15.445   2.601   0.974  0.0933  0.2224 -0.1018
14944W        W31792  15.326  13.049   4.566  0.2091  0.0939  0.1970
14945W        W31793  15.179   8.466   3.345  0.2190 -0.1734 -0.0480
14946W        W31794   2.826  16.187   1.022 -0.0502 -0.1819 -0.0976
14947W        W31795  15.527   0.687   5.657 -0.5225  0.0361  0.1546
14948W        W31796   0.674  14.746   3.911  0.0226  0.1282 -0.1031
14949W        W31797   1.479  15.334   1.266 -0.1291  0.0368 -0.0065
14950W        W31798   1.977   2.397  14.416 -0.0740  0.0359 -0.0485
14951W        W31799  16.138  12.086  11.355  0.0748 -0.2331 -0.0191
14952W        W31800  10.645   3.982   3.994 -0.1465 -0.0248 -0.0907
14953W        W31801   5.024   8.396  10.115 -0.0100  0.1093  0.0914
14954W        W31802  13.353   0.599  15.256  0.1911  0.1913  0.0866
14955W        W31803   7.602  17.292  14.915 -0.0483 -0.1892  0.1744
14956W        W31804  15.336   3.279  14.800  0.2411 -0.0346 -0.0930
14957W        W31805  11.906   4.134  15.407  0.1612 -0.2863 -0.0519
14958W        W31806   5.332  16.612   0.887  0.0894  0.3245  0.0038
14959W        W31807   0.206   8.154   2.409 -0.0758  0.3338  0.4946
14960W        W31808   6.184   3.988  12.684  0.0149  0.3220  0.0747
14961W        W31809  16.711   2.495   2.895 -0.1727  0.1027 -0.2798
14962W        W31810   4.257   8.039   3.180  0.0600 -0.2837 -0.2669
14963W        W31811   3.458   6.884   3.808  0.0299  0.1609 -0.1586
14964W        W31812  10.813  13.076   5.760  0.0718  0.2581 -0.0135
14965W        W31813   2.017   0.735  11.466  0.0339 -0.0525  0.2919
14966W        W31814   5.334  14.816   5.351 -0.1909  0.4595  0.0796
14967W        W31815  17.587   2.951   5.327 -0.1564 -0.1150  0.0642
14968W        W31816   0.162   8.518   3.231 -0.0957 -0.2761 -0.4480
14969W        W31817   4.008   7.085  15.690 -0.3263 -0.1489  0.0664
14970W        W31818   4.335  17.593   2.772 -0.0737 -0.1942  0.2959
14971W        W31819   3.432   9.608   4.493 -0.0439  0.1638 -0.1965
14972W        W31820  12.853  17.125  12.943  0.0508 -0.2424 -0.2640
14973W        W31821  16.717  14.007   1.712  0.1478  0.0362  0.1471
14974W        W31822  13.642  14.324   5.289  0.0207  0.1099  0.0651
14975W        W31823   1.922   1.096  14.109 -0.2800 -0.1285  0.3706
14976W        W31824   1.753  14.081   3.007  0.1043 -0.2238 -0.3075
14977W        W31825   5.622   2.281  16.026 -0.1624  0.2998  0.1063
14978W        W31826   8.614   8.293   1.905  0.0448 -0.0368 -0.0424
14979W        W31827   1.441   0.297   4.389 -0.0761  0.2437  0.2091
14980W        W31828   8.718  11.294  11.167 -0.0894 -0.1364  0.1655
14981W        W31829  16.104  11.529  13.144  0.2882  0.0791 -0.0732
14982W        W31830   3.924  16.821  12.745 -0.2577 -0.2909 -0.1061
14983W        W31831  14.298   3.321   2.730  0.1459  0.1734 -0.2909
14984W        W31832   0.250  16.932   2.853 -0.1521 -0.2335  0.3033
14985W        W31833   4.977  18.019   4.631 -0.2288  0.0796  0.0340
14986W        W31834   6.471  11.211  15.197 -0.0414  0.2988  0.0392
14987W        W31835  17.565   7.710   0.865  0.5126  0.2667 -0.1770
14988W        W31836  15.628  15.871   3.448  0.0252  0.0468  0.1768
14989W        W31837   0.436  15.741   3.837 -0.2565 -0.5917  0.0729
14990W        W31838   3.076   1.788  12.734  0.1224 -0.1949  0.0421
14991W        W31839   6.968  14.823   4.595  0.2308  0.2735 -0.2342
14992W        W31840   3.627  11.973  11.938  0.3142 -0.1532  0.1171
14993W        W31841   7.260  13.858  12.855 -0.1074 -0.1103  0.3502
14994W        W31842   2.479  14.183  11.926  0.1419  0.2908  0.3162
14995W        W31843   8.940   1.078  13.244 -0.0834  0.0133  0.1698
14996W        W31844  18.062  10.848   1.199  0.0102  0.0393  0.0294
14997W        W31845   1.129   2.304  15.571 -0.2808  0.0249 -0.1420
14998W        W31846   7.868  11.689   0.977 -0.3922  0.0810 -0.2291
14999W        W31847  16.131  14.971  11.222 -0.4248 -0.3618  0.2764
15000W        W31848   9.183  10.467  16.052 -0.2760  0.2049 -0.2172
15001W        W31849  15.336  13.455   3.202 -0.1820  0.0192  0.0271
15002W        W31850   7.969   5.728   2.646 -0.1013  0.1522 -0.0007
15003W        W31851  13.985  17.217  12.517 -0.1448 -0.2295 -0.3460
15004W        W31852  17.337  12.107  10.258  0.0198  0.0276  0.0368
15005W        W31853   3.488   2.729  13.919 -0.2533 -0.1883  0.1147
15006W        W31854   7.706  10.719  13.182 -0.0249  0.0853 -0.3907
15007W        W31855  14.020   7.104  15.387 -0.3026 -0.1205 -0.0946
15008W        W31856   0.774   2.147  13.522  0.0552  0.2529 -0.0234
15009W        W31857   6.855   1.839   5.261  0.1476  0.1037 -0.2007
15010W        W31858  12.056  13.418   3.421  0.0561  0.0793  0.1644
15011W        W31859  17.196   8.844  11.966 -0.1538 -0.0374 -0.3713
15012W        W31860   0.436   4.368   4.842 -0.1849  0.0841  0.3241
15013W        W31861  12.052   6.415   3.729 -0.0301 -0.1151  0.0549
15014W        W31862  16.576  15.562  13.436 -0.0699  0.3217  0.1285
15015W        W31863  13.254   6.377   2.172 -0.0851  0.1310  0.0769
15016W        W31864   8.867  16.178   1.337  0.3059 -0.1067 -0.2053
15017W        W31865   2.276  17.428  14.768  0.0438 -0.0535 -0.1911
15018W        W31866  11.926  10.231  13.464 -0.0415  0.0995 -0.1637
15019W        W31867   7.549  12.959  13.050  0.0136 -0.0316 -0.0500
15020W        W31868   3.527   0.265   2.922 -0.2737  0.3244  0.3149
15021W        W31869   4.149  10.578   3.875 -0.2964  0.1159 -0.0325
15022W        W31870  18.168   1.474   1.557 -0.0259  0.3431 -0.1699
15023W        W31871   3.468  14.459  12.944  0.1147 -0.1026  0.0127
15024W        W31872   4.727  18.004   0.460  0.1516 -0.0017 -0.4392
15025W        W31873  16.715   5.822  12.191 -0.1635  0.2124  0.3556
15026W        W31874   5.115  10.077  14.875 -0.1304  0.1262 -0.2020
15027W        W31875   2.389   3.753  12.073  0.0670  0.2704 -0.1677
15028W        W31876  17.682   4.896  14.353  0.0809 -0.1752 -0.0716
15029W        W31877  15.089  10.141  15.676 -0.0229  0.3274  0.0546
15030W        W31878   5.451  15.374   1.733  0.0889 -0.2225  0.3377
15031W        W31879   2.477  13.428   0.128  0.1085 -0.1568 -0.3365
15032W        W31880   4.980   6.372  11.121  0.1360 -0.0096 -0.1550
15033W        W31881   2.005   4.151   0.487  0.4138 -0.2308  0.4012
15034W        W31882   6.955   5.122   0.245 -0.0031 -0.1347 -0.2152
15035W        W31883  14.181  16.539   4.529  0.0233 -0.0394  0.3930
15036W        W31884  11.356   4.114   1.303 -0.3690  0.1289 -0.2651
15037W        W31885   7.862  13.570   5.044 -0.1281 -0.1796 -0.3965
15038W        W31886   3.743  11.944   3.676 -0.1425  0.1831 -0.0884
15039W        W31887   7.941   9.662  14.170 -0.0069  0.2833 -0.3273
15040W        W31888  13.451   6.793   3.048  0.1661  0.0094  0.1664
15041W        W31889  13.640   4.516   1.563 -0.2345 -0.0744  0.0843
15042W        W31890   2.583  18.058  11.666  0.0888 -0.1080  0.1705
15043W        W31891   4.570   8.403  14.620 -0.0185 -0.0096 -0.1074
15044W        W31892   4.753  12.012   2.522 -0.0159 -0.0095 -0.2458
15045W        W31893  17.744   0.784  12.785 -0.0541 -0.0759 -0.0491
15046W        W31894   9.707   5.014   4.014 -0.2797 -0.0143  0.0925
15047W        W31895  17.185  11.844   4.141 -0.1516  0.0699 -0.2813
15048W        W31896   0.953  17.608   3.991 -0.0506 -0.3402  0.0910
15049W        W31897  17.881   9.944   0.006 -0.4287 -0.1120  0.1655
15050W        W31898  12.621   8.888   1.136 -0.0294 -0.2191  0.0019
15051W        W31899   7.774  17.057   1.213  0.0696  0.2417  0.2103
15052W        W31900  18.143  10.220   0.507 -0.0344  0.0738 -0.1168
15053W        W31901  16.281  10.295  10.525  0.0311  0.0783  0.1862
15054W        W31902  12.797   2.092  15.075  0.1480 -0.2145  0.0492
15055W        W31903   3.910  17.102   1.396 -0.1149  0.0970  0.1064
15056W        W31904  14.549  11.003  11.943  0.1621  0.1313  0.0178
15057W        W31905  16.259  15.702   4.991 -0.0474 -0.0145  0.3797
15058W        W31906   2.422  10.202  12.890 -0.5493  0.0284 -0.0645
15059W        W31907  11.374   4.475  12.372 -0.2471 -0.3027  0.0095
15060W        W31908   4.719   2.821   1.025  0.0146 -0.0450 -0.1790
15061W        W31909  13.531  13.977   0.157  0.1286 -0.0112 -0.1598
15062W        W31910   6.959  17.094   1.389 -0.0218  0.0656 -0.0812
15063W        W31911  16.004   9.845   5.840  0.0996 -0.1673  0.1297
15064W        W31912   5.223  13.465   1.748 -0.1407  0.0399 -0.1191
15065W        W31913   5.413  10.758   4.550  0.0131 -0.1063 -0.0547
15066W        W31914  13.242  16.021   5.570  0.0951 -0.0211  0.0498
15067W        W31915  16.403   7.054  12.676  0.1754  0.2376 -0.0854
15068W        W31916   1.138   3.164  15.516  0.2143  0.2092  0.0705
15069W        W31917   6.945  17.735   2.598  0.0657 -0.0035 -0.1925
15070W        W31918  17.939   7.401  15.649 -0.0109  0.1253  0.0752
15071W        W31919  17.762   0.563  15.834 -0.2017  0.1760  0.1982
15072W        W31920   0.540   1.860   3.629 -0.0048 -0.0682 -0.1289
15073W        W31921   9.518  14.370   0.914  0.1339  0.2088 -0.2359
15074W        W31922   4.647  15.986   5.529 -0.0838 -0.0837  0.2280
15075W        W31923  10.371  13.565   2.420  0.0930 -0.0608  0.1205
15076W        W31924  12.664  14.692  12.576 -0.0425  0.1347  0.0928
15077W        W31925   9.659  10.311   4.592  0.0456 -0.2062  0.6511
15078W        W31926   0.816  11.523  12.053 -0.3400 -0.1321  0.0827
15079W        W31927  16.311   6.002  15.716  0.0040  0.0214 -0.2400
15080W        W31928  15.908   7.295  13.545 -0.0740  0.1051 -0.1070
15081W        W31929   2.454   9.773   4.222 -0.0193  0.2728 -0.1358
15082W        W31930  14.681   3.551   3.474  0.1439  0.1802  0.0748
15083W        W31931   4.420  10.634  14.506 -0.2417 -0.2562  0.1280
15084W        W31932   0.920   0.770  13.820  0.0244 -0.1194  0.0046
15085W        W31933   9.872   0.477   3.884  0.1090  0.0964  0.2816
15086W        W31934   6.400  17.523   3.915  0.2897 -0.0372  0.4802
15087W        W31935   1.283  10.491  13.471 -0.1493 -0.2186  0.1443
15088W        W31936  13.842  12.358   4.518 -0.1684 -0.1712  0.1325
15089W        W31937   2.262  15.651   1.626  0.1824  0.1492 -0.1011
15090W        W31938   1.322  17.753   0.118  0.3792 -0.1968 -0.0883
15091W        W31939  16.995   4.083  11.171  0.0181 -0.0966  0.0794
15092W        W31940   7.682   6.042  14.557  0.2583  0.0621  0.1279
15093W        W31941   6.177   2.231   0.762 -0.0160  0.4043 -0.2388
15094W        W31942   7.661   4.517  12.230  0.0684 -0.1424  0.0638
15095W        W31943   4.150  16.948   0.296 -0.1108 -0.0272 -0.0366
15096W        W31944  10.825   0.622  12.215 -0.0003  0.2577  0.0960
15097W        W31945   3.415  16.658  12.796 -0.0679  0.1805  0.0689
15098W        W31946  16.257  10.243   1.160  0.0115 -0.1630  0.0266
15099W        W31947   5.292  17.880   1.947  0.1498  0.1159  0.2292
15100W        W31948   6.065  11.243   0.041 -0.0643 -0.2394 -0.0705
15101W        W31949  12.981   9.276   5.737  0.1392  0.2063 -0.0297
15102W        W31950   6.273  16.381  12.379 -0.5376  0.2878 -0.0720
15103W        W31951  13.759  12.489  14.622 -0.0809  0.1625 -0.0332
15104W        W31952   3.555   3.992   3.897 -0.0064 -0.0458 -0.3074
15105W        W31953  10.929   8.084   2.689  0.2047 -0.1360 -0.1825
15106W        W31954  10.381   1.094   4.719  0.0330  0.2123 -0.3067
15107W        W31955  15.260   8.614   4.310 -0.0029  0.0171 -0.0110
15108W        W31956  12.302  18.125   3.090 -0.2359  0.3400  0.2748
15109W        W31957   3.818  13.486  11.614 -0.1021 -0.0008  0.3656
15110W        W31958  16.598  17.591  14.272 -0.4046 -0.3182  0.0466
15111W        W31959   4.367  10.496   0.983  0.2866 -0.2405  0.0119
15112W        W31960  11.831  10.632   3.001  0.0223  0.1352 -0.0239
15113W        W31961  17.629   1.500  11.888 -0.1379  0.1868 -0.1827
15114W        W31962   5.277   2.098   4.683  0.3115 -0.0164  0.1180
15115W        W31963  16.418  15.271   2.297  0.1502  0.1574 -0.0471
15116W        W31964  13.992   2.304  12.285  0.1585 -0.2322 -0.2378
15117W        W31965   6.735  12.651   1.564 -0.2144 -0.1934 -0.2661
15118W        W31966  13.155   4.701   0.376  0.1950 -0.1350 -0.2527
15119W        W31967   3.211   2.078  14.058 -0.3450 -0.0108  0.1878
15120W        W31968  16.561  15.361   1.682  0.2092  0.2851  0.1109
15121W        W31969   9.973  14.247   3.895 -0.5084 -0.2785 -0.1089
15122W        W31970   4.948  13.270  13.995 -0.3424 -0.2478  0.0057
15123W        W31971   7.076   8.513   3.992  0.3132  0.0689 -0.0490
15124W        W31972  13.998  16.516   1.020 -0.2001  0.2522  0.2815
15125W        W31973   8.551  15.303   4.846 -0.0099  0.1254  0.2647
15126W        W31974  10.538   5.269  10.255 -0.3452 -0.1292 -0.1624
15127W        W31975   4.987  12.785   1.366  0.2857 -0.2951 -0.2410
15128W        W31976   8.763   1.870   3.919  0.0281  0.4343  0.0196
15129W        W31977  11.039   3.383  10.949  0.0097  0.1993 -0.1132
15130W        W31978  14.598  11.175  11.252 -0.3168 -0.1919 -0.5137
15131W        W31979   5.140  11.905  14.815 -0.1955 -0.1468  0.2126
15132W        W31980  10.084  12.950   3.973 -0.0354  0.0282  0.0139
15133W        W31981  10.661  15.586   5.005  0.1595  0.2991  0.0410
15134W        W31982   5.321   0.236   3.462  0.0521  0.0538 -0.0247
15135W        W31983  10.102   8.790  12.293  0.0762 -0.1050  0.0778
15136W        W31984  14.163   2.272   2.283 -0.0852 -0.2063 -0.3278
15137W        W31985   3.912   6.928   4.047 -0.2160  0.0167  0.0003
15138W        W31986   2.624   0.262   4.309 -0.2543 -0.2423  0.2945
15139W        W31987   5.523  12.619   1.976 -0.2295 -0.1736  0.0913
15140W        W31988   0.238   8.643  13.924  0.2217  0.3668 -0.0364
15141W        W31989   1.896   3.711   4.653  0.0746 -0.1769  0.1385
15142W        W31990  14.918  11.540  14.701 -0.0679 -0.1738  0.1997
15143W        W31991  14.560   1.732  14.767 -0.1684  0.1199  0.1072
15144W        W31992   3.212  16.153  11.580  0.0796 -0.0022 -0.2632
15145W        W31993  14.787  15.970  15.053  0.2112  0.3085  0.0284
15146W        W31994   5.209   2.067   5.220  0.0980 -0.0733 -0.3885
15147W        W31995   1.197  15.375   1.705  0.4350  0.3369  0.1045
15148W        W31996   5.792  11.224   2.137  0.0773 -0.0911  0.2530
15149W        W31997   4.410   2.583   2.197  0.4175 -0.4013  0.3643
15150W        W31998   4.927  12.568  13.350 -0.2319  0.0568 -0.1561
15151W        W31999   1.928   9.167   1.317 -0.0064  0.2424 -0.1972
15152W        W32000   0.625   7.355   2.756  0.3875  0.1936  0.3476
15153W        W32001   9.169  12.726   3.726 -0.2214  0.0727 -0.1795
15154W        W32002  14.103  16.117  15.720  0.2536 -0.0458 -0.0124
15155W        W32003  16.409  16.517   5.521  0.4405 -0.0536  0.5100
15156W        W32004  12.127   9.871   1.168 -0.1888 -0.0670 -0.0242
15157W        W32005   5.124  14.082  13.582  0.2506 -0.2024  0.0545
15158W        W32006   2.026   4.060  13.349  0.1723 -0.2853  0.0640
15159W        W32007  13.262  10.194  15.913  0.0627 -0.1792  0.0810
15160W        W32008   7.320   9.160   1.713 -0.1064  0.1559  0.0210
15161W        W32009  16.787   2.568  15.804  0.1765 -0.0446 -0.0978
15162W        W32010  12.975   5.193  15.404 -0.5809  0.1710  0.2734
15163W        W32011  12.904  13.730  15.276 -0.1380 -0.0127 -0.0086
15164W        W32012  16.258  16.375  15.472 -0.1887 -0.0561  0.0267
15165W        W32013   7.166   6.704  11.734  0.1139  0.2492 -0.0401
15166W        W32014   8.704  17.907   1.217 -0.1302 -0.2953  0.1081
15167W        W32015  11.286   4.776  14.226  0.1667 -0.0864 -0.0282
15168W        W32016   6.543   7.708   2.988  0.1811  0.1555  0.0327
15169W        W32017  12.293   9.673  15.223  0.2826  0.0211  0.2491
15170W        W32018  10.927  10.783  13.726 -0.1871  0.0688 -0.2524
15171W        W32019   5.532   8.936   2.300  0.0968 -0.0925 -0.2356
15172W        W32020  13.196  16.141   4.621  0.1295 -0.0006  0.0443
15173W        W32021  17.301   0.561   0.599  0.3772 -0.1027  0.0921
15174W        W32022  14.287  17.002  13.572  0.1021 -0.5119 -0.0370
15175W        W32023  11.188  10.228  12.479  0.3312 -0.0907 -0.1650
15176W        W32024   5.792  13.611  12.601  0.3876  0.1499  0.2372
15177W        W32025  15.684   3.563   5.014  0.2106  0.0101 -0.0923
15178W        W32026  16.583  18.219  15.973  0.0737 -0.0396 -0.4164
15179W        W32027   9.049   3.250   1.683  0.1078  0.0296  0.1450
15180W        W32028   4.131   2.533  12.892  0.2194  0.0761  0.4447
15181W        W32029  11.481  15.290  12.435  0.1393 -0.2629 -0.2236
15182W        W32030  13.925  13.734  12.126  0.0070  0.1269 -0.2214
15183W        W32031  10.052  11.330  14.020  0.2188 -0.0180 -0.1475
15184W        W32032   1.321   2.396   2.143 -0.0716  0.0084  0.0602
15185W        W32033  18.209   7.789   4.076  0.0816  0.1404 -0.2032
15186W        W32034   4.419  17.305  14.841 -0.0591 -0.2098 -0.1168
15187W        W32035   8.954   1.587   2.980 -0.0820 -0.1348  0.1980
15188W        W32036  10.580  10.867  15.375 -0.0627  0.1004  0.1698
15189W        W32037   5.602   6.874   2.823 -0.0113  0.1416  0.0312
15190W        W32038  14.207   0.793  14.836 -0.1233  0.0708  0.1140
15191W        W32039  12.000  17.946   1.641  0.1338 -0.1198  0.0557
15192W        W32040  11.795   5.936  11.454 -0.0692 -0.1854 -0.2352
15193W        W32041  11.659  12.096   1.267  0.0950  0.1712 -0.1606
15194W        W32042   6.960   8.648  15.927  0.1600 -0.0160  0.0551
15195W        W32043  10.560  13.426   3.352  0.2275 -0.0127  0.3504
15196W        W32044   4.259   7.597   1.137  0.0057  0.0382  0.0786
15197W        W32045   5.660   1.974  14.069 -0.0719 -0.0034  0.1510
15198W        W32046  17.488   5.917   3.847 -0.1424 -0.1767 -0.0412
15199W        W32047   2.713   3.685   1.531 -0.1678  0.0316 -0.0462
15200W        W32048  12.342  12.427  13.567 -0.2370 -0.2698 -0.0793
15201W        W32049   0.297   6.342  14.406  0.2036 -0.2682  0.1677
15202W        W32050   2.604   0.760   4.434 -0.1423 -0.0678 -0.0694
15203W        W32051   9.521   9.747  13.569 -0.0048  0.0514 -0.1091
15204W        W32052  11.640  15.950  13.198  0.0138 -0.1010 -0.0885
15205W        W32053   4.118   0.663  13.839  0.1042  0.1154  0.3899
15206W        W32054  17.399  14.894  11.925  0.2625  0.2570 -0.1858
15207W        W32055  13.381  13.244  11.697  0.0774  0.4436  0.0467
15208W        W32056  15.677   5.357  15.758  0.1658  0.0188 -0.1104
15209W        W32057  11.105   5.047   0.958 -0.3082 -0.0075 -0.1714
15210W        W32058   3.000  13.457  13.701 -0.2257  0.1299 -0.0796
15211W        W32059  12.312  12.515  14.841 -0.4366 -0.0253  0.1304
15212W        W32060   8.145   5.985  13.038 -0.0155 -0.2990  0.1124
15213W        W32061   7.459   2.538  12.803  0.0699 -0.2375  0.0080
15214W        W32062   4.662   9.049   0.929  0.3474 -0.1460  0.0488
15215W        W32063  10.457  10.087  14.823 -0.0992  0.0931  0.1538
15216W        W32064   5.911   2.367   1.464  0.1474  0.3382  0.1241
15217W        W32065   9.005  13.257  13.652  0.0620  0.4340  0.1859
15218W        W32066  17.592   3.329   3.098 -0.0136  0.3007  0.2253
15219W        W32067  17.212  12.190   1.414 -0.1777  0.2366  0.2705
15220W        W32068   3.532  14.949  11.031  0.2570  0.2647 -0.2284
15221W        W32069  16.577  14.162   5.303  0.0257 -0.1359  0.1056
15222W        W32070  12.990   6.288  12.125 -0.2475 -0.1175 -0.0215
15223W        W32071  15.167  15.196   2.158  0.2374  0.1341 -0.0700
15224W        W32072  12.976   4.211  13.066  0.1125  0.0505 -0.0654
15225W        W32073   9.681   9.624  11.028 -0.0932  0.2225 -0.2729
15226W        W32074  15.711  13.551  14.741  0.7619  0.1566 -0.3813
15227W        W32075   9.170   1.514  11.144  0.2492  0.0821 -0.4659
15228W        W32076  18.032   8.273  13.867  0.1964  0.2189  0.0273
15229W        W32077   3.416  11.542   3.886 -0.3378  0.1420 -0.4762
15230W        W32078  14.990  15.669   3.395 -0.2276 -0.1189 -0.2265
15231W        W32079   6.272   3.282   2.277 -0.0850  0.0339  0.0550
15232W        W32080   3.208   1.697   1.937 -0.1594 -0.0840 -0.2887
15233W        W32081  12.834   6.241  13.792 -0.0054  0.3075 -0.3663
15234W        W32082   2.156  12.374   5.742  0.0541 -0.2455  0.2304
15235W        W32083   2.763   5.763   0.259 -0.0924  0.1880 -0.0187
15236W        W32084  17.878  14.626   4.107  0.0831  0.0815  0.3459
15237W        W32085   4.947  11.831   1.099 -0.3172  0.1021  0.2800
15238W        W32086  10.932  12.342   0.598 -0.3007 -0.1793 -0.1252
15239W        W32087  14.839  17.764  10.400 -0.0236 -0.1211 -0.2614
15240W        W32088   6.019   0.192  16.119 -0.0577  0.2142 -0.0457
15241W        W32089   3.412  12.378   3.413 -0.0309  0.4213 -0.2508
15242W        W32090   7.019   0.942   3.155 -0.0245  0.0143 -0.2485
15243W        W32091   8.548   2.177  15.485  0.3007  0.2714  0.2144
15244W        W32092   5.950   8.284   2.610  0.0180 -0.1970 -0.0455
15245W        W32093  18.025  15.163  11.078  0.2280  0.1123 -0.0209
15246W        W32094  17.198   1.164  11.763  0.1413 -0.1425 -0.3176
15247W        W32095   8.549   8.012  11.183  0.1142 -0.0124  0.0341
15248W        W32096   2.580   5.402  14.581  0.0616 -0.1924 -0.0253
15249W        W32097   5.165   2.157   3.883  0.1785  0.2069 -0.0631
15250W        W32098  14.083  13.095   0.940  0.1849  0.2794 -0.3098
15251W        W32099  16.627   4.823  12.951  0.0647 -0.1410 -0.3501
15252W        W32100   2.924  15.401   4.039  0.0149 -0.1895  0.0057
15253W        W32101   0.332  14.568  13.500  0.0336  0.0763 -0.0760
15254W        W32102   6.163  15.898   9.768  0.0812 -0.1483  0.0955
15255W        W32103  12.617   1.886   1.658 -0.0275 -0.0705  0.0661
15256W        W32104  11.823  13.024   3.533 -0.0058  0.0762  0.1326
15257W        W32105   5.880  16.819  10.743 -0.0687 -0.0083 -0.0076
15258W        W32106  12.729   3.343   3.410 -0.1451 -0.0378 -0.0186
15259W        W32107  12.006  10.291  12.209 -0.1331  0.3695  0.3758
15260W        W32108   9.346   8.666  12.575 -0.0703  0.1554 -0.1590
15261W        W32109   9.285   7.567   4.786  0.0357  0.3688  0.0831
15262W        W32110   9.544   4.024   4.085  0.3494 -0.2977  0.1754
15263W        W32111   6.976  14.543  14.307 -0.0068 -0.2115 -0.0836
15264W        W32112   4.194  13.450  11.205 -0.1078  0.1988  0.0341
15265W        W32113   9.620  10.349   3.940  0.1241  0.2930 -0.1958
15266W        W32114   7.991  13.149  10.781 -0.0018  0.1388 -0.1293
15267W        W32115  17.222  16.555  10.839 -0.1353  0.0831  0.1381
15268W        W32116   9.011  12.684   2.827  0.4980 -0.1162 -0.2015
15269W        W32117   5.728   7.163  13.375  0.0441 -0.0974  0.0459
15270W        W32118   4.536   9.783   4.826 -0.1136  0.0087 -0.0343
15271W        W32119   5.856   3.607  12.817  0.1678 -0.3690 -0.1903
15272W        W32120  10.912  17.389   2.700 -0.2896 -0.0368 -0.1526
15273W        W32121   9.345   2.138   0.017  0.1127  0.0088 -0.2055
15274W        W32122  15.095   8.344  11.754 -0.0390 -0.0810  0.2035
15275W        W32123  13.332  10.179   1.327 -0.3418 -0.2562  0.0970
15276W        W32124   5.069   7.983  15.397 -0.2195 -0.0610  0.1787
15277W        W32125   8.402   4.765   2.299 -0.1671  0.2513  0.0493
15278W        W32126   9.191   1.711   4.159  0.0191  0.2417  0.3219
15279W        W32127  11.001   3.538  12.576  0.1977 -0.2002 -0.2078
15280W        W32128   4.486  15.932   0.901 -0.1453  0.0647  0.1215
15281W        W32129   8.126   6.219  14.522  0.0753 -0.1201  0.1896
15282W        W32130   9.828   6.478   5.457 -0.0618 -0.5014  0.1410
15283W        W32131   1.301  14.918   0.997 -0.0547 -0.0515  0.4172
15284W        W32132  13.593   1.655   4.569  0.1926  0.0773 -0.0864
15285W        W32133  16.462   4.418  12.057  0.1980  0.0874  0.0692
15286W        W32134  17.792   1.614  15.752  0.0312 -0.0321  0.0101
15287W        W32135   5.165  16.426   4.708 -0.0058 -0.0242 -0.3912
15288W        W32136   7.054   9.294   2.820 -0.1080  0.1182  0.3397
15289W        W32137   4.180  13.621   4.755  0.0224 -0.1549  0.0217
15290W        W32138   2.824   1.741   6.287  0.1650  0.0128 -0.2294
15291W        W32139  12.022  11.441   3.588 -0.1279 -0.2777  0.2131
15292W        W32140   7.793   5.055   1.514 -0.0326  0.0736  0.2390
15293W        W32141  13.434   1.498   4.021  0.1695  0.3092 -0.2611
15294W        W32142   0.688  10.990   3.272  0.1827  0.0320  0.0170
15295W        W32143   1.519   7.127  15.923  0.1523 -0.2111  0.0271
15296W        W32144   8.564   7.830   0.725 -0.1212  0.1659  0.0737
15297W        W32145   9.988   0.947  14.806 -0.1544 -0.0088  0.0041
15298W        W32146   8.464   3.118   1.616 -0.0018 -0.4223 -0.0962
15299W        W32147  10.768  10.523   2.672 -0.2399  0.1824 -0.0535
15300W        W32148   9.559  11.211  15.289 -0.1773  0.1291  0.1618
15301W        W32149   4.177  17.725   5.257  0.1038 -0.0883  0.0460
15302W        W32150  10.195   2.470  12.325  0.0270 -0.1932  0.1267
15303W        W32151  13.452   5.396  12.207  0.1103  0.1114 -0.0904
15304W        W32152   2.882  14.110  13.559 -0.0939  0.1460  0.0401
15305W        W32153  16.865   1.269  13.530  0.0327  0.0966 -0.1229
15306W        W32154   9.540  10.754  14.541  0.3203  0.0453 -0.1215
15307W        W32155   9.974   8.321   2.798  0.2692  0.2714 -0.1996
15308W        W32156  10.468  17.387  12.800  0.1305  0.0309 -0.0537
15309W        W32157  16.168  14.274   2.381  0.1926 -0.0461 -0.1966
15310W        W32158  16.330  16.878  15.215 -0.0317 -0.2623  0.1126
15311W        W32159  13.601  13.494  14.379 -0.1264 -0.1888  0.0837
15312W        W32160  16.554   4.258  15.755  0.0520  0.3683  0.0404
15313W        W32161   5.757  10.186   5.043 -0.0180 -0.0634  0.0099
15314W        W32162  13.342  13.639   0.487  0.2032  0.4680 -0.1283
15315W        W32163  17.838   4.643  14.874  0.2118 -0.0958 -0.0504
15316W        W32164   3.057  13.081   1.261  0.1768 -0.2244 -0.1057
15317W        W32165   2.897   2.625   5.503  0.0433  0.0781 -0.0912
15318W        W32166  13.869   0.023  14.186  0.2099  0.1059 -0.0031
15319W        W32167   3.287   0.235   3.795 -0.1080 -0.1686 -0.0551
15320W        W32168  13.868  15.593  14.837 -0.0955 -0.1603 -0.0967
15321W        W32169  17.651   5.164   3.310 -0.0330 -0.0655 -0.2548
15322W        W32170  18.016   4.074   4.792  0.3028 -0.0251  0.2895
15323W        W32171  17.310   0.273   5.755 -0.1613 -0.0721 -0.1260
15324W        W32172  14.553  18.158  12.850  0.0881  0.1436 -0.2218
15325W        W32173  15.523  10.877   5.583  0.1878 -0.1830  0.0276
15326W        W32174  16.683   4.638  14.731 -0.1672 -0.1646  0.0531
15327W        W32175   8.622   1.905   1.270 -0.2284  0.0860 -0.2898
15328W        W32176  10.059  10.482   6.029  0.2065 -0.4023  0.0336
15329W        W32177  15.324  12.029  13.409  0.0712  0.0082  0.0338
15330W        W32178   3.341  12.114   0.464 -0.0223 -0.2255 -0.2344
15331W        W32179   8.471   2.661  14.679  0.1903 -0.3578 -0.2489
15332W        W32180   0.367  14.002  11.993 -0.0598  0.1736  0.1164
15333W        W32181  14.043  12.593  13.914  0.0133 -0.1559 -0.2187
15334W        W32182  17.014   7.828   3.208 -0.0141 -0.1042  0.0335
15335W        W32183  12.915  12.972   5.077 -0.1431  0.5013  0.1391
15336W        W32184  17.823   6.353   3.709 -0.0185  0.1225  0.2656
15337W        W32185   5.509  13.822  14.359  0.0420  0.2266  0.0094
15338W        W32186   7.636   7.443   0.474  0.0637 -0.2715 -0.0403
15339W        W32187   5.918  14.354  13.137 -0.0329 -0.2980 -0.0864
15340W        W32188  10.832   0.875   3.209 -0.0359 -0.0939  0.0846
15341W        W32189   0.574  11.102   1.803 -0.0508 -0.1676  0.1695
15342W        W32190   7.395   4.341   3.993 -0.1243  0.1397  0.0542
15343W        W32191   6.621   6.330   2.813 -0.1295 -0.1381  0.1267
15344W        W32192  17.011   5.097  12.198  0.1349  0.1022 -0.0331
15345W        W32193   7.146  16.109   3.719 -0.2198  0.0202  0.1849
15346W        W32194   4.288   9.484   0.777 -0.2677 -0.2518  0.3633
15347W        W32195  11.328   3.669   1.100  0.0663  0.2738 -0.0672
15348W        W32196   1.214   9.954   0.130  0.3992 -0.0055 -0.1336
15349W        W32197   2.046   6.535  14.166  0.3735 -0.0928  0.1083
15350W        W32198   6.800  11.654  15.130 -0.2613  0.1956 -0.2027
15351W        W32199   1.367   0.253  12.650  0.0453  0.2251  0.0889
15352W        W32200  12.550  10.715   1.721 -0.1780  0.0262  0.0221
15353W        W32201   8.597   3.210  11.798  0.0889  0.1412 -0.1057
15354W        W32202  13.317  10.418   1.857 -0.1181  0.1080 -0.2815
15355W        W32203   0.532  14.751   0.850 -0.1439  0.0596  0.0762
15356W        W32204   9.829  12.728   5.209 -0.0829  0.0753 -0.2230
15357W        W32205  15.654  13.903  15.807 -0.3037 -0.0571 -0.1709
15358W        W32206   9.308   4.195   3.311  0.1243  0.1113  0.1879
15359W        W32207   1.408   0.409  14.882  0.0690  0.2103 -0.2865
15360W        W32208   7.973  10.910  10.642 -0.1322  0.1814 -0.0394
15361W        W32209   5.060   2.635  12.533  0.0959 -0.1716  0.0127
15362W        W32210  17.869   7.467   2.766  0.0891  0.0887  0.0866
15363W        W32211   7.559  11.480   0.608  0.1955 -0.0779 -0.2069
15364W        W32212   2.580  11.700   3.304  0.1650 -0.1134  0.0315
15365W        W32213   8.718  16.379  15.103 -0.0086  0.1230 -0.0535
15366W        W32214   5.639   7.299  10.254  0.0500  0.1104  0.2186
15367W        W32215   4.971  17.973   1.287  0.0153  0.2423  0.1864
15368W        W32216  15.771   2.729   3.036  0.0192 -0.2468 -0.0137
15369W        W32217  17.645   7.253   1.050  0.0778 -0.1624  0.2703
15370W        W32218   8.661  18.129   0.684  0.2033  0.0730 -0.0248
15371W        W32219  13.431   5.988  12.911  0.3633 -0.4224 -0.2413
15372W        W32220  11.520   2.366  14.274  0.1840  0.1723 -0.1206
15373W        W32221  16.813   8.362   4.454  0.1737 -0.1484  0.0906
15374W        W32222   0.120   8.482  14.339 -0.1384  0.1700 -0.1434
15375W        W32223  17.638   4.412   4.565  0.1816 -0.2190 -0.0736
15376W        W32224  11.606  12.589  11.465  0.3002 -0.2706 -0.0478
15377W        W32225   6.244  15.047  12.595  0.3045 -0.1472 -0.0156
15378W        W32226   8.145  11.163  12.762  0.2563 -0.0787  0.0239
15379W        W32227  16.305   6.753   4.111  0.2274 -0.0948  0.1326
15380W        W32228  13.497  17.869  14.093 -0.0052 -0.1950  0.0466
15381W        W32229  10.809   2.848   4.239 -0.2043  0.1761 -0.0385
15382W        W32230   7.414  15.217  15.551 -0.1736  0.1013 -0.3091
15383W        W32231  14.941  13.224  12.493 -0.2313  0.0709 -0.1364
15384W        W32232  11.201   8.319   2.303  0.1192 -0.1228  0.2641
15385W        W32233   6.113  15.888  14.581  0.0873 -0.2520 -0.0849
15386W        W32234   0.575  16.451   0.139 -0.1596  0.0028  0.2792
15387W        W32235   3.470  10.158   1.206 -0.0687  0.0331 -0.0870
15388W        W32236  13.460  12.795  14.242 -0.0257 -0.0109  0.1472
15389W        W32237   7.341  11.515  11.082 -0.2123  0.0206  0.0777
15390W        W32238   6.574  14.151   4.072  0.0884 -0.1541 -0.0446
15391W        W32239  13.247  14.123  13.306  0.3749 -0.3813 -0.2848
15392W        W32240   0.846   9.122   3.485  0.2117 -0.0638  0.0093
15393W        W32241   6.277  15.177  14.372  0.0184 -0.2188 -0.0516
15394W        W32242  11.181  12.983  15.305 -0.1151  0.0776  0.2467
15395W        W32243   1.878  15.834   0.023 -0.0603 -0.2074 -0.0812
15396W        W32244   4.131   9.382   2.657 -0.0574  0.2353  0.0279
15397W        W32245  10.295   1.544   3.578  0.0553 -0.3286  0.0251
15398W        W32246  17.381   1.322  15.555  0.0637  0.0645  0.1129
15399W        W32247   8.649   0.569   2.584  0.0560 -0.4656 -0.1181
15400W        W32248  16.095   3.036   3.304  0.1218  0.3002  0.0544
15401W        W32249   2.804  15.568   1.653  0.1877 -0.4531 -0.2995
15402W        W32250   9.138   8.932  15.026  0.1253  0.0654  0.0806
15403W        W32251   8.701   1.322  15.682 -0.0013 -0.2904  0.0552
15404W        W32252   7.924   5.983  14.032 -0.1728  0.0914 -0.0884
15405W        W32253   4.534   5.072   1.141 -0.0219 -0.2171 -0.1848
15406W        W32254  12.101   1.766  12.527  0.2060  0.1568  0.2356
15407W        W32255  13.702  15.670   2.953  0.2816 -0.2272  0.1765
15408W        W32256  15.415   0.404  13.290  0.0800 -0.2460 -0.0576
15409W        W32257  17.130  14.104  15.881 -0.1821  0.0469  0.2581
15410W        W32258  14.089  12.606  13.346 -0.0582  0.0129 -0.2146
15411W        W32259   8.844   3.305  15.270  0.3145 -0.4053 -0.1886
15412W        W32260  16.761   6.730   3.373  0.2423  0.0538 -0.0524
15413W        W32261   1.432   5.380  13.558  0.2654 -0.2069  0.0588
15414W        W32262  14.321  11.557  11.428 -0.2100 -0.2170 -0.1177
15415W        W32263   6.150   7.890  13.130 -0.0025  0.2574  0.0723
15416W        W32264  15.160  16.179  15.248 -0.0005  0.0901 -0.1498
15417W        W32265  11.610  14.571  15.366  0.0023 -0.1430 -0.0407
15418W        W32266  18.101   4.876   1.306  0.2760  0.1466 -0.0239
15419W        W32267  17.955  10.289  13.511 -0.2558  0.0276  0.1215
15420W        W32268  15.913   1.208  14.430  0.0506 -0.0517  0.0142
15421W        W32269  10.395  12.300   0.722 -0.1432  0.0746  0.2234
15422W        W32270  13.082  14.277  12.170  0.2038  0.0664  0.1242
15423W        W32271  15.192   1.641  15.633  0.1954  0.1354 -0.3457
15424W        W32272   2.496   8.000  12.702 -0.0301 -0.0660 -0.1401
15425W        W32273   0.365   0.446  11.746 -0.0362 -0.1113 -0.3375
15426W        W32274  17.052  14.870  14.365  0.1186 -0.2545 -0.1710
15427W        W32275   4.625   4.998   4.286  0.2113  0.0624 -0.2092
15428W        W32276  13.960  14.660   5.070 -0.3694 -0.3196  0.0479
15429W        W32277  13.222  11.280  15.183 -0.1406  0.0997 -0.0598
15430W        W32278  12.460   2.315   5.181  0.0427  0.0426 -0.2137
15431W        W32279   1.423   8.287  11.644 -0.1777  0.0987 -0.2286
15432W        W32280   1.049  16.668   2.251  0.0142 -0.1060  0.2174
15433W        W32281   4.763   9.572   0.635  0.0775  0.0581  0.0253
15434W        W32282  16.005  15.608  16.011 -0.2552  0.0679  0.0953
15435W        W32283  15.941  14.107  13.359  0.0932 -0.1956 -0.1006
15436W        W32284   5.329   3.231  13.742  0.4027 -0.0874 -0.0161
15437W        W32285   7.950   7.081  14.610  0.1538  0.2295 -0.1769
15438W        W32286  13.414  10.690  12.553 -0.0635  0.1777  0.2770
15439W        W32287   6.098   3.176   4.375 -0.2043 -0.1864 -0.1823
15440W        W32288  12.047   0.080   2.625  0.1295 -0.0073  0.0773
15441W        W32289  14.687  13.444   0.415  0.0803 -0.2127 -0.0051
15442W        W32290  14.998   3.043   3.501  0.1795  0.1686 -0.0139
15443W        W32291   4.702  13.433   3.075 -0.1166 -0.0281 -0.1508
15444W        W32292   9.682  12.915   1.861 -0.1295  0.1369  0.2677
15445W        W32293  12.532   7.381  10.855  0.3632 -0.0771 -0.4193
15446W        W32294  13.316   9.410  13.075  0.3097 -0.0281 -0.0453
15447W        W32295  10.909  16.921  15.109  0.0340  0.2906  0.1795
15448W        W32296  15.085   6.832   4.792  0.0297 -0.0056 -0.0531
15449W        W32297  13.683  12.389  13.533  0.0484 -0.2949 -0.1475
15450W        W32298   7.413   0.504  12.394  0.1206  0.0416 -0.3006
15451W        W32299  10.715   4.131  11.543 -0.2596  0.0168  0.1702
15452W        W32300  16.843  16.379  13.336  0.0696 -0.0653 -0.1687
15453W        W32301   8.185  12.069  14.138  0.5830  0.0939  0.2690
15454W        W32302   6.275   7.150  15.783 -0.4918 -0.0196  0.3044
15455W        W32303  17.614   7.825  12.640 -0.0946  0.1797 -0.0801
15456W        W32304   4.574  16.115  12.351  0.1113 -0.2141  0.1706
15457W        W32305  12.849   9.493  12.841  0.1934  0.1841  0.1744
15458W        W32306  17.403   8.628  15.851 -0.0144  0.0342  0.3548
15459W        W32307  15.589  16.372   3.201  0.1676  0.2191 -0.1187
15460W        W32308  13.642  16.660   0.640  0.0423 -0.2116  0.0198
15461W        W32309   6.351  11.979  11.766  0.1828 -0.0071  0.1133
15462W        W32310   8.073   8.082  10.952  0.0104 -0.1181 -0.3461
15463W        W32311  10.016  13.426   4.001  0.1572  0.1233  0.1659
15464W        W32312   8.049  13.988  10.983  0.2131  0.2007 -0.0059
15465W        W32313   0.666   6.851  15.896  0.3061 -0.1803 -0.0693
15466W        W32314   5.872   9.463  11.779  0.4299  0.2342  0.0099
15467W        W32315   6.083   9.336  14.157  0.0071  0.1255 -0.0937
15468W        W32316   3.781   1.097  14.950  0.1493  0.1806  0.3408
15469W        W32317   1.560  17.176   4.467 -0.0139  0.3488  0.0837
15470W        W32318   9.981   5.677   3.142  0.1261 -0.0270 -0.1009
15471W        W32319   6.050   6.944   2.548 -0.2373  0.1197 -0.4132
15472W        W32320   7.379  12.984  11.448  0.2770  0.2486 -0.0657
15473W        W32321  13.830  11.726   1.457  0.0677 -0.0141  0.5037
15474W        W32322  12.291   2.523  13.036 -0.0515 -0.0872  0.1000
15475W        W32323  11.333   6.538  13.943 -0.0160  0.1641  0.2901
15476W        W32324  15.155   8.688   4.919 -0.0849 -0.2383 -0.0232
15477W        W32325   7.932   9.678   2.715  0.1401  0.1799 -0.1753
15478W        W32326   4.441  18.107   1.952  0.2355  0.4347 -0.1622
15479W        W32327   4.294  12.842   3.695  0.2647  0.1448  0.2125
15480W        W32328  11.906   4.907  13.866  0.0685  0.0096  0.0317
15481W        W32329  14.413   1.985  13.032 -0.2028 -0.4968  0.1365
15482W        W32330  17.891  16.506   0.108  0.5791  0.2697 -0.0102
15483W        W32331   9.915  16.548   1.230 -0.1562 -0.0176 -0.1952
15484W        W32332   3.398   9.133   2.588 -0.0304  0.1031 -0.1397
15485W        W32333   4.590   8.321  10.491 -0.1066 -0.1102  0.0814
15486W        W32334  11.937  11.822  16.012 -0.2723 -0.1183  0.2077
15487W        W32335  10.359  10.879   4.122 -0.2247 -0.5745 -0.2603
15488W        W32336  11.777   7.784   1.478  0.0340  0.0709 -0.1620
15489W        W32337   8.184   1.049  11.181  0.1605 -0.1418 -0.1230
15490W        W32338  13.123   5.270  11.111  0.2780  0.4751  0.1793
15491W        W32339  14.937  16.897   0.885 -0.1202 -0.2546 -0.2623
15492W        W32340   7.043   6.888  14.558 -0.0051  0.1340 -0.1256
15493W        W32341   1.261  16.375  12.963 -0.0469  0.0885 -0.1356
15494W        W32342  17.597   6.271   0.238  0.0065 -0.0783 -0.0142
15495W        W32343  14.238  13.005  15.678 -0.1176  0.1951  0.0132
15496W        W32344   0.189  13.217  13.364  0.1576 -0.0709  0.3834
15497W        W32345   8.489  11.887   6.360  0.3357  0.1561  0.2730
15498W        W32346   2.662   8.518   2.457  0.2670 -0.0225 -0.0954
15499W        W32347  18.067  16.358  11.641  0.0147  0.4199 -0.0279
15500W        W32348  16.495  14.692   4.082 -0.2396 -0.1418 -0.0317
15501W        W32349  16.487  11.693  11.561  0.3386  0.0716 -0.0178
15502W        W32350   2.200   6.387   0.647 -0.1311  0.2764  0.0669
15503W        W32351   9.180  18.146   0.013 -0.4241 -0.1915  0.0950
15504W        W32352   1.249  15.633   5.400 -0.3401  0.1023  0.1017
15505W        W32353   6.045  16.688   1.336  0.0842  0.2766  0.0076
15506W        W32354   6.476   4.572   0.247 -0.0170  0.1039 -0.0565
15507W        W32355   8.972   4.017   4.617 -0.1617  0.0177  0.3684
15508W        W32356   7.910   4.785   0.548 -0.3404  0.0599 -0.0973
15509W        W32357  12.289   5.539  14.965 -0.2638  0.1090  0.2600
15510W        W32358  14.469  12.027   0.241  0.1085  0.1107  0.0217
15511W        W32359   5.188  14.988   4.886  0.0933 -0.1767  0.0297
15512W        W32360   1.774  15.070   0.880 -0.1191  0.0440  0.0324
15513W        W32361  13.058  11.391   1.093  0.1396  0.4363  0.0452
15514W        W32362   1.102   7.841   4.823 -0.0346 -0.2952  0.0245
15515W        W32363   8.059  16.340  12.266 -0.1979  0.0457  0.0296
15516W        W32364  14.206  11.108  12.291  0.1650 -0.2534  0.1728
15517W        W32365   1.464  12.238  13.639 -0.1026 -0.3404 -0.2414
15518W        W32366  10.768   8.139   4.516  0.0027 -0.1541  0.0030
15519W        W32367   3.888   7.678  15.019  0.2337 -0.2048  0.0671
15520W        W32368  14.603   0.910  14.490  0.0409  0.1567  0.1534
15521W        W32369   0.814  16.361  13.156 -0.0887 -0.2624  0.1632
15522W        W32370   5.636  15.048   2.726  0.0073  0.2572  0.2751
15523W        W32371  16.232   4.907  13.871  0.1049 -0.1928  0.0036
15524W        W32372   8.943   4.426   1.027 -0.2361  0.0370 -0.0247
15525W        W32373  13.495   2.831   2.129 -0.0656 -0.2624 -0.2236
15526W        W32374  15.553  17.795  12.301  0.0453  0.2231  0.0769
15527W        W32375  10.023   8.796  13.933  0.1837 -0.0316 -0.3418
15528W        W32376   8.101  10.812   1.480  0.0479 -0.1007  0.0629
15529W        W32377  10.416  14.602  11.452  0.1003 -0.2063  0.3861
15530W        W32378   3.145  11.046  10.275 -0.2386 -0.1338  0.2021
15531W        W32379   6.603  17.588  13.774  0.0544  0.0010 -0.0658
15532W        W32380  11.451   5.487  11.552 -0.1300  0.2304 -0.1025
15533W        W32381   1.021  12.335   0.873 -0.0760  0.2001 -0.1933
15534W        W32382  12.338  17.996  12.678 -0.1498 -0.2207 -0.2595
15535W        W32383   4.272   7.066   4.704  0.0627  0.0223  0.0900
15536W        W32384   1.809  17.541   9.708  0.1638 -0.0822 -0.4148
15537W        W32385   1.394  16.158  11.215 -0.2592 -0.1120  0.1747
15538W        W32386  10.575  11.590  14.643  0.0924  0.2722 -0.1408
15539W        W32387   2.683   4.477   3.420 -0.1478 -0.0158  0.0292
15540W        W32388   3.843  17.603  15.675 -0.2784  0.1025  0.1148
15541W        W32389  16.660   3.108   1.101  0.2743  0.0132 -0.0275
15542W        W32390   0.468   7.844   3.781 -0.1117  0.1421  0.2871
15543W        W32391   0.281   4.108   0.598 -0.1810  0.1442  0.0720
15544W        W32392  16.132  15.121   3.250  0.1803  0.1722 -0.1028
15545W        W32393  11.448  16.773  13.209  0.0829 -0.1608  0.2742
15546W        W32394  16.186  16.065   3.518 -0.3488 -0.2845  0.0002
15547W        W32395  10.256   4.408  13.602 -0.1270  0.1904 -0.1070
15548W        W32396  12.436   6.296   2.527  0.1974  0.0049 -0.1269
15549W        W32397  13.738  15.136  12.039 -0.0619  0.4292 -0.1536
15550W        W32398   5.647   2.547   2.407 -0.0343 -0.0473 -0.0427
15551W        W32399  18.136  14.697  13.249  0.3245 -0.0829  0.0894
15552W        W32400  15.899  16.634   4.657 -0.0437 -0.0494  0.0784
15553W        W32401  11.778   2.493  13.201  0.0818 -0.3703  0.1998
15554W        W32402   1.522   4.339  12.223 -0.0733  0.1251  0.0531
15555W        W32403   9.081  16.570   4.217 -0.0849  0.2521  0.1640
15556W        W32404   0.118  13.309  12.314  0.0589  0.2068 -0.0186
15557W        W32405   6.459   0.708  13.887  0.8008  0.2053 -0.0252
15558W        W32406   8.490   1.951   0.796 -0.1601  0.2387  0.1014
15559W        W32407  14.455   0.734  11.501 -0.0025  0.2438 -0.0905
15560W        W32408   5.379  12.939   1.023  0.2885 -0.3487 -0.0554
15561W        W32409  17.889  17.864   2.099  0.2144 -0.1256 -0.2359
15562W        W32410   7.372   1.242  10.851 -0.1312  0.0199 -0.0013
15563W        W32411   3.250   0.075  15.518  0.3846 -0.3329 -0.0851
15564W        W32412  15.623   1.454   1.806  0.0228  0.2686  0.0564
15565W        W32413   0.902   3.774  15.220 -0.2230 -0.1675  0.1140
15566W        W32414   9.454   2.881  11.894 -0.0836  0.1510 -0.1689
15567W        W32415  13.277  15.434  12.172 -0.1482 -0.2439 -0.2186
15568W        W32416  16.554   9.981  13.882  0.0609 -0.0493  0.1551
15569W        W32417  15.155  17.214   4.995 -0.0799 -0.0051 -0.2280
15570W        W32418   1.864   9.889   3.461 -0.1131  0.3518  0.0172
15571W        W32419  16.253  12.675   0.993  0.1116 -0.0177 -0.1709
15572W        W32420   4.782   2.224   4.151  0.0070 -0.1326 -0.0497
15573W        W32421  10.062   5.578  10.236 -0.0971  0.0484  0.2036
15574W        W32422  11.263   2.204   0.430 -0.0097  0.4229 -0.0544
15575W        W32423   6.571   2.951   3.082 -0.2567 -0.1369  0.3106
15576W        W32424  15.217  13.347   5.365  0.2033 -0.0150  0.0193
15577W        W32425   8.978   0.748  12.798 -0.1987  0.0988 -0.4424
15578W        W32426   8.694  11.156   5.383 -0.0574  0.0311  0.1506
15579W        W32427   3.228   3.945  14.033  0.3123  0.1177  0.2688
15580W        W32428  12.557   7.479  15.892 -0.4813  0.0447  0.1987
15581W        W32429   2.055  17.032   0.923  0.1934 -0.2093  0.1451
15582W        W32430   4.932   7.458  12.805 -0.0977 -0.0532 -0.3243
15583W        W32431  16.417  14.714  14.876  0.0208  0.2935  0.0964
15584W        W32432  16.297   9.706   0.149 -0.0022  0.1115 -0.0437
15585W        W32433  15.177  13.513   3.693  0.0892 -0.1218  0.2351
15586W        W32434   0.699  11.778  11.647 -0.3848 -0.0087 -0.1336
15587W        W32435   7.639   8.222   1.821 -0.1245  0.0425  0.1534
15588W        W32436   5.992  18.018   3.099  0.1643 -0.0796  0.1440
15589W        W32437   1.654   0.132  14.010  0.0237  0.0464 -0.3497
15590W        W32438  14.458   5.997   2.074  0.0605  0.0827  0.0407
15591W        W32439  15.386  15.253  14.245 -0.4074  0.1752 -0.3397
15592W        W32440  18.156   4.324   5.427 -0.1117 -0.2859  0.2172
15593W        W32441   0.094   0.382  15.206 -0.1222 -0.1558 -0.0091
15594W        W32442   6.271  13.882   4.957 -0.2395 -0.3467  0.1047
15595W        W32443   2.992  11.582  14.329 -0.2063  0.3119 -0.0830
15596W        W32444   5.901   1.079  15.609 -0.1682  0.1242 -0.1900
15597W        W32445  11.331  10.570  12.866  0.2216  0.0008  0.1554
15598W        W32446   7.952   7.467  13.052  0.1844  0.0738 -0.0376
15599W        W32447  11.917  15.284   5.971 -0.0660 -0.2319 -0.2037
15600W        W32448  10.151   9.207  13.611 -0.0297 -0.0740  0.5211
15601W        W32449   4.099   8.828  12.559 -0.0383 -0.2501  0.1138
15602W        W32450   1.239  17.229   3.935 -0.2048 -0.3400 -0.1010
15603W        W32451   1.005   4.213  12.088  0.2046 -0.2515 -0.2676
15604W        W32452  18.214  14.015  11.010 -0.0500 -0.0563 -0.0077
15605W        W32453  13.260  15.093  13.156  0.1856 -0.2695  0.1406
15606W        W32454  12.280   4.265  12.367 -0.0189 -0.0022 -0.2615
15607W        W32455   0.848   9.865   1.100 -0.1971 -0.1291 -0.2371
15608W        W32456  10.599  12.450  15.431  0.0975 -0.0397  0.1217
15609W        W32457  13.970   5.135  14.339 -0.0947 -0.0240  0.1443
15610W        W32458   0.470  17.433  12.495  0.2470  0.1254 -0.1596
15611W        W32459  12.254   0.397   1.693  0.4556  0.2505 -0.2101
15612W        W32460   9.209  11.300  14.006 -0.4273 -0.1745  0.0837
15613W        W32461   7.982  17.053  13.991 -0.0213  0.0430  0.1412
15614W        W32462  12.837   2.947   0.265 -0.1961 -0.2019 -0.0814
15615W        W32463  12.922   1.829   0.270 -0.1298  0.2543  0.3143
15616W        W32464  13.844  16.144   0.531  0.0857 -0.0727 -0.4167
15617W        W32465   8.850   7.568  11.984  0.1445 -0.2253  0.3031
15618W        W32466   6.437  12.348   1.874 -0.1640  0.3296 -0.3684
15619W        W32467   2.404  17.658  11.910 -0.1706 -0.2117 -0.1413
15620W        W32468  14.980   4.963   4.718  0.1895 -0.5773 -0.2373
15621W        W32469  13.849  14.052   1.085 -0.1045  0.1632  0.0105
15622W        W32470   0.552   7.220   0.213 -0.0850 -0.1769 -0.0272
15623W        W32471   0.659  15.484   5.312  0.0239  0.0539 -0.3323
15624W        W32472   5.328   1.979  15.057 -0.0978 -0.0119 -0.1516
15625W        W32473  15.171  14.808  13.472  0.1629 -0.0549  0.2191
15626W        W32474  17.311  10.342   3.624 -0.1630  0.2448 -0.0767
15627W        W32475   6.669   9.321  14.963 -0.1443  0.1471 -0.0095
15628W        W32476   6.151  13.481  11.671 -0.2658 -0.1564  0.1038
15629W        W32477   0.604   5.275  12.699 -0.2939  0.0879  0.0679
15630W        W32478   5.190  17.277   2.795 -0.0814  0.2664  0.1241
15631W        W32479   0.995  16.825  12.199 -0.0035  0.3677 -0.3823
15632W        W32480  16.061  15.988  15.185  0.0253 -0.0927 -0.1583
15633W        W32481   1.826   0.521  12.867 -0.0267 -0.1244 -0.0587
15634W        W32482  16.540  10.585  11.749 -0.1571  0.0757 -0.3028
15635W        W32483   0.591  12.076   0.644 -0.4590 -0.1439  0.0251
15636W        W32484   4.729   2.769   5.038  0.0633  0.0226 -0.2169
15637W        W32485   2.795   0.555  13.809 -0.2331  0.1507 -0.0608
15638W        W32486   5.577   6.072   0.787  0.1414  0.2135 -0.0227
15639W        W32487  16.347   9.672   1.855 -0.2684  0.0989 -0.1275
15640W        W32488  15.008  18.214  13.586 -0.2107  0.1941  0.0436
15641W        W32489  15.084   2.761  14.156  0.0973  0.0621  0.1497
15642W        W32490   5.777   5.743   2.475 -0.0210  0.1495 -0.0850
15643W        W32491  15.392  16.051   4.059  0.0819 -0.3952  0.0338
15644W        W32492  10.829  10.061  15.699  0.0039  0.2562  0.1520
15645W        W32493   4.156   6.441  14.581 -0.2305  0.0821 -0.1790
15646W        W32494   7.047   1.520   2.347  0.2104  0.3783 -0.1929
15647W        W32495  14.128  15.420   4.458  0.0539 -0.0573 -0.1106
15648W        W32496   0.985  15.415  10.663 -0.2532  0.1280 -0.0098
15649W        W32497   6.283  11.334   1.970 -0.1319 -0.2337 -0.0444
15650W        W32498  18.188   5.103   5.452 -0.0742 -0.0246 -0.1378
15651W        W32499  10.724   4.394   3.658  0.0772 -0.0990  0.4446
15652W        W32500  10.148   0.850   4.248 -0.1979 -0.0105 -0.0887
15653W        W32501  14.276   7.175   4.252 -0.0424  0.0223  0.5448
15654W        W32502   5.837   1.796  12.368  0.1861  0.0157  0.4119
15655W        W32503  11.051   4.292   3.311  0.0423  0.2726  0.2659
15656W        W32504  14.881  14.240   5.162  0.1249 -0.1625  0.2261
15657W        W32505   9.367   3.762   4.451 -0.0517 -0.2054  0.0359
15658W        W32506  12.461  18.185   1.702 -0.3296  0.2080 -0.0744
15659W        W32507   4.715  16.695   4.646 -0.0236  0.0988  0.1307
15660W        W32508   1.351   3.591  15.475 -0.0650  0.0946 -0.0674
15661W        W32509   2.256   7.389   0.745  0.2350 -0.0479  0.1290
15662W        W32510  11.174   1.744  12.569 -0.0807  0.1493 -0.0527
15663W        W32511   2.240   3.495   3.307 -0.0669  0.1121 -0.0877
15664W        W32512   3.888   0.409   5.041  0.2786 -0.2246  0.1120
15665W        W32513   1.344  16.085   0.656 -0.0482  0.0632  0.1669
15666W        W32514  12.245   0.360   3.397 -0.2960  0.1074  0.2452
15667W        W32515   7.474   7.070  12.558  0.3069  0.3340  0.2511
15668W        W32516  11.752  15.709  15.103  0.3887 -0.0098 -0.1045
15669W        W32517   2.074   4.263  14.231 -0.0817  0.1465 -0.3137
15670W        W32518  10.067  10.975   5.001  0.1202 -0.3262 -0.0706
15671W        W32519   3.494   1.483   1.443  0.2601  0.0595  0.0074
15672W        W32520  10.037   6.927  12.640  0.1823  0.2352  0.1863
15673W        W32521   5.645   5.000  15.440  0.0342 -0.0783  0.3776
15674W        W32522   3.749   9.441   5.824  0.0003 -0.1305 -0.0865
15675W        W32523  11.744  16.126   0.417 -0.0354  0.1420 -0.1376
15676W        W32524  17.295   1.084   1.444 -0.0304 -0.3120  0.0598
15677W        W32525  13.544   2.363   3.341 -0.2392  0.2093  0.0624
15678W        W32526  17.178   8.299   3.540  0.1805  0.2609  0.1238
15679W        W32527  11.222  12.560   4.038 -0.1839 -0.3055  0.2751
15680W        W32528  14.563   3.847  11.613  0.0710  0.2514 -0.0154
15681W        W32529   2.226   1.051  13.408  0.1311  0.0748 -0.1183
15682W        W32530  11.527   0.126  14.338  0.2888  0.1250 -0.0260
15683W        W32531   8.279  14.679   3.413  0.2542 -0.2304 -0.1808
15684W        W32532  17.627  17.464   4.556  0.3314  0.1847  0.1278
15685W        W32533  11.576  12.837  15.573 -0.0896 -0.2089 -0.0689
15686W        W32534   1.672  10.401  15.780  0.1276  0.1181 -0.0054
15687W        W32535  10.467   2.265  14.112  0.0973  0.1179  0.1182
15688W        W32536  17.799  10.129  10.501 -0.1936  0.0722 -0.4186
15689W        W32537   2.116   5.602  15.798 -0.0639 -0.5255  0.3427
15690W        W32538  10.738  16.201   4.177 -0.0355  0.1006 -0.0014
15691W        W32539  17.033   2.951  15.355  0.2900 -0.0632 -0.0364
15692W        W32540  15.654   1.400   0.239  0.0567  0.0409  0.2645
15693W        W32541   2.480  13.229   3.650 -0.0529 -0.1782  0.1851
15694W        W32542  13.001  13.416   3.701  0.0146  0.0253  0.1659
15695W        W32543   1.599   0.783   4.178  0.1292 -0.2286  0.3963
15696W        W32544   1.248  16.725  13.296 -0.0344  0.0328  0.1182
15697W        W32545   3.742   2.408   0.994 -0.1241  0.0355 -0.2032
15698W        W32546  14.227  15.656   2.988  0.1662 -0.0721 -0.1000
15699W        W32547  17.658  18.136  12.636 -0.0968 -0.1790 -0.2312
15700W        W32548  15.645  14.911   3.531 -0.1922  0.2741 -0.1642
15701W        W32549  18.093  12.383  12.487 -0.1422  0.2731  0.5232
15702W        W32550  14.214   3.097  14.795  0.0631 -0.2341  0.1860
15703W        W32551   7.811  16.214  10.548  0.3134 -0.2117 -0.0242
15704W        W32552   8.580  12.022   2.785  0.1297  0.0512  0.2274
15705W        W32553  10.260  16.944  11.733  0.2185  0.1019  0.1901
15706W        W32554  13.011   2.009   3.560  0.4383 -0.0630 -0.0692
15707W        W32555  18.156   7.289   0.347  0.1103 -0.2572 -0.1590
15708W        W32556  13.345  17.728   0.786  0.2202 -0.1803 -0.1426
15709W        W32557  17.126   7.484   1.053  0.1394  0.0469  0.0902
15710W        W32558  12.585   2.654  11.086  0.0302  0.0167  0.2051
15711W        W32559   2.405  13.598  15.389 -0.3236 -0.0609  0.1382
15712W        W32560   1.038  12.092   3.664 -0.3536  0.0483 -0.1943
15713W        W32561  17.084   7.655   0.538  0.0060  0.3611  0.2573
15714W        W32562   5.124   0.908  13.697 -0.1681  0.1126  0.0837
15715W        W32563  13.418  15.020   2.423  0.0894 -0.4113  0.3257
15716W        W32564  17.407  12.011  14.401  0.3700  0.0672 -0.0076
15717W        W32565  12.723   1.295   1.052  0.0256  0.2450 -0.0867
15718W        W32566  13.936  18.081  10.672  0.2670 -0.4501  0.1969
15719W        W32567   6.869   9.694   1.585  0.0539  0.0890  0.2555
15720W        W32568  13.292   7.100  11.137 -0.2129 -0.4130 -0.2832
15721W        W32569   4.968  11.755  12.535  0.0333  0.0001  0.2365
15722W        W32570  10.080   4.524   6.549 -0.1908 -0.1312  0.3409
15723W        W32571   1.656   4.280  12.986  0.1692 -0.2576  0.1642
15724W        W32572   5.474   9.384   1.896 -0.1386  0.0249 -0.1784
15725W        W32573   6.460   9.903   2.497  0.0767  0.3328 -0.0998
15726W        W32574   2.556   6.381   2.976 -0.0740  0.0394 -0.1116
15727W        W32575  12.693   2.957   1.132 -0.0076  0.0229  0.1763
15728W        W32576   1.741   8.954  11.450  0.0691  0.0152 -0.0052
15729W        W32577   3.225  14.439  13.394 -0.1893 -0.0107 -0.0761
15730W        W32578  15.504  15.989  11.825  0.1647 -0.2764  0.0295
15731W        W32579  15.829   6.074  13.346  0.1631 -0.0030 -0.0704
15732W        W32580   1.898   9.764   4.255  0.3516 -0.0283  0.0488
15733W        W32581   5.155  11.776   3.332  0.2391 -0.2816  0.2280
15734W        W32582  13.006  12.761   1.740  0.4296 -0.0604  0.2653
15735W        W32583   3.793   1.994  13.671 -0.1018  0.3140 -0.1235
15736W        W32584  14.877  17.189  14.734  0.4932 -0.1168 -0.0963
15737W        W32585  12.654  15.895  13.572 -0.0526 -0.0826 -0.2922
15738W        W32586   0.763  15.584   0.613 -0.2245 -0.2239  0.1718
15739W        W32587   3.805   1.688  11.645 -0.2839 -0.1093  0.2646
15740W        W32588  17.284  17.979   0.007 -0.2563  0.4100 -0.0309
15741W        W32589   3.698  13.691   0.769 -0.0749  0.1380  0.0354
15742W        W32590  15.523  13.930  14.515  0.4686 -0.0902 -0.0812
15743W        W32591  17.255  10.519  14.030 -0.2530  0.3008 -0.1501
15744W        W32592   8.007  10.617   2.834  0.1664  0.0421  0.3089
15745W        W32593   3.998   5.994  14.879  0.0978 -0.0701 -0.3854
15746W        W32594   2.551  10.752  14.663  0.0930  0.1094 -0.1518
15747W        W32595  13.862  17.590  11.629 -0.0098 -0.0296  0.3437
15748W        W32596   6.753   5.891  14.799 -0.3118  0.3580  0.2452
15749W        W32597   3.356   1.723  10.308 -0.5383  0.4277 -0.0859
15750W        W32598  11.548   5.112  13.441 -0.0093  0.0541  0.2008
15751W        W32599   2.659   3.823  11.429 -0.0804 -0.0309  0.0399
15752W        W32600   1.834  10.379   0.272 -0.0848  0.0836 -0.1801
15753W        W32601  18.137  10.747   2.983  0.1916 -0.0387  0.0487
15754W        W32602  16.597  12.402   3.291  0.2054  0.2975  0.2596
15755W        W32603  16.073  17.392  12.981 -0.1464  0.0884  0.0131
15756W        W32604   0.810  11.700   3.437 -0.2430  0.1238 -0.0881
15757W        W32605  14.259   8.503   4.880  0.1527 -0.0240  0.0443
15758W        W32606  12.142  13.356  15.048  0.0287  0.0404  0.0077
15759W        W32607   3.235  11.239  16.117  0.0057 -0.1692 -0.0924
15760W        W32608   6.216  10.287   5.122 -0.0013  0.0598 -0.0763
15761W        W32609   5.217   8.035   0.134 -0.0044  0.0808 -0.4458
15762W        W32610  17.589   8.171  13.615  0.1456  0.0194 -0.1212
15763W        W32611  10.119   1.993   2.984 -0.1275  0.1267  0.2660
15764W        W32612  14.444  16.370  12.472  0.1355  0.1718 -0.1308
15765W        W32613   9.731   7.010   0.735  0.3892  0.4357 -0.0437
15766W        W32614  17.196   5.936   0.320  0.1379 -0.0285  0.2619
15767W        W32615   8.683   5.846  14.960  0.2790 -0.1558  0.2348
15768W        W32616  17.264  12.361  12.619  0.1706  0.0736 -0.0669
15769W        W32617   7.205   6.257  11.432 -0.0905  0.1928 -0.2668
15770W        W32618   6.223   9.104  15.026  0.0850  0.5082 -0.0810
15771W        W32619  15.198   4.957  13.974  0.1346 -0.1871  0.4427
15772W        W32620  17.012   0.352   2.804 -0.0069  0.0109  0.0261
15773W        W32621   3.710  12.490  10.474  0.4337 -0.0640 -0.1139
15774W        W32622  15.964  12.633  14.545  0.2965  0.0409 -0.1214
15775W        W32623   0.906   0.080   3.694  0.0972 -0.4174 -0.0273
15776W        W32624  17.165  17.156  14.887  0.1024  0.1271  0.0901
15777W        W32625   1.498   0.164   1.527  0.0112 -0.3158  0.0977
15778W        W32626   0.768  16.970   1.997  0.2326 -0.0328 -0.1317
15779W        W32627  16.754  15.867  13.054  0.2174  0.3755 -0.0738
15780W        W32628  13.038  16.328  10.795  0.0601 -0.1123  0.4847
15781W        W32629   2.228   2.829  14.461 -0.1880  0.1109 -0.2811
15782W        W32630   2.064   0.430  10.662 -0.0388 -0.1206  0.0372
15783W        W32631   4.771   2.155   2.146  0.0656 -0.1916  0.1549
15784W        W32632  16.041  11.090   2.135 -0.1695 -0.0847 -0.4110
15785W        W32633   6.135   1.542  15.760  0.1401 -0.1415 -0.0251
15786W        W32634  12.915  17.528   1.954  0.0026  0.0790  0.1397
15787W        W32635   0.936  14.189  10.194 -0.0889  0.2506 -0.0353
15788W        W32636   8.897   9.529   4.966 -0.0118  0.2415 -0.3137
15789W        W32637   2.168   5.284  15.323  0.1573 -0.0173 -0.1036
15790W        W32638  17.254   3.297  15.125 -0.3109 -0.0501  0.1051
15791W        W32639  11.056   8.758   2.103  0.1318  0.0202  0.0565
15792W        W32640   4.403  14.167   4.665  0.0500 -0.0411  0.1966
15793W        W32641  10.144  13.545  15.933 -0.1614 -0.1002 -0.1516
15794W        W32642  17.575  14.803  14.372 -0.1070  0.3794  0.4101
15795W        W32643  12.491  16.314   4.817 -0.4559  0.1191 -0.1627
15796W        W32644   7.300  10.420  12.167 -0.0840 -0.2738 -0.0189
15797W        W32645   8.538   0.001  11.448 -0.1557 -0.2180  0.2227
15798W        W32646   6.671   2.352  13.454 -0.1965  0.0084 -0.0907
15799W        W32647  15.574  11.026  12.048  0.1835 -0.0682  0.0986
15800W        W32648   5.732  16.408   3.988 -0.2261 -0.2410  0.0269
15801W        W32649   9.996   6.458  11.468  0.1686 -0.1420  0.0554
15802W        W32650   5.787  12.504  12.431 -0.1289 -0.1898 -0.0422
15803W        W32651  12.850  10.967  15.172 -0.0987 -0.2220 -0.0099
15804W        W32652   4.066  18.152  11.954  0.0838  0.0755 -0.4319
15805W        W32653  16.516   3.162   2.506 -0.2460  0.1905 -0.1009
15806W        W32654   5.595  13.186  13.833  0.0003  0.1312 -0.0397
15807W        W32655   2.102   8.705   5.444 -0.1462  0.1725  0.0200
15808W        W32656   3.062  11.746  15.525 -0.0594 -0.0558 -0.3148
15809W        W32657   4.068  15.152  14.666  0.1519  0.0471  0.0635
15810W        W32658  14.919   3.505  14.893  0.1567  0.3625 -0.0519
15811W        W32659  13.035   4.897   1.917  0.0509 -0.3528  0.0479
15812W        W32660   6.152   1.254   0.461  0.0819  0.0962  0.0666
15813W        W32661   4.810   4.087  14.565  0.0950  0.0890 -0.0983
15814W        W32662  11.095   4.319   0.529 -0.0615 -0.0076 -0.1021
15815W        W32663   5.893  14.707  12.733  0.1434  0.0293  0.0481
15816W        W32664   7.396   3.419   1.084 -0.3333 -0.1922  0.1810
15817W        W32665   0.464   1.557  15.924 -0.1042 -0.1446  0.0689
15818W        W32666   9.044  12.385   3.360 -0.0843 -0.2591 -0.0088
15819W        W32667   1.605  14.897  11.451 -0.1883  0.2283  0.1686
15820W        W32668   9.227   0.404   5.640 -0.1768 -0.4061 -0.2647
15821W        W32669  14.649   2.233   2.516  0.1129  0.2478 -0.3931
15822W        W32670  13.456   9.778   5.122 -0.0172 -0.1317  0.1967
15823W        W32671   7.576   2.946  14.699  0.4539 -0.0458  0.1543
15824W        W32672   1.791   7.363   4.470 -0.1042  0.0943  0.0965
15825W        W32673  10.598  14.280   0.314  0.1734 -0.1804  0.0559
15826W        W32674  10.029   8.757   1.029  0.0794  0.3282 -0.3055
15827W        W32675  16.648   6.497   1.606 -0.0848 -0.0276 -0.2527
15828W        W32676   0.738   6.852  12.293  0.0363  0.1010 -0.1984
15829W        W32677  15.839  14.294  14.613 -0.2012 -0.0284 -0.0664
15830W        W32678   3.725   7.233  14.774  0.0992  0.1772 -0.1279
15831W        W32679  16.002  13.513   2.181  0.1978  0.0421  0.1540
15832W        W32680   4.559   5.750  11.504  0.1264  0.0028  0.0431
15833W        W32681  13.974  13.844  10.984  0.0171  0.1243 -0.0274
15834W        W32682   7.787   5.662  14.824 -0.0997 -0.0750  0.1757
15835W        W32683   9.342   7.831   1.691  0.0048  0.2165 -0.3093
15836W        W32684  13.729   2.444  13.626 -0.0650  0.0568  0.1449
15837W        W32685  17.118   9.812   1.647 -0.0128 -0.2799 -0.0202
15838W        W32686   8.842  16.515  12.352 -0.1514 -0.1505 -0.0388
15839W        W32687   7.895   0.000  13.173 -0.2375 -0.1070  0.4010
15840W        W32688   6.927  17.325   2.211  0.1698  0.1188 -0.0715
15841W        W32689   2.395   5.965  15.996 -0.0531 -0.3940  0.0436
15842W        W32690   9.393   3.277  13.248 -0.0344 -0.0661  0.2666
15843W        W32691   9.002   5.642   4.711  0.0701 -0.3242  0.3181
15844W        W32692  11.999  15.841   3.384 -0.2472  0.0512  0.3826
15845W        W32693   9.119  12.432   1.089 -0.2114  0.1182 -0.1717
15846W        W32694   3.404  13.410   3.394  0.2910 -0.1844  0.1789
15847W        W32695  11.624   7.364   1.189 -0.0205 -0.0673 -0.0369
15848W        W32696  16.480   9.107  13.877 -0.5798  0.0391  0.0311
15849W        W32697   7.929   9.760   1.420 -0.0233  0.3949 -0.0256
15850W        W32698  14.940   2.044   5.248  0.2493  0.0695 -0.1025
15851W        W32699   4.942   3.942  12.726 -0.1848  0.0087  0.2607
15852W        W32700   8.672  16.235   0.122  0.1010  0.3563  0.0238
15853W        W32701  11.490  10.955  12.051 -0.1797 -0.2166 -0.2182
15854W        W32702  17.133  15.320  11.791  0.0004 -0.0716  0.2467
15855W        W32703  15.355   2.618  14.935 -0.1238 -0.1417 -0.0497
15856W        W32704   9.542  11.731  11.457  0.1606 -0.3452 -0.1243
15857W        W32705  14.632   0.800   0.152  0.0349  0.2453  0.2464
15858W        W32706   7.290   8.939   4.397 -0.0946  0.2001 -0.1447
15859W        W32707  16.770   6.303  15.683 -0.4189  0.2722  0.1356
15860W        W32708   4.624  13.273  11.022 -0.0716 -0.3872  0.0221
15861W        W32709  17.886  17.838   3.476 -0.0612 -0.0428  0.1229
15862W        W32710  11.354   6.229  15.921  0.1572 -0.2478 -0.1911
15863W        W32711  14.553  14.091  13.398 -0.0330 -0.3076 -0.0028
15864W        W32712   9.742   9.623   1.479  0.1520  0.2505  0.0007
15865W        W32713   9.990   1.528   3.035 -0.3877 -0.1091 -0.3723
15866W        W32714  17.933   9.801  13.616  0.1488 -0.1230  0.1695
15867W        W32715   4.260   9.536   3.077 -0.3269  0.4711 -0.0744
15868W        W32716  17.914   0.705   2.738 -0.2686 -0.1434 -0.1055
15869W        W32717  17.799  15.169  15.051  0.1305  0.0742 -0.1331
15870W        W32718  10.358   2.600  14.782  0.1784 -0.0139 -0.0518
15871W        W32719   4.453   0.525   4.227  0.0161  0.1343 -0.0896
15872W        W32720  14.149  15.587  15.849 -0.4284  0.0394  0.3116
15873W        W32721  17.103  11.363  12.236 -0.2107  0.0983  0.1499
15874W        W32722  16.002  12.947   1.495 -0.0542  0.2966 -0.1715
15875W        W32723  13.780   8.481  13.153  0.2724 -0.0061 -0.2635
15876W        W32724  13.704  11.734   2.161  0.0315 -0.1395 -0.1708
15877W        W32725  16.128  15.203   0.166 -0.1683 -0.2297 -0.1054
15878W        W32726   2.187  17.116   5.180 -0.1245 -0.3203 -0.1561
15879W        W32727  10.568   8.145  10.822  0.0234  0.5038 -0.1173
15880W        W32728  13.247  16.145   1.416 -0.1675  0.0090  0.0511
15881W        W32729   8.466  10.378   3.047 -0.2122 -0.1170 -0.4447
15882W        W32730   3.318   7.397   3.665  0.1381 -0.1482 -0.1588
15883W        W32731   4.618   9.452  13.621  0.1400 -0.0482  0.2322
15884W        W32732  12.440  10.701   3.942  0.2179 -0.0921  0.0723
15885W        W32733  13.233   6.953   3.531  0.1297  0.2060  0.1140
15886W        W32734   0.154   8.721  12.702 -0.0844 -0.1560 -0.3083
15887W        W32735   3.238   3.698   0.011  0.0927  0.0911 -0.1583
15888W        W32736  14.149  13.875  13.763 -0.2507  0.2835  0.2292
15889W        W32737   5.519   2.915  15.888 -0.3289  0.1061 -0.0234
15890W        W32738  13.821  16.839  13.772  0.0390  0.0239  0.2629
15891W        W32739  15.231  10.062  13.811  0.1379 -0.3837  0.1138
15892W        W32740   3.868  12.535   3.598  0.1611  0.1117 -0.3965
15893W        W32741  17.639  11.107   1.455  0.3020 -0.2609  0.0128
15894W        W32742  16.546  15.156   3.590 -0.4442  0.3626  0.0423
15895W        W32743   0.970  11.183   2.775 -0.0729 -0.1669  0.2321
15896W        W32744   1.009  10.865   3.896 -0.2657 -0.2845  0.1630
15897W        W32745   6.859   9.517   5.172  0.0277 -0.0025  0.1827
15898W        W32746  13.946   1.573   4.145 -0.2511  0.2286 -0.3119
15899W        W32747  11.903  16.266   4.187  0.1721 -0.4212 -0.1198
15900W        W32748  11.930   0.655   4.727  0.4317 -0.1622  0.0536
15901W        W32749   0.920   5.245  11.842 -0.0468 -0.0891 -0.1306
15902W        W32750  17.794   1.763   4.330 -0.1163  0.1874 -0.0300
15903W        W32751  17.368  12.228  13.590 -0.0850  0.0147  0.1646
15904W        W32752   5.024   3.572   3.782  0.1343 -0.2604  0.0137
15905W        W32753  14.604   9.389   1.369 -0.1319 -0.2511 -0.1117
15906W        W32754  14.079  10.566  13.422 -0.2075  0.0440 -0.0899
15907W        W32755  11.424  15.128   3.605  0.2718 -0.1203 -0.2714
15908W        W32756   8.322   9.320  13.396 -0.1702 -0.0578 -0.1233
15909W        W32757  10.134   3.984   4.986  0.2296 -0.4380  0.1120
15910W        W32758   5.319   6.678  12.411  0.0694  0.1106 -0.3140
15911W        W32759   5.567   4.684  14.224 -0.3256 -0.3561 -0.2905
15912W        W32760  15.612   6.259  12.510 -0.0512  0.1913 -0.1746
15913W        W32761  10.326   8.335  15.061 -0.2376  0.1082 -0.2670
15914W        W32762  10.921  15.852   5.292 -0.0273  0.2824 -0.2078
15915W        W32763   1.308  16.111  15.060 -0.0352  0.0820  0.0434
15916W        W32764   5.322  17.487  14.574 -0.1591 -0.0495  0.2516
15917W        W32765   9.561   4.331   0.985  0.0883  0.1195 -0.1300
15918W        W32766   9.852  11.293   3.375  0.2798  0.0542 -0.2684
15919W        W32767   5.619   7.090  12.807 -0.0144  0.0512  0.0050
15920W        W32768  16.930  17.073   0.710  0.0315 -0.0280 -0.0075
15921W        W32769  16.674  15.043   5.316  0.1614  0.3201  0.2231
15922W        W32770   3.223  16.707   0.142  0.2110  0.0439  0.2208
15923W        W32771  10.738   5.939  12.387  0.2111  0.1246  0.2345
15924W        W32772  16.242  16.893  12.983 -0.2218 -0.1538 -0.0975
15925W        W32773   6.865   0.030   4.169  0.1947 -0.1685  0.0494
15926W        W32774   1.767   3.971  15.537  0.0311 -0.0966 -0.1128
15927W        W32775  10.050   1.103  15.501 -0.0880 -0.1116 -0.1125
15928W        W32776  12.338   1.374   0.773  0.2018 -0.4294  0.3039
15929W        W32777  15.414   4.595   2.661 -0.0253 -0.1171  0.0836
15930W        W32778  14.611  13.088  14.834 -0.4404 -0.3571  0.0109
15931W        W32779   0.987   8.668  14.662  0.0803 -0.1271  0.4296
15932W        W32780   6.811   3.441   5.179 -0.2552  0.1363  0.0080
15933W        W32781  17.644   1.959   4.795  0.1075  0.0824 -0.1489
15934W        W32782   3.582   4.297  11.653  0.1439 -0.1838  0.0424
15935W        W32783  11.049   5.366   0.240  0.0813  0.1184  0.1182
15936W        W32784   4.734   7.673   4.701  0.1202  0.0140  0.0242
15937W        W32785  14.487  14.529  12.031 -0.0855 -0.1260 -0.1458
15938W        W32786   9.386  11.385  15.746 -0.0233  0.3958  0.1724
15939W        W32787   2.737   0.757  14.832  0.1789  0.3639 -0.1544
15940W        W32788   0.331  12.892  13.800 -0.0308 -0.0522  0.1086
15941W        W32789  14.752  11.116   5.324 -0.0421  0.0220  0.0607
15942W        W32790  17.006  14.006   2.802 -0.1977 -0.0381 -0.1328
15943W        W32791   9.616  13.485  11.803 -0.2097 -0.2907 -0.1436
15944W        W32792  17.694  10.936  11.664  0.0464  0.0280 -0.2319
15945W        W32793   9.878   0.564  11.771 -0.1763  0.0158  0.0979
15946W        W32794  13.169   8.324   4.295  0.0404  0.0518 -0.1912
15947W        W32795   1.310  10.416   3.266  0.0593  0.0700 -0.1867
15948W        W32796   1.850   2.970   5.010 -0.0389  0.0992  0.1308
15949W        W32797   0.114   1.845  13.620 -0.0697 -0.2482 -0.0429
15950W        W32798   7.757   0.225   0.363  0.2104 -0.0104  0.0825
15951W        W32799  14.520   1.710  11.510 -0.3393 -0.2323 -0.2040
15952W        W32800  13.959  12.213  14.181 -0.0197  0.4578  0.0317
15953W        W32801  13.727   3.204  14.215  0.0813 -0.4367 -0.2569
15954W        W32802   2.037   7.962  13.898 -0.0888  0.0912 -0.0214
15955W        W32803   0.842   5.894   6.048  0.0817 -0.0634 -0.1499
15956W        W32804  11.146  16.419  12.934  0.2611 -0.1287 -0.1274
15957W        W32805  13.993  14.942   2.290  0.1849 -0.1767  0.0992
15958W        W32806   3.365   9.082   1.454 -0.0162  0.2239  0.1596
15959W        W32807   7.040   0.945   1.336  0.0238 -0.1000 -0.1551
15960W        W32808  13.452  16.863   2.144  0.0377 -0.0570  0.1192
15961W        W32809   0.840   0.052   2.704  0.3516  0.0923 -0.0283
15962W        W32810   1.742  12.725   0.340 -0.0183  0.0401  0.1035
15963W        W32811   2.790  10.764   3.189  0.1191  0.0264 -0.1435
15964W        W32812   0.090  14.769  11.158  0.1252  0.1438 -0.0473
15965W        W32813   2.030   7.753   3.353  0.0837 -0.2208  0.1489
15966W        W32814  12.345  18.040  12.210 -0.0007 -0.0685  0.2560
15967W        W32815   9.528  17.162  14.810  0.2627 -0.1452  0.1753
15968W        W32816  13.811   7.878   2.071 -0.0365 -0.2437  0.0293
15969W        W32817   5.012   1.855   0.432 -0.0500  0.1606 -0.2536
15970W        W32818   0.908   2.753   4.608  0.2309  0.4124 -0.0331
15971W        W32819   8.427   9.773   1.683  0.1148  0.0018 -0.0605
15972W        W32820   4.365   0.177   3.057 -0.0311 -0.0405 -0.2530
15973W        W32821  15.738   4.864  15.918  0.0123 -0.3054  0.5826
15974W        W32822   8.331  12.815  11.542  0.0482  0.0394 -0.3663
15975W        W32823  16.314  11.070  14.822 -0.1571  0.0550  0.0014
15976W        W32824  17.379  16.979   4.748 -0.1649 -0.2397  0.1518
15977W        W32825  13.902   3.539   3.054 -0.1691  0.0782  0.2510
15978W        W32826   6.775   8.048  15.618 -0.1859 -0.1432 -0.0351
15979W        W32827   9.157   7.790   5.258 -0.1691 -0.0397  0.3215
15980W        W32828   5.015   5.828   1.440 -0.0570  0.2841 -0.2471
15981W        W32829   1.150   5.861   0.949  0.1032 -0.0102 -0.1227
15982W        W32830   7.925  11.285   1.742 -0.0902  0.2276 -0.1656
15983W        W32831  18.179   9.860  12.547 -0.0447 -0.0894 -0.1694
15984W        W32832   5.112  12.951   3.868 -0.0188 -0.2129 -0.2407
15985W        W32833   2.927  15.056  11.844 -0.0280  0.1860  0.1078
15986W        W32834   4.858   5.322   3.380 -0.0788 -0.2045  0.0042
15987W        W32835   2.714   3.298  11.708 -0.0946 -0.0572 -0.0723
15988W        W32836   6.402  13.250   2.241 -0.0013  0.1700 -0.1894
15989W        W32837   5.304  10.869  11.387 -0.0540  0.0496  0.3136
15990W        W32838  10.291   8.560   1.901  0.1459 -0.3279  0.0017
15991W        W32839  12.058  12.569   5.481 -0.1151  0.0829 -0.3388
15992W        W32840   9.239   0.302   3.382 -0.1963  0.2179 -0.1969
15993W        W32841   9.211  12.839  12.676  0.3375  0.0530  0.0325
15994W        W32842   2.421   6.769  13.333 -0.1037 -0.3099  0.1946
15995W        W32843   7.449   6.556  14.782  0.0683  0.2103 -0.0635
15996W        W32844   6.910   5.747  14.310 -0.3666 -0.3915  0.3182
15997W        W32845   5.213  11.887  15.658  0.0285 -0.3490  0.0616
15998W        W32846   1.990  14.389  15.790 -0.0952 -0.2737 -0.0009
15999W        W32847  17.722  11.045   3.093 -0.0811  0.0089 -0.3493
16000W        W32848  12.261  10.304  13.056 -0.1723 -0.0669 -0.0831
16001W        W32849   7.787  15.166  10.519 -0.0230 -0.0868 -0.1728
16002W        W32850   7.154  13.986   4.683 -0.0709 -0.0269  0.2449
16003W        W32851  14.245   2.949  15.245 -0.0921  0.0348  0.2043
16004W        W32852   1.311  12.620   2.527 -0.3694 -0.2992  0.1814
16005W        W32853  12.589   7.860   0.222 -0.3140 -0.1393 -0.0856
16006W        W32854  11.268   4.516   4.490 -0.1269  0.0571  0.2522
16007W        W32855  11.605  13.938   2.931 -0.1424  0.0736  0.0087
16008W        W32856   8.072  10.853   4.130  0.1101  0.2293 -0.2974
16009W        W32857  12.159   1.915   0.841 -0.0747  0.1462 -0.0686
16010W        W32858   5.079  14.507   1.621  0.0333 -0.0978  0.0126
16011W        W32859  18.208  10.744  13.347  0.1964 -0.0978  0.5174
16012W        W32860   2.906  16.684  12.639  0.1793 -0.0013 -0.5685
16013W        W32861   8.518   9.390   5.630  0.0487  0.1011  0.0687
16014W        W32862   7.994   9.747   4.006  0.0256 -0.3045 -0.0847
16015W        W32863   3.488   4.335   5.130  0.2076 -0.2030 -0.0450
16016W        W32864   4.655  18.185   3.524  0.4519  0.0434  0.2370
16017W        W32865  17.213  12.026  10.698  0.1959  0.3005  0.1330
16018W        W32866  11.554  17.721  13.433 -0.1321  0.2569  0.3645
16019W        W32867  12.065   6.917   4.541  0.2571 -0.1249 -0.0055
16020W        W32868   7.772  16.363   3.233  0.1387  0.0257 -0.2543
16021W        W32869   9.738  13.841   3.152  0.1179  0.2370  0.0199
16022W        W32870  14.921   4.776   1.564  0.0135  0.1142 -0.0201
16023W        W32871  11.877  10.894  15.798 -0.1175 -0.4608  0.0257
16024W        W32872   3.584  15.055   3.875 -0.1229  0.2821 -0.0335
16025W        W32873  14.693   5.494   3.874 -0.2497  0.0098 -0.1457
16026W        W32874  15.014  13.887  14.220 -0.1395 -0.0607  0.0569
16027W        W32875  14.566   1.522  11.961  0.0197  0.0170 -0.2251
16028W        W32876   5.535   6.358  13.364 -0.0150  0.0001 -0.0976
16029W        W32877  13.897   0.415  15.849 -0.0402 -0.2114  0.2799
16030W        W32878  13.919  10.746   1.244 -0.1230 -0.1103  0.0591
16031W        W32879   0.299   7.149   0.714 -0.0266 -0.0466 -0.2295
16032W        W32880  17.248   6.563  12.526  0.4201 -0.0015 -0.2963
16033W        W32881  15.981   2.952  14.019 -0.0964 -0.2356 -0.0689
16034W        W32882   6.618   6.759   4.222  0.0290  0.1012  0.2008
16035W        W32883   4.573   8.019   0.860 -0.2392  0.0788 -0.1263
16036W        W32884   6.993   5.023  15.881 -0.0952  0.2296 -0.3339
16037W        W32885   7.777   2.422  11.707 -0.1522  0.1190  0.1496
16038W        W32886  15.653   2.203   1.255 -0.2102  0.0792 -0.0066
16039W        W32887  10.316   1.424   1.822 -0.1622 -0.0879 -0.1163
16040W        W32888  15.180  10.595  12.930  0.1363  0.2281 -0.1588
16041W        W32889   3.841  12.989  11.363 -0.1291  0.2743  0.0317
16042W        W32890   8.905   4.598   2.324 -0.4399 -0.4142  0.1924
16043W        W32891   6.471   0.790   4.323 -0.1736  0.1182  0.0529
16044W        W32892  10.267   9.681   0.020 -0.4676  0.0913  0.1735
16045W        W32893  14.997  15.145  12.983 -0.1226 -0.2155 -0.0776
16046W        W32894  11.733   1.166   5.504  0.0696 -0.1443  0.1433
16047W        W32895   2.612   0.570  15.679  0.3664 -0.1395  0.1715
16048W        W32896   2.588  15.586  15.432 -0.2451 -0.0576 -0.2191
16049W        W32897   7.945   5.942   4.057  0.0252 -0.1585  0.0245
16050W        W32898   5.180   2.514  11.077 -0.2459 -0.2165 -0.1429
16051W        W32899   0.754  13.872   1.967 -0.1478 -0.5192 -0.1232
16052W        W32900   7.783  16.799   0.311 -0.0088 -0.2375  0.1191
16053W        W32901   8.688   4.565  14.563 -0.2533  0.0207 -0.0799
16054W        W32902  10.970   4.145   4.557 -0.0801  0.2858 -0.1158
16055W        W32903   5.711  13.787  15.029 -0.0523  0.1521  0.0003
16056W        W32904  11.977  16.347  15.713  0.1149 -0.2390  0.3239
16057W        W32905  10.825   1.689  12.177  0.1315  0.1640  0.2523
16058W        W32906   6.748   1.003  12.038  0.2538  0.0098 -0.2550
16059W        W32907   9.802   7.879   5.244 -0.1284  0.0538 -0.2159
16060W        W32908  10.935   9.026   4.486 -0.0664  0.4811  0.1422
16061W        W32909   7.453  11.825   2.952  0.3349 -0.1582 -0.0534
16062W        W32910   1.410   7.625  11.426  0.2372 -0.2089 -0.2108
16063W        W32911  18.208  12.057   0.014  0.1841 -0.1278 -0.4167
16064W        W32912  14.577  13.538   2.126 -0.1509  0.3454 -0.1160
16065W        W32913  12.784   4.581   3.703 -0.4492  0.4442 -0.0210
16066W        W32914  13.643  18.199  15.990 -0.4611  0.1472 -0.0842
16067W        W32915  11.522  15.395  10.704 -0.0984  0.0591  0.1329
16068W        W32916   6.272   1.504   1.709 -0.1931 -0.2097 -0.0730
16069W        W32917  16.287   7.659  13.647 -0.2483  0.1372  0.1354
16070W        W32918   5.637   4.978  14.958 -0.4708 -0.1156  0.2089
16071W        W32919  11.547   5.079   3.640  0.1093 -0.0285  0.3152
16072W        W32920   5.816  16.789  13.214  0.1118 -0.0058  0.3542
16073W        W32921  17.695   9.425  11.564 -0.0270  0.3409 -0.1836
16074W        W32922   8.269  12.483  15.364 -0.0019 -0.1527  0.2321
16075W        W32923   7.848  18.071  11.863 -0.1501  0.0872  0.4148
16076W        W32924   4.287   7.288  14.742  0.2718  0.2837  0.1122
16077W        W32925  14.645   6.122   0.120 -0.1471  0.0056  0.0159
16078W        W32926   2.278  12.014   3.615 -0.0423  0.2453 -0.0248
16079W        W32927   0.190  11.022   4.220 -0.2789 -0.1306 -0.0507
16080W        W32928  11.465  10.736  15.494 -0.3380 -0.1533 -0.0806
16081W        W32929   8.679  12.913  14.648 -0.2764 -0.0075 -0.0374
16082W        W32930  15.983   5.668   2.869  0.2948 -0.0986  0.0343
16083W        W32931  16.510  15.509  15.951  0.4172 -0.3826  0.2012
16084W        W32932   1.552  15.266  15.940  0.1519  0.0002 -0.4094
16085W        W32933   5.308  12.747  13.002 -0.2406 -0.1634  0.1168
16086W        W32934  12.915   3.575   2.174  0.2125 -0.1326  0.1765
16087W        W32935   7.236   4.655  15.560 -0.1478  0.1346  0.2977
16088W        W32936   2.471   9.130  11.455  0.0876 -0.0821  0.3107
16089W        W32937  11.292  12.701   0.430 -0.1450 -0.3584  0.0426
16090W        W32938  14.569   3.282  16.023  0.2639  0.0185  0.1980
16091W        W32939   8.160   3.635   3.755 -0.0890 -0.0320  0.1854
16092W        W32940   4.155   8.303  14.318  0.2030 -0.1496  0.2385
16093W        W32941   6.459  14.207   0.885 -0.1651 -0.0628  0.0919
16094W        W32942  10.743   1.411   4.482  0.0865  0.1835 -0.1839
16095W        W32943   1.382  12.555   1.216 -0.0754  0.1412  0.2384
16096W        W32944  10.732  10.815  11.832 -0.2352 -0.0738  0.1333
16097W        W32945  12.425   8.884  16.110  0.0630  0.2449 -0.0505
16098W        W32946  18.058   9.676  15.545  0.2914 -0.1407  0.0580
16099W        W32947  14.121  15.328  11.432 -0.0780  0.3406 -0.1561
16100W        W32948  13.829   6.751  10.462  0.0338  0.3309  0.0108
16101W        W32949  17.778   0.464   0.648  0.1334 -0.0191  0.1106
16102W        W32950   5.537   7.422   5.037 -0.0961 -0.3236 -0.0777
16103W        W32951   8.570   8.111   0.187 -0.3098 -0.2621  0.2053
16104W        W32952   5.059   8.413  12.287  0.0091  0.1114  0.0969
16105W        W32953   2.211   6.118  12.171 -0.4373  0.2473  0.4343
16106W        W32954  13.249   7.283  12.179 -0.0137 -0.1866  0.0835
16107W        W32955  12.938   0.042  14.589  0.0551  0.0821 -0.3140
16108W        W32956   3.859   3.091  15.577 -0.2813  0.2485 -0.0221
16109W        W32957  12.189   3.062  11.739  0.0130  0.1214 -0.4597
16110W        W32958   1.643   2.532   2.566  0.2015 -0.0609  0.1699
16111W        W32959   2.083  15.473   5.163  0.2965 -0.0850  0.0455
16112W        W32960   5.979  17.598   0.457  0.1029 -0.1482  0.1478
16113W        W32961  16.466   0.088   2.772 -0.2801  0.2448 -0.1917
16114W        W32962   6.520   1.451   0.876  0.0021 -0.2682  0.4154
16115W        W32963   5.548   7.598  14.833 -0.3019 -0.0408  0.0803
16116W        W32964  17.066  12.848  12.850  0.0522 -0.0274  0.1665
16117W        W32965   4.111  12.783   0.472  0.1401  0.0311 -0.0545
16118W        W32966  16.467   0.974   0.202  0.1622 -0.1435  0.0217
16119W        W32967   0.012  11.785   3.735 -0.2478 -0.3807 -0.0384
16120W        W32968   4.558  12.192   4.700  0.1043 -0.1652 -0.1410
16121W        W32969   9.224   9.693  14.100  0.0416  0.1237  0.2595
16122W        W32970   6.459  17.974   2.902 -0.1354  0.4052  0.2962
16123W        W32971   7.246   1.463  13.800 -0.4024  0.1794  0.0393
16124W        W32972   8.131   8.269  15.411 -0.1039  0.1588  0.0013
16125W        W32973  17.624   0.184  12.185  0.1059 -0.6942  0.2985
16126W        W32974  18.175   5.655  13.950  0.0461  0.0387 -0.0245
16127W        W32975  14.832   1.633   3.823 -0.1901 -0.0235 -0.2701
16128W        W32976   8.276  11.241   4.347 -0.0939  0.1846 -0.0289
16129W        W32977   3.436  13.762  14.500 -0.0742 -0.2175  0.1809
16130W        W32978   8.560   0.908   3.449 -0.0743  0.0772 -0.2619
16131W        W32979   3.527   3.803   4.990 -0.0257  0.0648  0.1450
16132W        W32980  11.343  10.560   0.200  0.0365 -0.2623  0.0816
16133W        W32981   2.892  17.774  15.469 -0.0313  0.1082  0.0326
16134W        W32982  15.171  14.712  12.890 -0.0385 -0.3493  0.0682
16135W        W32983  11.070  16.818  13.553  0.2307 -0.0420 -0.0520
16136W        W32984   5.147   7.283   3.409 -0.0332 -0.0349  0.0206
16137W        W32985   7.883   0.093  10.773  0.2559  0.1573 -0.3632
16138W        W32986   4.815  14.562  12.749 -0.0672  0.0133 -0.0351
16139W        W32987   2.961   4.217   3.728 -0.3364 -0.3169  0.0449
16140W        W32988   7.302   5.760  13.550  0.0209  0.0130  0.0269
16141W        W32989  17.945  12.156   3.938  0.1220  0.3595 -0.0748
16142W        W32990  11.769  15.343  11.457  0.2038 -0.2837 -0.1215
16143W        W32991   4.727   5.243  14.449 -0.2141  0.2386 -0.1020
16144W        W32992  11.697   4.303   4.231  0.0273 -0.0750  0.0564
16145W        W32993  12.456   3.373  15.541  0.2455  0.0150  0.0818
16146W        W32994   0.526   5.919   5.535  0.1559 -0.2038 -0.2219
16147W        W32995   9.886   0.081   4.774 -0.2153 -0.0751 -0.2483
16148W        W32996   9.520   5.751  15.755  0.2700  0.0248  0.0380
16149W        W32997   9.781  16.885  12.205  0.0225 -0.0077 -0.1214
16150W        W32998  13.689   9.535  11.167  0.0530  0.1666 -0.0289
16151W        W32999  10.171   1.059  13.957  0.3148  0.0505  0.1501
16152W        W33000   8.640  12.492   0.920  0.0008  0.1137 -0.1876
16153W        W33001  11.215   7.280   2.803 -0.0016  0.0812 -0.1541
16154W        W33002  10.630   4.503   4.777 -0.1596  0.0471  0.0299
16155W        W33003   7.761  11.195   4.498 -0.2887  0.2064  0.1649
16156W        W33004  13.088   6.993   0.861 -0.2458  0.4467  0.3722
16157W        W33005  13.244   7.818  12.033 -0.1402  0.1326  0.0714
16158W        W33006   5.969   6.224   3.982  0.1683 -0.0562  0.1315
16159W        W33007  16.794   3.798  14.346  0.2129  0.3075  0.2969
16160W        W33008  18.167  15.832   2.332 -0.1301  0.0450 -0.2677
16161W        W33009   7.078   9.715  13.645 -0.0428  0.0344  0.0277
16162W        W33010   7.599   0.622   3.942  0.0242  0.1873  0.4356
16163W        W33011   9.834  11.537   1.430  0.0141  0.4104  0.0231
16164W        W33012  12.901   2.639  12.092 -0.0266  0.0902 -0.0159
16165W        W33013  16.234   4.305  13.735 -0.1839  0.0015  0.2356
16166W        W33014   9.672   9.914   4.322  0.0307  0.0208 -0.0844
16167W        W33015   7.166  11.548  14.067  0.0009 -0.1228 -0.3930
16168W        W33016   5.168  14.414   0.776  0.0739  0.0057 -0.1562
16169W        W33017  17.624  12.471  12.902  0.0706 -0.0790 -0.0262
16170W        W33018   6.218   8.966  12.562 -0.2185  0.0555  0.2341
16171W        W33019   6.784  12.925  13.407  0.0407  0.0705 -0.2865
16172W        W33020  10.740   7.380  15.793 -0.0081  0.4162 -0.2455
16173W        W33021  17.537   7.999   3.383 -0.1017  0.0502  0.2477
16174W        W33022   6.520   0.328   4.928 -0.1597 -0.1046 -0.0338
16175W        W33023  10.907   2.956  11.277  0.3546  0.0740 -0.1150
16176W        W33024  12.577  10.682   4.887  0.0191  0.3447  0.1855
16177W        W33025   7.123   5.871   2.503 -0.0961 -0.1794  0.0605
16178W        W33026   3.633   7.102  12.443  0.1383  0.2825 -0.0202
16179W        W33027  17.658   6.050  14.139  0.2287  0.0620 -0.0019
16180W        W33028   9.969   6.381   5.000 -0.1209 -0.0488 -0.1744
16181W        W33029   1.722   2.928  13.202  0.2539 -0.0600  0.2189
16182W        W33030  10.629   0.026   4.509  0.2634  0.2117 -0.1290
16183W        W33031  12.949   9.033   2.501  0.1439 -0.1688 -0.0434
16184W        W33032  14.707  12.458   4.226 -0.1834  0.0795 -0.3395
16185W        W33033  10.761  12.043  11.898 -0.0986  0.0961 -0.0702
16186W        W33034   3.467  16.241  10.188  0.0645  0.2191  0.1104
16187W        W33035  12.349   3.791   2.248  0.1195 -0.0784 -0.1205
16188W        W33036  14.067   5.829  15.629  0.1378  0.0614 -0.1254
16189W        W33037   3.962   5.910   0.983  0.1288 -0.1584  0.0365
16190W        W33038   6.227   2.363  14.834  0.2473  0.2975 -0.1461
16191W        W33039   4.966   3.526  14.876  0.1099  0.1266  0.1751
16192W        W33040  15.836  14.199  10.581 -0.0888  0.1360  0.1253
16193W        W33041   9.524  16.661   4.044  0.0143  0.0989 -0.1511
16194W        W33042  14.967  16.923   1.391 -0.4028  0.1624  0.3438
16195W        W33043  17.666   5.589  11.765  0.0853 -0.0845 -0.3854
16196W        W33044   7.943  10.303  13.081  0.1600 -0.1632  0.1277
16197W        W33045  16.543   5.311  12.981 -0.0613  0.0208 -0.0025
16198W        W33046   0.519   3.820   2.180 -0.5555  0.0317 -0.0543
16199W        W33047   6.509   1.842  15.831  0.0354 -0.0975 -0.1141
16200W        W33048  16.094   5.154  10.591 -0.0233  0.1343 -0.0796
16201W        W33049   3.816   5.071  13.937 -0.3634  0.2350  0.1463
16202W        W33050   5.318   8.779  11.491 -0.0777  0.0297  0.3045
16203W        W33051   7.785   9.379   0.453  0.1651  0.1682 -0.0260
16204W        W33052  16.745  13.177   0.135  0.1988 -0.3815 -0.1142
16205W        W33053   7.212   2.985   0.283 -0.2745  0.2385  0.1783
16206W        W33054   5.798   7.575  15.699  0.2085  0.1771 -0.3746
16207W        W33055   8.316   6.672  14.477 -0.0772 -0.0725 -0.3820
16208W        W33056   9.428  11.983   2.339 -0.0303  0.3108  0.0617
16209W        W33057  10.056   2.383   1.915 -0.2021 -0.0776  0.5319
16210W        W33058  13.889   1.025  12.192  0.0299 -0.0991  0.1097
16211W        W33059  14.279   3.458  15.237 -0.1054  0.2638 -0.0271
16212W        W33060   0.000  16.493  12.145  0.0241  0.2440  0.0103
16213W        W33061   8.729  17.401  15.111 -0.3268  0.5464  0.0287
16214W        W33062   7.081  16.210   4.902 -0.1817  0.0493  0.0367
16215W        W33063  15.357  10.192  13.308 -0.0610  0.0808 -0.2532
16216W        W33064   1.755  16.039   1.020  0.1378 -0.0810  0.1621
16217W        W33065  14.624   7.541   3.187 -0.0549 -0.0668  0.1034
16218W        W33066  15.529   9.643   2.222  0.1179  0.2437  0.2694
16219W        W33067   2.960  12.478   3.724 -0.0315 -0.2419 -0.2435
16220W        W33068  10.380   5.453   2.016 -0.3353  0.0719  0.1603
16221W        W33069   0.345  12.135  11.577 -0.1649 -0.1282 -0.1456
16222W        W33070   3.543   3.798   2.217  0.1147  0.1389 -0.1370
16223W        W33071   5.807  16.666  14.867  0.1784  0.1115  0.3497
16224W        W33072  16.971   8.316   1.155  0.1740 -0.1203  0.1148
16225W        W33073   5.560  15.140  13.580  0.2010  0.1774 -0.0321
16226W        W33074  12.691   3.842  11.363  0.1691 -0.0024 -0.1217
16227W        W33075  11.966  17.565   0.451 -0.0533  0.1121  0.0415
16228W        W33076  15.509  14.341  12.059 -0.2159 -0.1936  0.2123
16229W        W33077  10.234   4.657   0.510  0.0711 -0.0203  0.4394
16230W        W33078   7.779   8.938  14.273  0.2037  0.1313  0.0997
16231W        W33079  16.995  16.288  11.250  0.0708  0.0678 -0.1610
16232W        W33080  13.485   9.917   2.956 -0.1048 -0.2010  0.1736
16233W        W33081   3.791  15.302  15.048  0.1765  0.2002 -0.0591
16234W        W33082   8.646   4.927  11.926  0.0328 -0.0588  0.0858
16235W        W33083   6.318  16.493   2.854  0.1264  0.0071  0.0604
16236W        W33084   8.248  14.236  15.079 -0.0429 -0.0440  0.3780
16237W        W33085   9.143   1.503   3.711 -0.2054  0.1793  0.1247
16238W        W33086  10.648   0.327   3.129  0.0651 -0.0952  0.0884
16239W        W33087  12.660  11.084  14.678  0.0416 -0.1949 -0.0473
16240W        W33088  11.818   5.944  14.615  0.2925  0.4073  0.0836
16241W        W33089  12.583   3.359  13.494  0.0932  0.2545  0.1331
16242W        W33090   9.013   4.544  15.826 -0.1927 -0.2469 -0.1596
16243W        W33091   9.525  17.620   4.005 -0.0037 -0.2141  0.0667
16244W        W33092   1.082   7.253  11.405 -0.1002 -0.0503 -0.0787
16245W        W33093   6.047   9.801  13.962 -0.1078  0.0221 -0.1920
16246W        W33094   8.043   0.658   2.018  0.1327 -0.1530  0.2435
16247W        W33095   7.458  13.815   3.836 -0.2688 -0.1168 -0.0057
16248W        W33096   9.452  11.294  14.409  0.0994  0.0589  0.0516
16249W        W33097   3.807  16.652  10.964 -0.3555  0.1522 -0.1517
16250W        W33098  15.621   2.797   2.555 -0.0850  0.0861 -0.2110
16251W        W33099   3.949  11.871   2.815 -0.1387 -0.1715 -0.2616
16252W        W33100   6.032  13.782  11.247 -0.0255 -0.0962 -0.0301
16253W        W33101   2.789   6.784  14.862  0.2152 -0.0899  0.0416
16254W        W33102   3.714  16.282  12.371 -0.1043  0.0282 -0.2355
16255W        W33103  14.831  12.344  15.171 -0.1383  0.0764 -0.4516
16256W        W33104  12.456   1.871   2.505  0.1855  0.0908 -0.3487
16257W        W33105   5.759   2.392  10.917 -0.0785  0.0783 -0.0796
16258W        W33106   9.072  12.830  15.954  0.0590  0.0788  0.2284
16259W        W33107  12.004   8.540   5.502 -0.0191  0.0617  0.1090
16260W        W33108  12.389   4.139  14.583  0.1651 -0.1760  0.0443
16261W        W33109  14.592  16.597  13.400 -0.0474  0.1396 -0.0508
16262W        W33110  14.229  10.296   2.353  0.1870 -0.0482 -0.0558
16263W        W33111   7.478   9.055  12.250  0.1982  0.0884 -0.1260
16264W        W33112   4.443   6.680   5.083 -0.1162 -0.0362  0.2726
16265W        W33113   9.296  16.750   3.150  0.3705  0.0068  0.0619
16266W        W33114  17.076  10.911   0.001  0.2154  0.2636 -0.1645
16267W        W33115  13.506   3.831   4.668  0.2300 -0.0114  0.1437
16268W        W33116  14.037  11.184   5.752  0.0024  0.0135 -0.4040
16269W        W33117  14.776   1.562   0.192 -0.2633  0.0295  0.1751
16270W        W33118  11.428   8.140  14.978 -0.0416 -0.4231 -0.0838
16271W        W33119  15.870   3.960   3.820  0.6437  0.1132 -0.0120
16272W        W33120  10.723  14.865   4.582  0.0637  0.5938 -0.0872
16273W        W33121  11.955   3.972  14.351  0.4712  0.0775 -0.0431
16274W        W33122  13.057   0.309   0.024 -0.0036  0.0489 -0.0359
16275W        W33123   8.652   6.073  15.869  0.1129 -0.1430  0.2620
16276W        W33124  16.687  15.270   0.292  0.0447  0.0510 -0.2998
16277W        W33125   9.638  15.596   2.170  0.0430  0.0563  0.0085
16278W        W33126   2.550  17.047  13.996 -0.1052 -0.2803 -0.1838
16279W        W33127   6.116  14.981   1.610  0.1109  0.1010  0.0653
16280W        W33128   6.034  12.724  11.979  0.1480 -0.0837 -0.2663
16281W        W33129   0.955   0.777   0.916  0.1169  0.2033 -0.0397
16282W        W33130   9.462   9.863   4.756 -0.4077  0.0382  0.0679
16283W        W33131   6.412   7.225   3.294  0.0216  0.4484 -0.2698
16284W        W33132   6.329  16.803  10.525  0.0643  0.3421 -0.1943
16285W        W33133   3.763   8.525   1.278  0.2069  0.0325 -0.1285
16286W        W33134   9.384   1.425   0.867  0.1199  0.0039  0.1058
16287W        W33135   8.763  15.284  15.991 -0.0763 -0.1697 -0.0770
16288W        W33136  14.809  10.877  15.193 -0.0199 -0.1834 -0.0673
16289W        W33137  12.390   8.283   5.111 -0.2372 -0.1477  0.3460
16290W        W33138   3.344  14.743   3.544  0.0107 -0.2716  0.0833
16291W        W33139  17.773   0.047   4.878  0.1662  0.0006  0.4471
16292W        W33140  16.573  16.645   4.011 -0.0886 -0.0517 -0.0879
16293W        W33141   9.216  17.719   2.296 -0.0237  0.0436 -0.1309
16294W        W33142  11.217  13.520   0.477  0.0478  0.0807 -0.3513
16295W        W33143   0.912   5.487   1.706 -0.0047  0.0394 -0.1266
16296W        W33144   4.021  17.110  15.748  0.0777 -0.1428 -0.1001
16297W        W33145   5.221  16.176   2.384 -0.1555 -0.0189  0.2149
16298W        W33146  11.273  13.927  13.712 -0.2838  0.2639  0.1612
16299W        W33147  16.601   4.534   2.672 -0.2667 -0.0964 -0.3587
16300W        W33148  18.022   8.617  13.015  0.2984 -0.1875 -0.1583
16301W        W33149   4.362   9.136   1.487 -0.1407  0.0514  0.3490
16302W        W33150   6.296   6.762   1.010 -0.1706  0.0136 -0.1966
16303W        W33151   3.453  14.303  13.915 -0.0671  0.1421 -0.1688
16304W        W33152   1.616  13.686  15.034  0.1834 -0.3973  0.0341
16305W        W33153   5.379  15.814  13.448  0.0593  0.0217  0.0502
16306W        W33154  12.449   6.968  14.164 -0.0596  0.1143  0.0466
16307W        W33155  16.147   3.674   2.356 -0.4300  0.0031  0.2713
16308W        W33156   7.837  12.238  15.323  0.1318  0.4146  0.0296
16309W        W33157   3.852   8.443  12.955  0.1704  0.1770 -0.1086
16310W        W33158   8.990   8.828  13.818  0.2359 -0.2598  0.1988
16311W        W33159   9.530   7.078  12.694 -0.1217  0.2611 -0.0202
16312W        W33160  13.684   0.899  15.796 -0.2096 -0.4404 -0.1242
16313W        W33161   6.235  16.008  11.213  0.1646 -0.1689  0.2085
16314W        W33162  16.083  15.032   4.471 -0.0771  0.1279  0.3198
16315W        W33163   3.503   3.156  13.651 -0.0540  0.1675  0.0544
16316W        W33164   1.588   0.674  11.971 -0.1262 -0.3158  0.0331
16317W        W33165   5.120  10.631  10.354  0.2059 -0.2262  0.0189
16318W        W33166   3.044   9.811   1.956 -0.2315 -0.0375 -0.1013
16319W        W33167   2.038   7.909  16.026 -0.3511 -0.0176 -0.2190
16320W        W33168   8.332  13.646   1.539 -0.1401  0.2308  0.0201
16321W        W33169  13.384   2.501   0.799 -0.1288 -0.2754  0.1579
16322W        W33170  10.878   4.076  14.081  0.1653  0.0763 -0.1305
16323W        W33171   9.664  10.729   4.909 -0.2691 -0.2873 -0.0561
16324W        W33172  13.843  10.740   4.210 -0.1134  0.1216 -0.0289
16325W        W33173   5.541  14.172   5.625 -0.0070 -0.0357 -0.0290
16326W        W33174  12.946   6.677  10.481 -0.1420  0.0225  0.1794
16327W        W33175   4.672   1.036   3.261  0.1493  0.1612  0.3258
16328W        W33176  12.248   8.237   2.466 -0.0212  0.0556  0.1380
16329W        W33177   5.317  14.518  15.338  0.0395 -0.0625  0.0496
16330W        W33178  18.207   6.116  14.098  0.1212 -0.2362  0.0396
16331W        W33179  16.623  16.863   1.576  0.2231 -0.1277  0.1012
16332W        W33180   1.745   3.596  11.556  0.1621  0.0496 -0.0197
16333W        W33181  11.049  18.162   1.727 -0.1082 -0.1233 -0.0742
16334W        W33182   0.750  11.144  13.501 -0.1610 -0.1537  0.1569
16335W        W33183   4.195   9.618  10.319 -0.2565 -0.1865 -0.2305
16336W        W33184   9.524   7.541   5.548  0.0959  0.1581  0.0594
16337W        W33185  13.471   9.235   3.941  0.0128 -0.1774  0.1101
16338W        W33186  16.706  18.109  12.279 -0.0117  0.1595 -0.0829
16339W        W33187   6.703   4.130  13.605 -0.1621 -0.2745 -0.1674
16340W        W33188  12.665   2.492   3.477  0.1051 -0.1483 -0.0795
16341W        W33189  16.313  14.126   4.845 -0.0132 -0.1163  0.0777
16342W        W33190  14.088   9.717   4.062  0.0748 -0.0455  0.1376
16343W        W33191   0.713   1.522   1.490  0.1668  0.2143  0.2077
16344W        W33192  12.291  14.202   3.476  0.0609 -0.2412 -0.2221
16345W        W33193   1.710   2.803  13.720  0.0172 -0.1791  0.2341
16346W        W33194   3.031  11.335   1.986  0.0587 -0.0846 -0.2793
16347W        W33195   3.969   9.342   3.409 -0.1336  0.0203 -0.1737
16348W        W33196  17.178  16.486   1.440  0.2229 -0.1110 -0.0574
16349W        W33197   8.961   7.611  13.855 -0.0839  0.1000 -0.2334
16350W        W33198   0.994   8.846   3.043 -0.0002  0.3333 -0.3477
16351W        W33199  15.056   5.651  11.932 -0.1964  0.0900 -0.0441
16352W        W33200  14.967  14.014  10.024  0.0814  0.2455  0.0462
16353W        W33201  13.501   5.919  10.600  0.0526 -0.0601  0.0350
16354W        W33202   4.378   3.264   1.169  0.1067  0.0285  0.5688
16355W        W33203  10.312   3.919  10.590 -0.0522 -0.1522 -0.2275
16356W        W33204  15.960   4.758   3.854  0.0120  0.0756 -0.0309
16357W        W33205   6.706   5.423   3.861  0.0377 -0.2495  0.0637
16358W        W33206  15.214  14.029   1.397  0.0169 -0.0209 -0.2315
16359W        W33207   8.554  15.382   0.501 -0.2737  0.0436  0.1199
16360W        W33208   3.138   1.182   5.359 -0.0657  0.1057  0.4239
16361W        W33209  12.514  12.165   0.702  0.0443  0.0603 -0.1218
16362W        W33210   6.832   1.365   3.907 -0.1104  0.1654  0.3307
16363W        W33211   4.183   5.922  11.203  0.1659 -0.1262  0.0646
16364W        W33212   6.875  14.359   3.304  0.0427 -0.1671 -0.0726
16365W        W33213   9.541  18.188  12.192  0.0516  0.1477 -0.0156
16366W        W33214   3.711  18.166  15.115 -0.1029  0.0442  0.1960
16367W        W33215   1.354   2.222   0.722  0.0896  0.0778  0.0926
16368W        W33216  12.388   8.624   0.804 -0.0817 -0.1850 -0.1783
16369W        W33217  12.586  12.398   2.540 -0.1723  0.1585 -0.3220
16370W        W33218  15.429   4.943  11.272  0.1076  0.1741  0.0097
16371W        W33219   2.709  15.148   4.723 -0.2811 -0.0184 -0.0667
16372W        W33220  10.924   0.035  12.337 -0.2343  0.2195  0.0357
16373W        W33221   2.147  17.561   3.273 -0.0090 -0.1570  0.1297
16374W        W33222  17.006  13.597   1.734  0.0002 -0.1107 -0.3474
16375W        W33223   4.591  11.152   3.636 -0.0472  0.2989  0.0248
16376W        W33224   9.251   1.775  14.190 -0.2031  0.1750 -0.1868
16377W        W33225  11.979  10.108   4.187  0.0651  0.2245  0.1076
16378W        W33226  11.261   2.079  12.219  0.2848  0.2667 -0.2202
16379W        W33227   6.371   3.418   4.812  0.0763 -0.1179 -0.1569
16380W        W33228   1.714  16.936  11.055 -0.0200 -0.1202  0.0878
16381W        W33229  12.450   2.583  14.310 -0.2002  0.0203 -0.0847
16382W        W33230  14.928  14.360  15.165 -0.0872  0.0516 -0.3292
16383W        W33231   8.582  13.627   5.364  0.3341 -0.4371  0.0258
16384W        W33232  10.123  15.862  15.396  0.3451  0.1803 -0.0965
16385W        W33233  14.526   8.422   0.076  0.0246 -0.0232  0.0414
16386W        W33234   9.979   8.895   3.481  0.0006  0.1532  0.0763
16387W        W33235   0.695  13.049   0.033 -0.1392  0.3218 -0.0435
16388W        W33236   5.700  15.177  12.688  0.1074 -0.0283 -0.0468
16389W        W33237  14.607   1.370  15.570  0.0514 -0.0468 -0.2903
16390W        W33238  14.247   2.471  12.675  0.2743  0.0430 -0.1778
16391W        W33239  16.724   7.038  15.195  0.0398  0.0730 -0.2104
16392W        W33240  10.714   9.672  14.800  0.1973 -0.0458  0.2662
16393W        W33241  14.787   8.548  12.718  0.1371 -0.2278 -0.1000
16394W        W33242   5.957  10.539   3.801  0.2245 -0.1206  0.5088
16395W        W33243   0.313   0.202   0.093 -0.1783  0.4055 -0.0714
16396W        W33244   9.781   7.930   2.315 -0.0770 -0.2357  0.4232
16397W        W33245  18.087  17.641  13.269 -0.0740 -0.2322 -0.1649
16398W        W33246  10.294   6.217  12.433 -0.3197  0.0120  0.1047
16399W        W33247   9.424  16.359   2.825 -0.1686 -0.0758  0.1617
16400W        W33248   0.296   0.390   2.562 -0.1827  0.1051  0.0069
16401W        W33249  17.617   2.143  15.825  0.0858 -0.2938  0.1357
16402W        W33250  10.825  13.176   0.487 -0.1500 -0.1340  0.1902
16403W        W33251  12.186   2.282   4.328  0.2961  0.0534  0.0705
16404W        W33252   4.024   1.550  15.018 -0.0791 -0.3005  0.2866
16405W        W33253   0.108  10.286   2.105  0.2680 -0.1015 -0.3040
16406W        W33254  16.379   1.830   4.338 -0.1755  0.0798 -0.0629
16407W        W33255   2.287  16.214   0.953 -0.2003  0.0147  0.1058
16408W        W33256   4.056  10.346  14.661  0.0495 -0.1110 -0.1572
16409W        W33257   3.028   5.512  16.011 -0.4152 -0.2613  0.2370
16410W        W33258   6.436  16.878   0.093 -0.1028 -0.2585  0.4432
16411W        W33259   5.208  18.109  11.714 -0.3915 -0.2891 -0.1523
16412W        W33260   6.786  13.494  14.040 -0.1258 -0.2778  0.3111
16413W        W33261  11.610  13.726   4.883  0.0994 -0.4432  0.2957
16414W        W33262  11.705  10.019   3.716  0.0901 -0.0631  0.2682
16415W        W33263  12.256   0.778  13.226 -0.3022 -0.2097  0.0377
16416W        W33264   8.873   6.244   3.570 -0.2848  0.0697  0.0127
16417W        W33265   4.572  16.777   5.074 -0.0228  0.0577 -0.0679
16418W        W33266   2.070  17.846  14.813  0.1442  0.1318  0.0666
16419W        W33267   5.436   0.174  14.896 -0.1517 -0.1063  0.1871
16420W        W33268   7.175   9.706   0.828  0.1419 -0.3603  0.6500
16421W        W33269  15.069  15.731  15.528  0.0041 -0.0240 -0.1907
16422W        W33270   3.934   3.624   0.253 -0.0877 -0.1950 -0.1840
16423W        W33271  16.935   4.015   1.002  0.0715 -0.2759  0.1505
16424W        W33272  10.219  17.285   0.593  0.0023  0.1367 -0.1087
16425W        W33273   5.369  16.221  13.879  0.3593 -0.1768  0.1546
16426W        W33274   1.534   1.866  15.238  0.3679 -0.3688  0.0028
16427W        W33275   3.737  13.254  13.844  0.2191 -0.0199 -0.0078
16428W        W33276  13.375  12.959   2.546  0.0050  0.0492  0.0837
16429W        W33277  16.437   4.141  15.063  0.2264  0.1527  0.1635
16430W        W33278  11.320  16.146   3.422 -0.1497 -0.0448 -0.1333
16431W        W33279   6.181   2.453  13.425  0.4671  0.2257  0.2629
16432W        W33280  13.822   2.342  13.139 -0.2193 -0.1365  0.1589
16433W        W33281  14.374  12.872  13.677 -0.0652  0.1652 -0.0929
16434W        W33282   0.802   0.054  12.578  0.1074  0.2049 -0.1369
16435W        W33283   9.832  14.304  14.443 -0.1079  0.0823  0.1406
16436W        W33284   5.207  12.604   3.530  0.1465  0.0369  0.3354
16437W        W33285  17.134   5.652   4.454 -0.1907  0.1969  0.1514
16438W        W33286  18.043  16.364   0.663 -0.0617 -0.1087  0.0374
16439W        W33287  14.518   0.880   1.748 -0.0905 -0.0542  0.4618
16440W        W33288  15.653  12.088   1.060 -0.1363  0.1700  0.4084
16441W        W33289  17.857   6.481   0.640  0.0497 -0.3440 -0.2932
16442W        W33290  14.896  12.262   0.094  0.2229  0.0223 -0.2246
16443W        W33291   4.046   3.362   3.790 -0.0518  0.0942  0.0576
16444W        W33292   4.067   2.403  15.435 -0.0710  0.1085 -0.2915
16445W        W33293  18.030   5.879   0.051 -0.3877  0.2257  0.1077
16446W        W33294   2.745  10.516  15.323 -0.1682 -0.0602 -0.1113
16447W        W33295  12.956  11.931   3.351 -0.2910  0.1081  0.0917
16448W        W33296  14.796  15.581  13.149  0.2968  0.1618  0.0085
16449W        W33297   8.622  13.273   4.992  0.1355 -0.0659 -0.2679
16450W        W33298  16.718   9.958   1.918  0.1704 -0.2684 -0.0237
16451W        W33299   8.168   0.277   2.493 -0.1043  0.0911 -0.4873
16452W        W33300   0.180   7.892  15.072  0.1347  0.0132 -0.1531
16453W        W33301   4.452  15.268  11.714  0.1927  0.0164  0.0170
16454W        W33302   4.941   0.520  12.273  0.2431 -0.0621 -0.0180
16455W        W33303  17.916   0.962   5.025  0.2422  0.0203  0.2351
16456W        W33304   5.329  10.604  13.240  0.0865 -0.0425  0.1078
16457W        W33305  13.660   8.638   1.440  0.1112  0.0512  0.2309
16458W        W33306   3.573   8.229   2.715 -0.0920 -0.0283 -0.2294
16459W        W33307  10.435  15.268   4.619 -0.1225 -0.0940 -0.1361
16460W        W33308  15.493  12.207  14.202 -0.0743  0.2689  0.2063
16461W        W33309   3.997   7.813   0.137  0.0662 -0.0365  0.2904
16462W        W33310  12.745  13.781  13.415 -0.0853 -0.0832 -0.2381
16463W        W33311   3.896   7.209   1.394  0.0971  0.1171  0.0961
16464W        W33312  12.395   0.855  13.684  0.5209  0.0498 -0.3345
16465W        W33313   8.155   5.439  11.392  0.0632 -0.2175 -0.3931
16466W        W33314  12.732   3.431   1.060 -0.1595  0.2638 -0.0748
16467W        W33315  13.423   8.011   5.151 -0.1306 -0.2041 -0.0070
16468W        W33316   9.763   0.833  11.319 -0.2478  0.0478 -0.2067
16469W        W33317   8.591   4.750  15.369  0.1018  0.0340 -0.1082
16470W        W33318   6.287  12.700  14.165  0.0192  0.0713  0.1732
16471W        W33319  17.554   5.163  12.230  0.1761 -0.0355 -0.1912
16472W        W33320  16.054   0.325  15.196 -0.1020  0.0004  0.4673
16473W        W33321   2.974   9.904   2.484  0.0165  0.0338 -0.2485
16474W        W33322  15.922  14.592  12.330  0.1712  0.0318 -0.0455
16475W        W33323  11.090   5.162   2.743  0.1811  0.3004 -0.4539
16476W        W33324   5.215   0.324  12.763 -0.2351  0.3542 -0.2029
16477W        W33325   5.535   2.502  13.376  0.3003 -0.1871  0.3026
16478W        W33326   7.367   9.449  12.648 -0.1045  0.0375  0.0903
16479W        W33327   5.979  14.184  15.902  0.1303  0.0804 -0.0376
16480W        W33328  11.521   4.838  15.176 -0.0725  0.1297 -0.0615
16481W        W33329  15.461  17.401   4.596  0.1556 -0.0272 -0.1781
16482W        W33330  15.786  17.373  15.296 -0.3479  0.1695 -0.4248
16483W        W33331   8.496   9.849  15.065  0.1864  0.1332  0.0531
16484W        W33332  12.894   6.437  15.751  0.1787  0.0722  0.2143
16485W        W33333  15.012   3.452   1.560 -0.0813  0.4321  0.3851
16486W        W33334   2.681   4.226  14.327 -0.3087 -0.0409 -0.2419
16487W        W33335  10.253   0.192  11.654 -0.0439 -0.2449 -0.1122
16488W        W33336  17.733  10.012  13.134  0.0888 -0.1191 -0.2466
16489W        W33337   9.260  18.187  15.630 -0.1578 -0.1574  0.1977
16490W        W33338  12.795  12.848   1.157  0.1153 -0.3270 -0.0053
16491W        W33339   9.694  15.349  14.645 -0.0207 -0.1076  0.1348
16492W        W33340  10.952  15.944   0.017  0.4219  0.1236  0.2758
16493W        W33341   7.012  18.158   0.474  0.0853 -0.0869 -0.1016
16494W        W33342  14.920  13.331   0.941  0.1302  0.1527 -0.0561
16495W        W33343   6.342  17.384   4.604  0.0841  0.4067  0.0844
16496W        W33344   5.603   5.308  13.480  0.1133 -0.0242  0.0210
16497W        W33345  11.222   8.451   0.783  0.0456  0.1517  0.2218
16498W        W33346  12.964   4.747  12.224 -0.2536  0.0824 -0.2797
16499W        W33347   2.520   1.196  15.279  0.0361  0.5538 -0.0804
16500W        W33348  13.226  12.696  12.577  0.0935 -0.0890 -0.2394
16501W        W33349  13.756  10.379   1.636  0.2506  0.0584 -0.0445
16502W        W33350   0.348  17.532   1.724 -0.0559  0.0976 -0.0133
16503W        W33351  16.370   5.006   2.817  0.0077  0.0021 -0.1514
16504W        W33352   1.665  10.571  13.106 -0.1679 -0.0848 -0.0876
16505W        W33353  10.709  13.057  11.339 -0.2462  0.0583 -0.1938
16506W        W33354   3.704   8.314  15.036  0.1169 -0.2266 -0.0692
16507W        W33355   3.638   1.598   3.985 -0.2802 -0.2513 -0.0532
16508W        W33356  18.146  13.625  13.124  0.0664 -0.0546 -0.2208
16509W        W33357   5.718  12.381  16.088 -0.2511  0.0001  0.3176
16510W        W33358   1.837   3.457  12.081 -0.0035  0.0556  0.0123
16511W        W33359   4.291   5.834   0.189  0.3516  0.1220  0.1970
16512W        W33360   8.976   6.231  10.269 -0.0174 -0.0988 -0.0048
16513W        W33361  14.394  10.320   4.937 -0.6242  0.1740 -0.1976
16514W        W33362  15.318   0.448  11.324  0.2013  0.1487  0.1120
16515W        W33363  10.552   0.766  13.980 -0.1789 -0.3314 -0.1817
16516W        W33364  13.781  12.161  15.915  0.1998  0.0035  0.0892
16517W        W33365  13.742   7.099   0.395 -0.0563  0.1658  0.1172
16518W        W33366  14.970   2.181  13.903 -0.2758  0.1520 -0.2173
16519W        W33367  13.651  16.757   0.080 -0.2141  0.1019 -0.0710
16520W        W33368   6.042  18.174   0.433  0.1254  0.0059  0.1652
16521W        W33369  15.015   4.521   1.123  0.1946  0.2359 -0.1058
16522W        W33370   2.386   5.344  11.745  0.0850  0.1240 -0.3296
16523W        W33371  13.869   9.002  14.528 -0.0163  0.2044  0.2334
16524W        W33372   4.052  14.260   4.080 -0.3467 -0.2083  0.2880
16525W        W33373  12.097  13.024   1.876  0.1011  0.1764  0.0483
16526W        W33374  14.003  14.747   5.628  0.0058 -0.2545 -0.1848
16527W        W33375  10.144   9.246   4.926 -0.0166 -0.2472  0.0822
16528W        W33376  16.391   5.135   0.308  0.1003 -0.0522 -0.3271
16529W        W33377  16.026  17.000  11.135  0.0713 -0.2200 -0.1242
16530W        W33378  14.606   2.113   2.072 -0.2090  0.0244 -0.0556
16531W        W33379  13.573   5.628   0.615 -0.0946 -0.0711  0.1669
16532W        W33380  11.132   5.879  13.574 -0.3177 -0.0806  0.5132
16533W        W33381   7.650  11.488  14.170 -0.3325 -0.1352  0.1667
16534W        W33382  17.436  17.062  14.464  0.0689  0.2635  0.1115
16535W        W33383  13.212   3.819  11.329  0.2442 -0.1423  0.0237
16536W        W33384  10.177   0.176  15.032  0.0127 -0.0408  0.1868
16537W        W33385   3.752   0.731  14.601 -0.0446  0.0418  0.0905
16538W        W33386  11.547  17.341   0.674 -0.1270 -0.0202 -0.0232
16539W        W33387  14.756   5.780   4.329 -0.4039 -0.1046 -0.0143
16540W        W33388  10.668   6.549   1.657 -0.0113 -0.0549 -0.0259
16541W        W33389  16.284   6.398  10.907  0.2967 -0.0449  0.1333
16542W        W33390   3.030  14.272  12.175 -0.1911  0.3148  0.4054
16543W        W33391   6.346   3.762   0.574 -0.0710 -0.0887  0.1238
16544W        W33392  16.387   9.172  15.431  0.4332  0.2564  0.2093
16545W        W33393   7.535  17.821  15.858 -0.2050 -0.0667 -0.1479
16546W        W33394   3.502  17.673  14.840 -0.0771  0.1318 -0.0104
16547W        W33395   4.246   4.206  11.990  0.1983  0.0759  0.0394
16548W        W33396   8.548   0.421  11.741 -0.0473 -0.1235  0.0204
16549W        W33397   6.588   9.761   3.839  0.3546 -0.0171 -0.2741
16550W        W33398  14.328   7.978   2.594  0.1311 -0.0150  0.0959
16551W        W33399  11.769  17.420  11.208  0.1696 -0.0194  0.1911
16552W        W33400  11.970  17.816   3.448 -0.0917  0.0417 -0.2711
16553W        W33401   6.922   2.193   2.786  0.1204  0.4858 -0.1306
16554W        W33402  10.987   7.162  13.676 -0.1855 -0.4803 -0.2168
16555W        W33403  16.274  13.942  11.956 -0.1989  0.0410  0.1068
16556W        W33404   5.668  14.352   9.868 -0.1968  0.0776 -0.1489
16557W        W33405  14.241   8.696   4.311  0.0400 -0.2926 -0.0361
16558W        W33406  14.365  12.053   1.856  0.2809  0.0825 -0.2261
16559W        W33407  10.280   7.686  12.502  0.1602 -0.0834  0.3483
16560W        W33408   5.132  17.363   1.758 -0.4073  0.1044 -0.1842
16561W        W33409   5.962   2.550  11.749 -0.2102  0.1664 -0.2497
16562W        W33410   5.172   4.016  15.021 -0.0011  0.0020  0.2262
16563W        W33411   7.118  14.174  13.890  0.0317  0.3698  0.0840
16564W        W33412   6.852   9.646   0.067  0.1902  0.0896 -0.1084
16565W        W33413  12.795   5.714   0.505 -0.0370  0.1074 -0.3485
16566W        W33414  17.221  12.241  11.531 -0.0090 -0.2118 -0.1261
16567W        W33415  18.052   1.564  13.281 -0.0407 -0.0574  0.0831
16568W        W33416  17.177   9.761  12.121 -0.1239  0.0924  0.0299
16569W        W33417   9.851  16.555  12.568  0.0893 -0.2300 -0.0484
16570W        W33418   8.934   0.651   4.771 -0.1383  0.0686 -0.0859
16571W        W33419   1.507  10.918   4.084 -0.2909 -0.0812 -0.2967
16572W        W33420   4.969  10.407  15.774 -0.1629 -0.0006  0.0408
16573W        W33421   5.639   4.093  11.363  0.1203  0.4134  0.0307
16574W        W33422  16.650   8.436   2.412  0.1641 -0.1681 -0.1215
16575W        W33423   6.376  12.668   2.449  0.3927  0.0048  0.1768
16576W        W33424  10.194   9.288  15.728  0.1664 -0.1057 -0.2122
16577W        W33425   7.482  13.752  16.092  0.3907  0.1662  0.1903
16578W        W33426   8.685   9.325  11.963 -0.1282 -0.0779  0.1330
16579W        W33427   8.702  15.617  11.560  0.0392  0.1376 -0.0453
16580W        W33428   5.064  10.359   0.652 -0.1823 -0.2236  0.0736
16581W        W33429  15.369  12.206   5.457  0.1304 -0.1036 -0.0323
16582W        W33430  10.307   2.092  10.810  0.0787  0.2030  0.0620
16583W        W33431  17.231   6.141  15.564  0.1899 -0.1387  0.1485
16584W        W33432  12.738  11.486  13.798  0.0422 -0.2628  0.1425
16585W        W33433   9.791   7.909  12.374  0.0792 -0.3179 -0.2009
16586W        W33434   0.606   9.272  10.873 -0.5201  0.2385  0.2207
16587W        W33435   5.273  11.595   4.382  0.0475  0.1444  0.2817
16588W        W33436  15.172   4.323   4.933  0.2127  0.2514  0.1153
16589W        W33437   4.491  15.258  11.239  0.1265 -0.0182  0.1678
16590W        W33438  11.103   0.669  11.064 -0.2540  0.1820 -0.0202
16591W        W33439   8.111   1.051  10.190 -0.0144  0.3667  0.0970
16592W        W33440  12.578  11.401   0.248  0.2113 -0.0527 -0.2645
16593W        W33441   6.263   9.088  11.775  0.3122 -0.2598  0.0403
16594W        W33442  14.007  10.635  16.026  0.1058 -0.2921 -0.1447
16595W        W33443  13.251  16.977   1.110 -0.2239 -0.0610  0.0077
16596W        W33444   7.337  10.308   5.084  0.1185  0.2298  0.1520
16597W        W33445  12.053   7.310  13.687  0.2540  0.0902 -0.0604
16598W        W33446   5.714  16.453   2.378 -0.1695 -0.1720  0.1444
16599W        W33447   8.184   9.588  14.751  0.1069 -0.1285 -0.3980
16600W        W33448  17.658   9.441  13.808  0.0365 -0.0605  0.0591
16601W        W33449   3.102   9.671  14.409 -0.4432 -0.2402  0.1608
16602W        W33450  10.821  11.033   3.020 -0.0289 -0.0389  0.2925
16603W        W33451  16.899  12.522  11.259  0.2617 -0.1009  0.2057
16604W        W33452   3.185  17.994  15.117  0.0631  0.0780  0.3571
16605W        W33453   3.185  12.750  13.240 -0.0166 -0.1378  0.1898
16606W        W33454   5.810   6.453   4.479  0.1609  0.0781  0.1365
16607W        W33455  15.077  13.324   4.214 -0.3487 -0.0311  0.0835
16608W        W33456  16.482  14.577  13.064  0.0180 -0.0326  0.3429
16609W        W33457   3.283  16.430  14.530  0.0516  0.2470  0.1183
16610W        W33458  15.610  16.067   2.127  0.2054  0.1253 -0.0805
16611W        W33459   5.694   1.951   1.712  0.1629 -0.2882  0.2232
16612W        W33460   2.217   3.398   2.728 -0.0129  0.1627 -0.0523
16613W        W33461   3.790  15.887   3.605 -0.1638  0.1654  0.3341
16614W        W33462   4.994   4.492  14.358 -0.1106 -0.0198 -0.1377
16615W        W33463   9.578   7.594  12.721  0.0998  0.4217 -0.1165
16616W        W33464  13.377  17.698   1.659 -0.1035  0.0038 -0.4961
16617W        W33465  17.538  11.560   3.168  0.0947 -0.2160  0.0877
16618W        W33466   2.966  13.030   3.763 -0.0651  0.2945  0.0125
16619W        W33467  15.379  17.738   0.785 -0.0671  0.0475  0.2586
16620W        W33468  12.295  11.397  14.703 -0.1489 -0.1515 -0.0766
16621W        W33469  10.772   7.330  12.498  0.0994  0.1485 -0.0950
16622W        W33470  12.294   3.074   0.056 -0.1914 -0.0440  0.2289
16623W        W33471  13.829  17.054   1.137  0.2099  0.0647  0.1113
16624W        W33472  15.677   1.652   4.670  0.0545  0.0661 -0.0681
16625W        W33473  17.482   8.110   1.560  0.0660 -0.0845  0.0561
16626W        W33474   2.346  12.589  12.153  0.1577 -0.0454  0.0296
16627W        W33475   5.655  10.059  15.731  0.4651  0.1974  0.1746
16628W        W33476   6.842   5.275   4.648 -0.0283 -0.0209 -0.0991
16629W        W33477  13.724   1.854   5.059  0.2570  0.0353  0.0106
16630W        W33478   2.461   4.488   0.065  0.0187 -0.1233 -0.0477
16631W        W33479  10.633   5.886  11.473 -0.1414  0.2863  0.4438
16632W        W33480  14.045   4.802  13.068  0.3564  0.0166  0.0791
16633W        W33481   3.559   6.659   4.280  0.2834  0.2623  0.0930
16634W        W33482  13.423   2.963   4.629  0.1320  0.0550  0.2535
16635W        W33483  16.511   5.470   3.716 -0.0641 -0.1639 -0.1726
16636W        W33484   2.506   5.947   3.421 -0.0710 -0.3074 -0.4059
16637W        W33485  14.736  12.102   0.677 -0.1660  0.1395  0.1211
16638W        W33486   7.203   5.624   3.365 -0.0930 -0.0889  0.1384
16639W        W33487   6.069  10.246   0.927 -0.1943  0.2188  0.2333
16640W        W33488   5.707  15.534  14.419 -0.3204 -0.0277 -0.3958
16641W        W33489  14.023   3.381   2.333  0.0552  0.1904 -0.0365
16642W        W33490  13.630   0.514  11.285  0.1299 -0.1473  0.3508
16643W        W33491   6.799   0.377   0.561  0.0451  0.3649 -0.3101
16644W        W33492  15.386   3.649  15.680  0.0389 -0.1250  0.1015
16645W        W33493   3.493   8.918  11.077 -0.1118 -0.2284  0.1131
16646W        W33494  17.362   0.065  15.177  0.1933  0.0596 -0.1467
16647W        W33495  11.838   3.641   2.974  0.2041 -0.1641  0.0323
16648W        W33496  11.965  10.239   2.247 -0.0436  0.1352 -0.3437
16649W        W33497   2.395  12.901  12.545 -0.5105  0.2919  0.1560
16650W        W33498  12.998   4.306  12.516  0.3039  0.2207 -0.2835
16651W        W33499   6.796   7.954  12.443 -0.1060 -0.0247  0.0040
16652W        W33500  12.045  12.556   1.383  0.3116  0.1592  0.0204
16653W        W33501   7.239  14.165   1.274  0.1215  0.0614  0.0132
16654W        W33502  15.205  13.950  13.748 -0.3517  0.0108 -0.0812
16655W        W33503   8.927   7.150  14.081 -0.2554  0.1318 -0.3464
16656W        W33504  18.110   3.549  14.150  0.0890  0.1984  0.0183
16657W        W33505   3.319   2.482  14.324  0.0183 -0.0464  0.0568
16658W        W33506   1.448  15.760  15.854 -0.0277  0.1308  0.0442
16659W        W33507  16.492   6.249   4.186  0.2431 -0.4580 -0.0559
16660W        W33508  16.048   1.540  13.611  0.0861 -0.0955 -0.2944
16661W        W33509  13.926   7.435  16.116  0.1118  0.0347 -0.0945
16662W        W33510  14.343  11.905   3.821 -0.2893 -0.0876 -0.0667
16663W        W33511   2.011  15.753   5.761  0.1227 -0.1811  0.1503
16664W        W33512   7.473   7.970  14.675 -0.2575  0.0465 -0.3160
16665W        W33513  13.347   4.380  15.561 -0.0633  0.0878 -0.4297
16666W        W33514  14.995  17.969  13.091  0.0608 -0.0280  0.0511
16667W        W33515   2.049   5.407  14.895 -0.1067 -0.2061 -0.1433
16668W        W33516  17.331   4.142   3.663  0.1728  0.3154 -0.2217
16669W        W33517   6.238   2.250   3.802  0.4614 -0.1395  0.2176
16670W        W33518   0.010   6.688   3.048 -0.0661  0.0112  0.0205
16671W        W33519   1.726   9.574   2.881  0.2229  0.2198 -0.0654
16672W        W33520   0.915   4.350   3.443  0.2534 -0.1329 -0.0647
16673W        W33521   1.377  15.111  12.501  0.1820  0.2615 -0.2170
16674W        W33522   2.795  10.808   0.448 -0.0368  0.0135 -0.2865
16675W        W33523   8.917   4.444  13.290  0.3570  0.0749  0.1873
16676W        W33524   4.118   9.789   5.061  0.0378  0.1058  0.2048
16677W        W33525  12.896   6.741  13.828 -0.3872 -0.1769  0.3629
16678W        W33526  13.576   9.792  12.258  0.0467 -0.0144 -0.1485
16679W        W33527  17.251   4.864   3.159 -0.2007 -0.0195  0.2784
16680W        W33528   1.122   3.947  10.138  0.0403  0.1795  0.1064
16681W        W33529  12.073   8.587  12.332 -0.3167 -0.1443 -0.0585
16682W        W33530  13.641   2.131  11.208 -0.3360 -0.1316 -0.1317
16683W        W33531  14.246  10.874  14.338  0.0827 -0.0931  0.2105
16684W        W33532  14.172  15.529  11.906 -0.0875 -0.3651  0.1229
16685W        W33533  10.811  15.865   3.428 -0.2187 -0.1334  0.0204
16686W        W33534   6.215  17.992  12.220 -0.0484 -0.1378 -0.1878
16687W        W33535   8.606   4.075  12.150 -0.2928 -0.3686  0.2180
16688W        W33536  12.270  16.019   1.277 -0.3907  0.0115 -0.1027
16689W        W33537   5.895  15.496  13.544  0.1494  0.0607 -0.3249
16690W        W33538   6.008   9.889  11.530  0.0284  0.2813  0.0452
16691W        W33539   2.906   4.724   1.449 -0.1661  0.0434 -0.1204
16692W        W33540  14.356  11.327  12.706 -0.1821  0.1059  0.1125
16693W        W33541   2.499   8.755   4.032  0.1239 -0.1227  0.1531
16694W        W33542  14.080  12.036   2.450 -0.0295  0.2665  0.0588
16695W        W33543  14.508  10.222  15.547  0.4633  0.0421 -0.0051
16696W        W33544   6.381   0.230   2.047 -0.0839 -0.0026  0.0235
16697W        W33545   5.829   1.388  12.677  0.2316  0.1538 -0.0260
16698W        W33546   3.767   6.535  10.810 -0.1338  0.0487  0.0368
16699W        W33547  14.604  11.970  11.669  0.6766 -0.1155 -0.0993
16700W        W33548   2.740  16.380  13.018  0.1032  0.2875  0.1896
16701W        W33549   8.079   2.291   0.739 -0.1959 -0.1028 -0.0225
16702W        W33550   0.547  11.108  13.998 -0.5108  0.1127  0.2750
16703W        W33551  13.689  17.568  12.160  0.0611  0.0558 -0.0497
16704W        W33552   9.908  17.008  15.894 -0.1309  0.4523  0.2071
16705W        W33553   7.734   3.742   1.521 -0.0762 -0.2106 -0.1090
16706W        W33554   1.142  14.576   1.448 -0.1586 -0.4819 -0.0769
16707W        W33555  14.042  17.874   2.371 -0.1898  0.4252  0.1620
16708W        W33556   5.922   5.963   4.409  0.0011 -0.0225 -0.3778
16709W        W33557   0.711   4.263   0.874  0.3659 -0.1555  0.0138
16710W        W33558   0.384   7.618   0.978 -0.1622  0.1191  0.1434
16711W        W33559   9.243  17.406  10.522 -0.0867  0.2079 -0.1618
16712W        W33560   9.681   4.068  15.397 -0.2430  0.2504 -0.1914
16713W        W33561   0.684  13.267   4.085 -0.2029  0.0106 -0.2561
16714W        W33562   1.594  14.623  15.330  0.0768 -0.0937 -0.1159
16715W        W33563   9.194  13.287  13.180 -0.1356 -0.4001  0.2382
16716W        W33564   1.908   8.762   0.445 -0.1667 -0.1203 -0.0317
16717W        W33565   8.313   9.651   6.003  0.4757 -0.1411  0.0878
16718W        W33566   2.038  12.068   0.235  0.1611 -0.0424  0.1424
16719W        W33567   5.922   1.068   1.434  0.0403 -0.1090 -0.0647
16720W        W33568   7.722   5.510  13.949  0.1060 -0.1523  0.2653
16721W        W33569   6.302   2.341  15.367 -0.1941  0.0538  0.1560
16722W        W33570   5.162   3.175   1.049  0.1932 -0.2112  0.1218
16723W        W33571  12.618  14.008   1.789 -0.3003 -0.1461  0.1188
16724W        W33572   2.294  11.237   4.724  0.0036 -0.1644 -0.0345
16725W        W33573   6.344  11.870  12.285  0.1134  0.1246  0.2691
16726W        W33574   4.650   9.732   0.150  0.0060  0.0638  0.4690
16727W        W33575   0.478   1.480   2.489  0.0181  0.0426  0.1518
16728W        W33576   3.006  12.288   2.442 -0.2455  0.0786 -0.1200
16729W        W33577   9.220   7.293  15.387 -0.1594  0.0811  0.1201
16730W        W33578  17.018  16.337   3.952  0.2217  0.3714 -0.0017
16731W        W33579  11.074   7.780  13.759 -0.2113  0.0571  0.1128
16732W        W33580  12.480  12.566   1.778 -0.1216 -0.2166  0.4443
16733W        W33581  15.227  17.350   1.177 -0.2522 -0.0734  0.1236
16734W        W33582  14.845   7.648  15.791 -0.1683  0.2382 -0.0461
16735W        W33583   2.096   2.506  11.500  0.0094  0.0509  0.3130
16736W        W33584   2.269  17.103  15.275 -0.2049  0.1960  0.0425
16737W        W33585  14.769  13.510   3.326  0.0993 -0.1241 -0.0976
16738W        W33586  11.069  14.873   3.160  0.2070  0.1323 -0.0107
16739W        W33587  15.720   0.412  10.030  0.3551 -0.1927 -0.1657
16740W        W33588   1.536   1.154  14.413  0.3163 -0.0682 -0.0630
16741W        W33589  14.336  11.605   4.309  0.0288 -0.0106  0.2675
16742W        W33590  16.831  11.421  11.763 -0.0323 -0.1956 -0.1140
16743W        W33591   2.650  14.395   4.755  0.0330  0.3477  0.1839
16744W        W33592  12.785   8.585   5.089 -0.0326 -0.0920 -0.1207
16745W        W33593  13.195   3.447  10.920  0.1663 -0.1640 -0.0949
16746W        W33594   3.581   0.629   4.098  0.0770  0.3999  0.3691
16747W        W33595  13.634   2.170   0.315  0.2560 -0.0315  0.0584
16748W        W33596  12.554  14.234  15.669 -0.1697  0.3110  0.2893
16749W        W33597  15.350   1.342  13.049 -0.1691  0.1549 -0.1087
16750W        W33598   7.785   1.783   4.808  0.0421  0.2288  0.1822
16751W        W33599  17.743  12.103   0.214  0.3203  0.1301  0.0748
16752W        W33600   5.945  14.515   1.852 -0.3526  0.2744 -0.1810
16753W        W33601   1.097   6.650  12.038  0.0050 -0.3083 -0.3019
16754W        W33602   3.164  15.177  14.616 -0.0119  0.4108  0.0067
16755W        W33603   1.765   8.559   3.077  0.0300  0.0242 -0.3183
16756W        W33604   9.029   7.110  14.574 -0.2408 -0.1652 -0.0520
16757W        W33605  18.040   6.882  15.654  0.1161  0.2183 -0.0937
16758W        W33606   5.602   5.919   0.239 -0.4406  0.1411 -0.1334
16759W        W33607   5.046   5.402  12.992 -0.0771 -0.0397 -0.2637
16760W        W33608   1.682   9.066   3.571 -0.0076  0.3702 -0.1012
16761W        W33609  10.944  17.308  12.842  0.0036 -0.1432  0.0030
16762W        W33610   3.570   0.256   5.396 -0.1841 -0.0170 -0.1053
16763W        W33611  11.962   7.391  15.208 -0.3171 -0.0319  0.2738
16764W        W33612  12.874   2.487  15.529 -0.0248  0.0151  0.1763
16765W        W33613  11.115   2.292  15.998 -0.3251  0.1480  0.1684
16766W        W33614  16.090   7.185  15.346  0.2201  0.0753 -0.1721
16767W        W33615  10.934   7.588   1.833 -0.2270  0.0352  0.0047
16768W        W33616   0.476   4.591  10.641  0.0922 -0.2034  0.0279
16769W        W33617  17.033   2.665   0.852  0.2009 -0.2882 -0.0661
16770W        W33618   1.098  16.508   1.774  0.1246  0.1368 -0.0208
16771W        W33619   3.043  16.849  13.806 -0.1554  0.1278  0.3132
16772W        W33620  10.449   6.025  12.887  0.1593 -0.1201 -0.4682
16773W        W33621   0.766   0.906   4.142 -0.0806  0.2954 -0.0644
16774W        W33622   2.140  11.232  11.993 -0.2701 -0.1144 -0.0103
16775W        W33623   2.772  12.101   4.607  0.3822 -0.3018  0.0830
16776W        W33624  17.005  14.647   4.525 -0.3642 -0.1822 -0.0808
16777W        W33625  14.989  14.245  11.403 -0.0681  0.1512 -0.1046
16778W        W33626  14.129   5.940  13.660 -0.0315 -0.2891  0.0114
16779W        W33627   0.363  13.031   1.873  0.0775 -0.1283 -0.1759
16780W        W33628  12.758  17.090   2.576  0.1262  0.0874 -0.0610
16781W        W33629   3.382  15.064  12.335  0.1059 -0.0117 -0.0186
16782W        W33630  10.393   8.087  13.707 -0.0235 -0.0597 -0.3390
16783W        W33631  13.587   2.818  13.313  0.0031 -0.0827 -0.0144
16784W        W33632   3.905  18.173   3.090  0.2270  0.4748 -0.2287
16785W        W33633   2.851   0.705  11.174  0.2421 -0.1795  0.0878
16786W        W33634   8.451  10.423   0.157  0.0155 -0.0813  0.1762
16787W        W33635   2.828  10.402   0.197 -0.1540 -0.2084 -0.1448
16788W        W33636   5.765  11.096   5.350 -0.2754 -0.4123  0.2326
16789W        W33637   7.761  17.766  15.105 -0.0861 -0.0956 -0.1110
16790W        W33638  12.721  13.966   4.453 -0.1303  0.0331 -0.0558
16791W        W33639   7.911   2.191  15.446  0.1266 -0.1382 -0.0642
16792W        W33640   7.657  10.826  14.447 -0.1094  0.1074  0.1710
16793W        W33641   4.766  15.211  12.388  0.0160  0.3047  0.0228
16794W        W33642   4.361  14.387  13.900  0.0483 -0.1011 -0.3730
16795W        W33643   2.400   1.156   4.657 -0.0462  0.1131 -0.2166
16796W        W33644   1.441  11.991   4.060  0.1544 -0.2032  0.0486
16797W        W33645  10.130   4.757   4.203  0.0219  0.3332  0.2295
16798W        W33646  17.356   7.565   0.007 -0.1919 -0.2870  0.2979
16799W        W33647  15.547   8.364   4.747  0.1293  0.3334  0.1311
16800W        W33648  15.655   8.228   2.076 -0.3421 -0.1130  0.1697
16801W        W33649   0.119  13.490   0.499  0.1164  0.0579  0.0494
16802W        W33650   7.101  12.354   1.304 -0.4151  0.0419 -0.1074
16803W        W33651  10.869   0.977   0.130 -0.0653 -0.0490 -0.1143
16804W        W33652  16.743   9.211   6.368 -0.0113 -0.1652 -0.0643
16805W        W33653  13.445  11.123  12.765 -0.2022  0.2115  0.2750
16806W        W33654  10.088  16.973  14.894 -0.0678  0.1766 -0.0060
16807W        W33655  15.794   8.045  15.867  0.0530  0.0953 -0.0952
16808W        W33656  15.363  11.698   0.401 -0.0494 -0.0723 -0.1820
16809W        W33657   1.232  13.981   2.863 -0.2269  0.3093  0.2235
16810W        W33658  16.630   8.735  14.227  0.0167  0.3128  0.2789
16811W        W33659   7.082   7.111  12.147 -0.2261  0.0069  0.2243
16812W        W33660  12.162   7.463   6.033  0.0783  0.0971  0.2467
16813W        W33661  14.854  10.665  14.243  0.0579 -0.3924 -0.2241
16814W        W33662  13.498   4.223  14.168  0.1345 -0.0810  0.1677
16815W        W33663   7.871  17.779  13.970 -0.3822 -0.2245 -0.2071
16816W        W33664   7.234   1.611   1.733 -0.3014  0.2349 -0.1363
16817W        W33665   0.692   1.043  14.659  0.0913  0.0396  0.1601
16818W        W33666   5.645  17.527  13.434  0.0929  0.1790 -0.1126
16819W        W33667   6.085   6.706  14.620 -0.0757 -0.2074 -0.0622
16820W        W33668  11.968  13.534   4.561 -0.4016 -0.0671 -0.3282
16821W        W33669   2.588   3.016  14.101  0.0445  0.0624 -0.0410
16822W        W33670   4.366   3.336   2.729  0.0699 -0.3784 -0.3248
16823W        W33671   1.807   4.781   3.529  0.1748 -0.0873  0.0817
16824W        W33672   7.832  11.953   3.824  0.1089 -0.1400 -0.4033
16825W        W33673   8.572  13.933  13.313  0.3515  0.0800 -0.0028
16826W        W33674  12.411   2.265  15.787 -0.1452 -0.2630  0.1289
16827W        W33675   9.137   1.507   2.092 -0.0029 -0.0425 -0.0541
16828W        W33676   7.803   4.770   4.702 -0.0273 -0.1420  0.0848
16829W        W33677   5.599   7.306   3.105  0.0325  0.3737 -0.2648
16830W        W33678   0.896   0.671  14.974  0.1304 -0.0390  0.0332
16831W        W33679   8.751   4.404   3.139 -0.2029  0.0832 -0.0827
16832W        W33680   0.153  14.125   5.309 -0.0717 -0.2341 -0.2945
16833W        W33681   5.662  17.961   3.447  0.0952 -0.1551  0.0871
16834W        W33682   1.317  13.210  13.700  0.0515  0.2768  0.2549
16835W        W33683  10.869   1.460  14.513 -0.0451 -0.0852 -0.0167
16836W        W33684  13.003  11.550   1.546 -0.0609 -0.3991 -0.2358
16837W        W33685   3.907  17.387   3.012 -0.0693  0.1626  0.1026
16838W        W33686   4.929   8.709  12.676  0.0590  0.0124 -0.1272
16839W        W33687   3.971  15.626   1.826  0.0882 -0.0651 -0.3456
16840W        W33688  15.915   5.118   3.533 -0.0639 -0.0498 -0.1614
16841W        W33689   7.233  10.656   3.008  0.1876 -0.1960  0.2541
16842W        W33690  16.879  17.827   3.931 -0.0338 -0.0856 -0.2768
16843W        W33691  14.494  11.469   0.131 -0.0311  0.5152  0.2572
16844W        W33692   7.013   6.880   2.155  0.0156 -0.1627 -0.0513
16845W        W33693   9.678   6.041   0.044  0.2048  0.1549  0.3862
16846W        W33694  14.007  18.122   3.202 -0.2931  0.0489  0.5682
16847W        W33695  17.958  15.713   2.993 -0.1120 -0.2017  0.0149
16848W        W33696  11.869  14.582  10.944 -0.1675 -0.0077 -0.0822
16849W        W33697   5.744  16.298  12.847 -0.0242 -0.0175 -0.1389
16850W        W33698  13.802  17.789   1.924 -0.1868  0.2941 -0.1427
16851W        W33699   8.062   3.844  15.330 -0.0751  0.1356  0.1112
16852W        W33700   4.476   1.242  15.631  0.0568  0.1442 -0.0370
16853W        W33701  12.984  12.439  14.175 -0.2973 -0.1886  0.3035
16854W        W33702  16.037  16.564   0.694 -0.0140 -0.2155  0.0047
16855W        W33703   3.427  18.064  13.783 -0.1764 -0.3680  0.0863
16856W        W33704   4.471  15.945  13.579  0.0398 -0.1479 -0.2025
16857W        W33705   5.458  12.080  13.872 -0.1152  0.1621 -0.2148
16858W        W33706   1.075  13.457  14.687 -0.0758 -0.1312 -0.1081
16859W        W33707   4.492  13.453  15.499  0.1207 -0.2365 -0.1449
16860W        W33708  10.970   2.448   5.490  0.0529  0.0563 -0.1563
16861W        W33709  17.565  10.306   4.446 -0.0108 -0.0501 -0.0221
16862W        W33710  17.069  11.678   1.437 -0.2910  0.0658  0.0594
16863W        W33711  16.807  10.513   5.196  0.0037  0.4115  0.1255
16864W        W33712   9.828  10.972  15.775 -0.0471  0.1484  0.0738
16865W        W33713  12.729   5.573   1.995 -0.2446 -0.0364  0.0930
16866W        W33714   3.096   0.502  16.001 -0.0801 -0.0554 -0.0076
16867W        W33715   7.214   3.729  11.690  0.0088  0.2655  0.1224
16868W        W33716   4.403  10.901  11.756  0.0193  0.0969 -0.0848
16869W        W33717   6.560   3.896  13.191  0.2387  0.0691 -0.1924
16870W        W33718   6.679   8.198   3.796  0.0183  0.0830  0.3995
16871W        W33719   5.372   0.843  12.713  0.1599  0.0096 -0.0481
16872W        W33720   4.927  17.446   1.269  0.0068 -0.1648 -0.0568
16873W        W33721  14.908  10.324  15.187  0.1910 -0.0550  0.2790
16874W        W33722  17.208   1.312   4.658  0.3645 -0.5371  0.1169
16875W        W33723   5.366  17.024  11.577  0.0918  0.4435 -0.0503
16876W        W33724   1.386  14.351   2.385 -0.3154  0.0296 -0.0122
16877W        W33725   3.239   7.096   4.630 -0.1594 -0.1320  0.2466
16878W        W33726   8.866   2.162  12.664  0.1407  0.1480  0.0590
16879W        W33727  12.132  13.835  15.312  0.1909  0.1968 -0.5222
16880W        W33728  17.283   5.986   1.301  0.0179 -0.3932 -0.2199
16881W        W33729  13.514  16.140  14.208 -0.0098 -0.0945  0.0671
16882W        W33730   6.934   3.827  12.898  0.1745  0.3589  0.0549
16883W        W33731  10.863   9.485   2.838 -0.1669 -0.2096  0.0456
16884W        W33732  14.758   8.643  11.487 -0.0690  0.0033  0.1118
16885W        W33733   5.363   9.178  11.903 -0.1676  0.3379  0.0404
16886W        W33734   9.413   8.632  14.737  0.0268  0.1400  0.2165
16887W        W33735   1.246   0.387   1.960 -0.1722  0.1925 -0.3576
16888W        W33736   8.264  10.784   5.118  0.1977 -0.1168 -0.0151
16889W        W33737   3.761   1.450   5.907  0.0693  0.1223 -0.2494
16890W        W33738  17.038  15.204  15.251 -0.0317  0.4276 -0.2041
16891W        W33739  10.835   8.400  13.695  0.1038  0.1416  0.1615
16892W        W33740   5.765   0.118  11.872 -0.0356 -0.1882  0.1081
16893W        W33741  10.973   4.777   2.429  0.2829  0.0069  0.0813
16894W        W33742   4.537   9.278  15.531  0.0700 -0.0193  0.0348
16895W        W33743   0.674   7.722   0.112  0.0191  0.3096 -0.0228
16896W        W33744   6.159   2.349   4.741  0.1361 -0.0380 -0.1631
16897W        W33745   0.579   6.930   4.392  0.2290 -0.0031 -0.0229
16898W        W33746   0.591  17.294   1.355  0.0974  0.0059 -0.0646
16899W        W33747   0.413   4.853   3.405 -0.2926 -0.0599  0.1073
16900W        W33748   0.408   4.324   3.493  0.1957  0.0931  0.3141
16901W        W33749   9.788   1.516   1.842  0.2317  0.0591 -0.2542
16902W        W33750  12.205   9.918   0.527  0.1672  0.1504 -0.1462
16903W        W33751   6.196   3.607  13.744 -0.3735  0.0071  0.0372
16904W        W33752   1.115   6.048  12.415  0.0246 -0.2424 -0.0738
16905W        W33753   0.257  11.162  11.797  0.2344 -0.1402  0.0426
16906W        W33754  10.958  10.661  15.993 -0.5211 -0.1652  0.1852
16907W        W33755  14.851  17.872  10.914 -0.0597  0.2940 -0.1592
16908W        W33756   5.988   1.695   2.062 -0.6106 -0.0225 -0.0926
16909W        W33757   3.468  14.123  15.601  0.1235  0.4151  0.6051
16910W        W33758  13.686  12.512  12.377  0.1469 -0.2131  0.1537
16911W        W33759   9.246  17.752  13.563 -0.4865 -0.0709 -0.0743
16912W        W33760   3.525  15.761  13.072  0.0244  0.1358 -0.3274
16913W        W33761   6.664   8.243  11.182 -0.0951  0.0093  0.1358
16914W        W33762   6.692   1.617   1.410 -0.4044  0.2945 -0.2159
16915W        W33763   0.571   7.275  13.589  0.0440  0.4395 -0.0464
16916W        W33764  12.706  13.234  14.915 -0.1832 -0.2188  0.0912
16917W        W33765   7.304   1.072   5.606  0.3323 -0.1297 -0.1452
16918W        W33766   1.479   0.921  13.916  0.1367 -0.0712 -0.3698
16919W        W33767  11.616  16.192  13.803 -0.0956  0.2046  0.0301
16920W        W33768  16.578  17.675  13.665 -0.1058 -0.0459 -0.0987
16921W        W33769   9.628   8.467   4.383 -0.1605 -0.0308  0.1424
16922W        W33770  16.493   2.513   1.722 -0.2749  0.0850 -0.0362
16923W        W33771   8.259   4.578   3.183 -0.2505  0.0469  0.1462
16924W        W33772  16.068   8.846   2.308 -0.3108  0.0002 -0.0019
16925W        W33773  16.202   4.038  13.224 -0.2699  0.2115 -0.0061
16926W        W33774   8.683   6.181   0.346 -0.2804 -0.2449 -0.1086
16927W        W33775   9.535   4.364  15.827 -0.0485 -0.0299 -0.5534
16928W        W33776   4.456  11.511  12.565  0.2983  0.0289  0.6407
16929W        W33777  14.109  12.374   0.229 -0.1271 -0.3864 -0.2015
16930W        W33778   3.138  14.100   2.211 -0.2276  0.0770 -0.0659
16931W        W33779  16.870   1.771   3.439  0.1774 -0.1898  0.3160
16932W        W33780  13.820  17.598   5.501  0.0136 -0.1360 -0.1151
16933W        W33781   9.046   9.792   3.425 -0.2161 -0.2213  0.1293
16934W        W33782   3.234  18.221  12.350  0.4766  0.1544 -0.1354
16935W        W33783  17.043   2.088  10.955  0.0533  0.0260 -0.2567
16936W        W33784   5.518   8.425   0.088 -0.3356  0.2683  0.2282
16937W        W33785  17.350  10.079   4.037  0.0284 -0.1973  0.3430
16938W        W33786  16.132   6.252  13.741 -0.1169 -0.0665  0.1047
16939W        W33787   6.415  13.714   1.617  0.0200  0.2665  0.2652
16940W        W33788   5.693  16.891   1.033  0.1631 -0.0004 -0.2120
16941W        W33789   8.891   8.516  14.985  0.1210  0.1025  0.2597
16942W        W33790  15.640  14.102  15.018 -0.1817  0.1691  0.0378
16943W        W33791  12.153   7.221  15.720 -0.0178 -0.0287 -0.0558
16944W        W33792   3.451  14.527  12.356  0.1665  0.0229 -0.0706
16945W        W33793  13.281   4.770   6.240 -0.2727 -0.1459 -0.1827
16946W        W33794   3.670  12.210  10.942  0.2475  0.3710  0.0678
16947W        W33795   3.266   6.472   0.869 -0.0222 -0.1048 -0.0624
16948W        W33796   7.629  16.264   1.771 -0.1319 -0.0691  0.2384
16949W        W33797   6.006  15.292  15.291  0.1087 -0.0309  0.2275
16950W        W33798  12.749  14.661   2.948  0.0123 -0.2713  0.0276
16951W        W33799  10.667   3.437   0.290 -0.2907 -0.2367 -0.1376
16952W        W33800   4.880  17.548  14.850 -0.1176  0.2034 -0.0118
16953W        W33801  16.764  11.130   1.246 -0.0357  0.2321 -0.0376
16954W        W33802  13.453   6.106   4.827 -0.0837 -0.1114 -0.0648
16955W        W33803  17.877  11.290   5.002  0.3448 -0.0167  0.0321
16956W        W33804   0.957  11.261   0.775  0.1386  0.2975 -0.1919
16957W        W33805  12.158  15.384   3.228  0.1168  0.0518  0.1229
16958W        W33806   3.327  16.021  13.749  0.4789 -0.1089  0.2392
16959W        W33807  15.198  10.462   3.823  0.0321  0.1904  0.1309
16960W        W33808  15.930   0.984   0.123 -0.0854  0.2266  0.0546
16961W        W33809  15.554  10.879   5.089  0.3227 -0.2453 -0.1126
16962W        W33810   9.375   1.463  11.875  0.0968  0.0879  0.1461
16963W        W33811   8.442   4.972   4.456  0.4967 -0.2971  0.0950
16964W        W33812  16.992  15.576   2.985 -0.0497 -0.1501  0.1046
16965W        W33813   7.000   6.285  11.984 -0.0201  0.0972  0.1851
16966W        W33814   7.953  12.204   3.406 -0.0085  0.0642  0.0953
16967W        W33815  10.084   9.298   1.291 -0.0997 -0.0126  0.0803
16968W        W33816   4.975  16.130  11.514 -0.0126 -0.0836  0.0752
16969W        W33817  16.247   0.911  15.851  0.1138  0.0678  0.1558
16970W        W33818  10.241   2.934   1.167 -0.4170 -0.0066  0.1479
16971W        W33819  13.750   7.113  11.396  0.1206 -0.0701 -0.1579
16972W        W33820   8.904   3.778   4.146 -0.3701 -0.1105 -0.1830
16973W        W33821  11.391  14.556  14.934  0.2454  0.1677  0.0447
16974W        W33822   1.725   4.896   0.757 -0.2814  0.2979  0.1060
16975W        W33823   1.666   1.809  10.845 -0.1162  0.0866 -0.0769
16976W        W33824  13.485   0.853  11.737 -0.3037 -0.0392 -0.1518
16977W        W33825   0.980  15.827  12.914  0.1319 -0.1423  0.0301
16978W        W33826  17.875   8.617  15.935 -0.2709  0.1248  0.0552
16979W        W33827   8.057   5.024  13.033 -0.0843  0.1380  0.0597
16980W        W33828  16.710   4.847  15.542  0.0573 -0.0309  0.1881
16981W        W33829   8.670  10.564   4.905  0.1449  0.0437  0.4412
16982W        W33830   6.743  11.201  16.076  0.2400  0.1271 -0.3454
16983W        W33831   0.641   8.941   4.483 -0.2914  0.0995 -0.0763
16984W        W33832  16.860  16.640   2.458  0.2153 -0.0017  0.0100
16985W        W33833   8.235  12.641   4.193  0.2024 -0.0735  0.0568
16986W        W33834  12.189   1.578   1.216  0.0171  0.2422 -0.1483
16987W        W33835  12.072  11.249   0.972  0.0840  0.2040  0.2015
16988W        W33836   7.418  16.261   4.535  0.0983 -0.0108 -0.2975
16989W        W33837   3.402   0.717   1.981 -0.1354 -0.2812 -0.2658
16990W        W33838  11.938   7.946  15.092  0.2005 -0.2216  0.1212
16991W        W33839   7.194  14.403   1.811 -0.1028 -0.0923 -0.1547
16992W        W33840  10.145  18.025  10.732  0.2499 -0.2201  0.0952
16993W        W33841  11.056   7.908   4.833  0.1769  0.0836 -0.2552
16994W        W33842  10.069   3.031  12.615 -0.2687  0.1351 -0.0810
16995W        W33843  14.254   6.990  14.965  0.2084 -0.2800  0.1019
16996W        W33844  16.994  14.427  14.004  0.0115  0.0572  0.0049
16997W        W33845  11.631   7.799   3.248  0.0364  0.0639  0.1050
16998W        W33846  17.323   2.621  12.846  0.1192  0.1187 -0.0974
16999W        W33847   7.567   1.065   1.432  0.2675  0.5095  0.0753
17000W        W33848   7.595   9.781  14.642 -0.1265 -0.4470 -0.2171
17001W        W33849   9.002   5.912  12.845 -0.1836 -0.1107 -0.0810
17002W        W33850  10.303   7.072   2.442 -0.0876 -0.1306 -0.1542
17003W        W33851  11.012   2.358   4.248  0.5395 -0.3226 -0.3100
17004W        W33852   6.742  14.830  12.586  0.0138 -0.0376  0.4260
17005W        W33853   4.792   8.476   5.915 -0.0011  0.0697 -0.0803
17006W        W33854  11.616   9.458   1.620  0.2582 -0.0586 -0.0606
17007W        W33855  10.839   5.627  15.417  0.2391  0.2347 -0.1852
17008W        W33856  17.634   6.782   0.982  0.0273  0.4130  0.3481
17009W        W33857   6.195  12.015   0.664  0.3052 -0.3864 -0.0150
17010W        W33858  14.174   5.717   0.250 -0.2242 -0.1889 -0.1070
17011W        W33859   8.356   4.486  11.853 -0.2620  0.1356 -0.0515
17012W        W33860   8.972  11.957  11.520 -0.0895 -0.2773 -0.0166
17013W        W33861  17.710   1.437  14.313 -0.2129 -0.0919 -0.0345
17014W        W33862  14.615   7.319  15.381 -0.0115 -0.0537  0.1489
17015W        W33863  11.476   4.493   2.460 -0.1662 -0.0656  0.0128
17016W        W33864   6.953   0.010  15.311  0.4489  0.3730 -0.1662
17017W        W33865  18.098  14.160  10.048  0.3243 -0.0659  0.0348
17018W        W33866   1.953  12.666  12.486  0.0325 -0.1127 -0.1847
17019W        W33867   0.809  10.329  11.174 -0.1681 -0.0440  0.0938
17020W        W33868   5.501  13.089   4.110 -0.1752 -0.0695  0.1825
17021W        W33869  10.637   8.105   1.318  0.0837  0.2137 -0.0581
17022W        W33870  18.136   0.992   0.563  0.3409 -0.0331 -0.1110
17023W        W33871  12.238  16.238  14.772  0.3570 -0.3918  0.0406
17024W        W33872  18.171   2.366  15.715  0.1680  0.0423 -0.0114
17025W        W33873  12.162  10.625  12.658  0.2332  0.0678  0.3139
17026W        W33874   3.418   6.196  15.818  0.1149 -0.2078  0.3717
17027W        W33875  11.577   0.563  13.358  0.1724 -0.2473 -0.4718
17028W        W33876  10.233   4.407   3.854 -0.3001  0.0380 -0.2801
17029W        W33877  10.062  10.495  13.520 -0.1075  0.3410  0.0498
17030W        W33878   6.463  18.178  16.014  0.0390 -0.1977 -0.0215
17031W        W33879   9.006  10.701  12.575 -0.0503 -0.0278 -0.0309
17032W        W33880  15.141   9.480  11.495  0.3195  0.1231  0.2609
17033W        W33881  11.696  15.359   1.914  0.2302 -0.1009  0.0200
17034W        W33882   1.713   2.390   1.337 -0.0854  0.0082 -0.1101
17035W        W33883  17.466   9.096   4.093  0.1366 -0.0346 -0.2333
17036W        W33884  14.159   3.938  15.311 -0.4990 -0.1591 -0.0234
17037W        W33885   1.895  17.904  15.225  0.1147 -0.1117 -0.1691
17038W        W33886   9.027   0.158   5.266 -0.0187 -0.0439  0.0358
17039W        W33887   3.247  14.242   3.704  0.1735 -0.2086  0.2555
17040W        W33888   8.106  12.561   4.885  0.1562 -0.2518  0.0060
17041W        W33889  12.451   7.227  15.332 -0.2975  0.0317  0.1016
17042W        W33890   6.663  13.443  11.553  0.1397 -0.2175 -0.0518
17043W        W33891  16.009  10.950  15.275 -0.0368 -0.0495 -0.0951
17044W        W33892  12.166   4.638  11.925 -0.0343  0.2647  0.2377
17045W        W33893   3.856   6.318   2.832  0.1353 -0.2272 -0.1073
17046W        W33894   8.111   8.817  11.261 -0.1365  0.0777 -0.1291
17047W        W33895   1.400  16.038   2.592  0.0197  0.1007  0.0857
17048W        W33896   8.226  13.582   0.497 -0.0155  0.1341  0.0320
17049W        W33897   9.622   3.134  11.195  0.1524  0.0827  0.0605
17050W        W33898   9.418   6.685   3.505  0.0110  0.2931 -0.0023
17051W        W33899   8.684   6.226  13.598  0.0580  0.1660 -0.0247
17052W        W33900   3.930  15.860   0.913 -0.0408 -0.1505 -0.0653
17053W        W33901   5.389  12.776   5.812 -0.0578 -0.3148 -0.1565
17054W        W33902  14.117  17.171  14.047 -0.2763 -0.0317 -0.0072
17055W        W33903  12.195   9.667  14.397 -0.0524 -0.0284  0.0003
17056W        W33904   5.545   3.197  11.839  0.2313 -0.2321  0.2272
17057W        W33905   7.753  10.965   3.119  0.1279  0.1084  0.1000
17058W        W33906   2.201  13.435  15.817  0.0215 -0.1906  0.1784
17059W        W33907   2.261   6.582   2.571 -0.0923  0.1671 -0.1047
17060W        W33908   5.305   0.079  14.377 -0.1061  0.3800 -0.3007
17061W        W33909  15.976  17.114  14.328  0.2718  0.1080 -0.1689
17062W        W33910  12.896   8.624   2.916  0.0276 -0.1182 -0.1368
17063W        W33911   6.520  18.114  14.448 -0.1416 -0.3188 -0.1509
17064W        W33912  10.962  10.132  14.694  0.1028  0.1461  0.1311
17065W        W33913   3.295   6.641  14.944 -0.0849 -0.2453  0.0019
17066W        W33914   9.974   9.353   3.162  0.2258 -0.2405  0.0425
17067W        W33915   0.675   8.057   2.105 -0.2033 -0.1022 -0.0069
17068W        W33916   2.291   2.034   4.271 -0.1270  0.1851  0.2953
17069W        W33917   1.554   6.314  11.404 -0.0624 -0.0239 -0.1413
17070W        W33918   3.444  13.218  15.261  0.0292  0.4347 -0.1304
17071W        W33919   7.921   0.241   1.153 -0.1252  0.1651  0.0404
17072W        W33920  11.026   6.584  11.772  0.0167  0.0336  0.2484
17073W        W33921   7.020  13.386   5.190  0.0714  0.0489  0.1108
17074W        W33922  10.580   5.038   4.017  0.1796  0.3215 -0.3015
17075W        W33923  11.365  17.022  14.952  0.0349  0.1559 -0.1782
17076W        W33924   5.361  14.615  13.560  0.2837  0.0659 -0.3015
17077W        W33925   6.275  15.475   0.700  0.0977 -0.1188 -0.1162
17078W        W33926  16.487  12.737   1.712  0.0004 -0.0491  0.3730
17079W        W33927  15.312  14.050  15.408  0.1701  0.1209  0.1888
17080W        W33928  12.391  12.923   5.290  0.0007 -0.5937  0.2518
17081W        W33929   0.990  16.802  14.259 -0.1781 -0.1072  0.1002
17082W        W33930  17.576  10.797   3.671  0.1704 -0.1645  0.1291
17083W        W33931  18.163   1.978  12.524  0.2173 -0.3857 -0.1844
17084W        W33932  12.002  15.841   2.302 -0.1451 -0.0703 -0.0250
17085W        W33933   5.864  11.652   0.514  0.1102 -0.1123 -0.1281
17086W        W33934   8.905  15.014  14.223  0.0089  0.0629 -0.1245
17087W        W33935  11.171  14.753   1.403 -0.0061 -0.1026  0.0286
17088W        W33936   6.965  16.063   2.312 -0.0949 -0.0837  0.2537
17089W        W33937  10.054   7.059   5.051  0.0229  0.1134 -0.0609
17090W        W33938   5.242   5.245   3.735 -0.1637 -0.0860 -0.1946
17091W        W33939  16.119   2.699   0.188  0.1339 -0.0698 -0.0958
17092W        W33940  15.180  15.231  15.919 -0.0160  0.0369 -0.1148
17093W        W33941  11.853  17.212  12.067 -0.1745 -0.0620  0.2591
17094W        W33942   7.046   0.486  13.284  0.2452  0.0537 -0.1179
17095W        W33943  17.763   8.987   2.215 -0.0214  0.0138  0.1483
17096W        W33944  10.607   0.334  16.107  0.0170 -0.0610  0.2472
17097W        W33945   0.886  13.158  15.551  0.0930 -0.1432 -0.0635
17098W        W33946   4.241   1.256  11.321  0.0671  0.0366 -0.2289
17099W        W33947  16.581  12.867  12.646 -0.1314  0.2890 -0.0934
17100W        W33948   1.878  12.185   2.599  0.0885  0.1824 -0.2828
17101W        W33949  16.977  15.975   1.460  0.0901  0.3071 -0.1475
17102W        W33950  16.914  11.720   0.549 -0.0400  0.0032  0.0643
17103W        W33951   1.078   7.290   5.057 -0.1783  0.2198  0.2615
17104W        W33952  18.006   7.719   0.272 -0.1423 -0.2853 -0.0385
17105W        W33953   0.084  11.297  10.827  0.2041  0.2054 -0.0810
17106W        W33954   5.202   3.877   2.196  0.1333  0.0370 -0.0857
17107W        W33955   1.834   3.218   4.585  0.1255 -0.0195  0.1459
17108W        W33956   5.816   0.884  12.501 -0.0481 -0.0115  0.1250
17109W        W33957  16.723  16.603  11.552  0.1082 -0.1421 -0.0396
17110W        W33958   7.949  11.654  13.246 -0.3215  0.0702  0.3024
17111W        W33959   7.844   5.270   4.913  0.0180  0.0186  0.1604
17112W        W33960  17.885  18.189  15.014  0.0534 -0.1548  0.2293
17113W        W33961   1.487   5.755  15.746  0.1916  0.1683  0.0525
17114W        W33962  12.973   5.081  11.570  0.1706  0.2987  0.3447
17115W        W33963   3.199   9.824   3.747  0.1477 -0.1603 -0.1969
17116W        W33964   1.422  10.237  11.930 -0.0654 -0.0684 -0.1628
17117W        W33965   2.473  17.217  15.868  0.0688  0.0501  0.4287
17118W        W33966   2.406  15.575  14.437  0.1803  0.3866  0.0478
17119W        W33967  10.377  14.458   0.878  0.4465  0.2184 -0.1922
17120W        W33968   7.560   2.898   2.447 -0.1114  0.3288 -0.1059
17121W        W33969   9.596   4.078  13.031  0.1273  0.1323 -0.1489
17122W        W33970   9.898   1.315   4.842  0.0559 -0.0864  0.0494
17123W        W33971  12.827   2.602  13.983  0.0968  0.1105 -0.1768
17124W        W33972  18.043  12.250  14.884 -0.5784  0.0374  0.1086
17125W        W33973  12.157   9.265  13.909  0.3956  0.0841  0.0713
17126W        W33974   3.243  13.534   1.557  0.3523 -0.2702 -0.5387
17127W        W33975   3.449   5.273  14.183 -0.0241 -0.1385  0.2830
17128W        W33976  15.309   8.363  15.680  0.1082  0.2652  0.2781
17129W        W33977  12.564   5.702  12.739 -0.1380  0.1638  0.3191
17130W        W33978   4.964  13.223  15.530  0.0342  0.0174  0.3078
17131W        W33979   2.034   2.653   0.968 -0.1520  0.0103 -0.2591
17132W        W33980   1.337   4.997   5.930  0.2435 -0.1546  0.0600
17133W        W33981   6.227   4.324  13.043  0.1866 -0.0295  0.2208
17134W        W33982  10.058   4.000   1.944 -0.2262  0.1096  0.3217
17135W        W33983   4.872   8.877  14.699 -0.1382  0.2600  0.1802
17136W        W33984  10.099  15.518  14.959  0.0454  0.1604 -0.0090
17137W        W33985   3.065  12.957  13.745  0.1700  0.1766 -0.0154
17138W        W33986  12.700  14.218  13.547 -0.2770  0.1872 -0.2584
17139W        W33987  16.268   5.774   0.854 -0.1922  0.3072  0.1524
17140W        W33988   1.728  10.770   1.983 -0.1174 -0.0460 -0.2117
17141W        W33989  17.916   9.963  11.407  0.2498  0.0078  0.2962
17142W        W33990  16.709   8.712   3.844  0.5373  0.2810 -0.1553
17143W        W33991   2.024  10.390  15.052 -0.1788  0.1507  0.3140
17144W        W33992  11.981   6.783  15.507  0.0068  0.1138  0.2234
17145W        W33993   3.419   3.238  14.954 -0.1363  0.1743  0.2060
17146W        W33994   5.512  10.655  12.330 -0.0326 -0.2985 -0.0577
17147W        W33995  17.978  13.679  15.406  0.0502 -0.0079 -0.2005
17148W        W33996  10.004   9.072  15.281 -0.0325  0.0534 -0.0873
17149W        W33997  16.715   0.385  13.814  0.1289 -0.0501  0.1010
17150W        W33998   3.642   1.278  15.435  0.0159 -0.1659  0.0398
17151W        W33999  10.890  12.079  12.575  0.1089  0.0398 -0.1052
17152W        W34000   6.765  11.735  11.410  0.1326 -0.5222  0.1120
17153W        W34001  11.920  14.661   0.781  0.0652 -0.1384  0.1741
17154W        W34002   7.008  16.319  10.237  0.1601 -0.3476 -0.1273
17155W        W34003  10.225  12.139  15.352  0.0108  0.2467 -0.1832
17156W        W34004  14.498  17.720   0.415  0.0680 -0.5434 -0.1649
17157W        W34005   6.926   2.020   4.050  0.1912  0.2351 -0.1245
17158W        W34006  13.691  11.474  13.822  0.1095 -0.1204  0.1612
17159W        W34007  12.011  17.060  15.944  0.0392  0.0172  0.0037
17160W        W34008   2.275   1.595   1.661 -0.0739  0.0827 -0.1488
17161W        W34009   5.768  15.748  13.076  0.0726  0.0521 -0.1303
17162W        W34010   6.936   8.527   1.317  0.2456  0.5717  0.2705
17163W        W34011  12.984  10.558  11.749 -0.0252  0.1516 -0.0914
17164W        W34012   5.154   6.765   4.951 -0.2873  0.0469  0.0486
17165W        W34013   9.420  11.521  13.154 -0.4720 -0.0305  0.3706
17166W        W34014  11.173   8.780  11.378  0.2845 -0.2267  0.1776
17167W        W34015  10.805   0.360  13.883  0.1754  0.0716 -0.0211
17168W        W34016   8.768   7.050  13.157 -0.1339  0.0816 -0.3429
17169W        W34017   6.758  13.026   1.232  0.0494  0.1490  0.0969
17170W        W34018   5.300   1.322   2.366 -0.1980 -0.0243 -0.2063
17171W        W34019   3.975   0.997   0.660  0.0573  0.1327  0.3184
17172W        W34020   2.551  13.834   0.402 -0.1505  0.2150 -0.2557
17173W        W34021  11.696  15.351  16.095 -0.1108 -0.1371  0.0041
17174W        W34022  10.164  11.989  13.331  0.1227 -0.1289 -0.3090
17175W        W34023  14.416  12.591  11.846  0.1397 -0.0610  0.2328
17176W        W34024   7.428  11.798   2.391  0.0927  0.1274  0.2755
17177W        W34025   2.596  13.751  14.015 -0.2191  0.0700 -0.0399
17178W        W34026  14.666   6.537  10.369 -0.1164 -0.0073  0.0372
17179W        W34027   3.372   0.574  14.291  0.0076  0.1154  0.2126
17180W        W34028  13.618   5.126   3.691  0.0276 -0.0128  0.0834
17181W        W34029  15.495   2.624  11.727  0.0264  0.1256  0.2028
17182W        W34030  17.740  10.476  13.922 -0.0704  0.2649 -0.0759
17183W        W34031   5.111   7.701   1.049  0.1727  0.1954  0.0776
17184W        W34032   9.017   5.278   5.067 -0.3537 -0.2446  0.0280
17185W        W34033  15.773   2.599  12.964 -0.2412  0.1760 -0.1461
17186W        W34034  14.190   1.614   1.920 -0.1903  0.2066  0.0169
17187W        W34035  13.829  12.725   1.915  0.1444  0.0154  0.1932
17188W        W34036  11.117  14.963  14.932  0.3160 -0.0955  0.1199
17189W        W34037   5.228  17.969   3.248  0.2905 -0.2348 -0.0069
17190W        W34038  18.160  11.514  12.927  0.0679 -0.0976 -0.1242
17191W        W34039   9.905   6.877   6.410  0.2152 -0.3135  0.2285
17192W        W34040   6.555  13.959   3.480 -0.2290 -0.1865  0.3985
17193W        W34041  10.804   3.982  15.239 -0.2692  0.1863  0.1437
17194W        W34042  16.358   2.298   4.891  0.1213 -0.1167 -0.0863
17195W        W34043   1.035  14.516   3.687 -0.1644 -0.0978  0.3534
17196W        W34044  10.140   7.575   4.906  0.3457  0.1204 -0.2099
17197W        W34045  16.776   7.735   4.983  0.0046  0.1686  0.0436
17198W        W34046  17.226  10.734   1.450 -0.0630  0.2995  0.3729
17199W        W34047  11.654   9.364   2.936 -0.2085 -0.2828 -0.0539
17200W        W34048   4.269   1.580  16.039 -0.0276  0.1076  0.0530
17201W        W34049  13.190  16.777  15.302  0.1707  0.1591 -0.0302
17202W        W34050   4.208   9.680  14.398  0.2642 -0.2449 -0.1674
17203W        W34051  16.027  14.361  14.065  0.0236 -0.2578  0.3241
17204W        W34052   7.192  15.584   2.317 -0.3587 -0.2240 -0.2748
17205W        W34053   1.829  10.849  14.915  0.2046 -0.0388  0.2171
17206W        W34054  12.477   8.185   1.056  0.0196 -0.1561 -0.2094
17207W        W34055  10.701  17.305  13.303  0.1196 -0.0693 -0.2447
17208W        W34056  10.652  10.880   0.900  0.0717 -0.1628  0.0149
17209W        W34057   0.676  12.224  11.232 -0.1728 -0.0036 -0.0842
17210W        W34058  14.728   0.360   3.965  0.2885  0.2276  0.2360
17211W        W34059   4.376   9.389   2.176 -0.0924 -0.1979  0.0928
17212W        W34060  14.028   7.236   4.686 -0.3856  0.2687 -0.0991
17213W        W34061   7.564   9.013   2.221  0.2716  0.2665 -0.1127
17214W        W34062   9.643   6.020   4.906 -0.1729  0.1054  0.0114
17215W        W34063   0.975   1.295   4.366 -0.1159 -0.0423 -0.0080
17216W        W34064  14.033  17.973  12.016  0.2614  0.0146 -0.0719
17217W        W34065   2.369   6.688  12.689  0.2645 -0.0036  0.2045
17218W        W34066   5.788  12.280  11.513  0.1541  0.1318 -0.3120
17219W        W34067   9.056   6.727  11.608 -0.2315  0.2745 -0.1708
17220W        W34068  17.740  17.831   0.772 -0.1525 -0.1556  0.0028
17221W        W34069   6.619   5.415  14.028 -0.1797  0.3234 -0.0452
17222W        W34070  10.829   1.975  12.860 -0.2684  0.2314 -0.0742
17223W        W34071   5.866  10.510  14.098  0.0519  0.1563 -0.0121
17224W        W34072   2.636  11.199  10.116 -0.3018 -0.0240  0.0801
17225W        W34073   1.648  13.239  11.927  0.1241 -0.2053 -0.0224
17226W        W34074   5.440   0.294  15.628  0.0609  0.0902  0.1042
17227W        W34075  13.544  10.105  13.738  0.2249 -0.1653 -0.1056
17228W        W34076   6.216  17.804   3.544 -0.0533 -0.6031  0.1303
17229W        W34077  12.695  10.048   0.585 -0.0200  0.0219 -0.2685
17230W        W34078   3.694  13.871  14.002  0.0251  0.0750  0.1870
17231W        W34079  15.852   3.820   0.080 -0.0716  0.0292  0.1899
17232W        W34080   9.321  16.875  13.769 -0.1347 -0.2338 -0.2091
17233W        W34081  10.277   7.069   0.902 -0.1322 -0.1374 -0.0396
17234W        W34082  14.738  16.160   0.772  0.2486  0.0825 -0.1192
17235W        W34083   0.526  11.092  12.309 -0.2885  0.3410 -0.0006
17236W        W34084   8.943   2.464  14.533  0.1570 -0.0555 -0.0525
17237W        W34085   9.367  11.798   3.243 -0.2511 -0.0011  0.0202
17238W        W34086   2.223  12.307   1.407 -0.0212  0.1883  0.1018
17239W        W34087  14.102  13.229  15.068 -0.2103  0.1158 -0.0155
17240W        W34088  13.615  17.180   3.451  0.3167 -0.1243  0.1947
17241W        W34089  16.033  17.175   4.022 -0.3398  0.0833  0.1433
17242W        W34090  13.529   0.545   3.473  0.2422  0.1273 -0.3121
17243W        W34091   3.274   4.817  14.016 -0.1603  0.2464  0.2731
17244W        W34092  12.997   9.929   5.076 -0.0601  0.1114 -0.0431
17245W        W34093  13.863   6.114   0.444 -0.1601 -0.0672  0.0077
17246W        W34094   2.910   4.698   0.301  0.1142  0.1191 -0.0010
17247W        W34095  16.587   7.835   0.426 -0.4596  0.2525 -0.0218
17248W        W34096   6.397   5.793   3.055 -0.3585  0.0710  0.3388
17249W        W34097  12.289  11.166   1.544  0.0797 -0.0766 -0.1075
17250W        W34098  10.518   9.544   0.449  0.0619  0.0388 -0.1004
17251W        W34099   1.523  13.174   2.890  0.0440 -0.0837  0.0299
17252W        W34100   2.075  12.647   2.691 -0.1130 -0.0527 -0.1099
17253W        W34101   0.769  15.506   2.575 -0.1757  0.0241 -0.0746
17254W        W34102  14.729   3.254   3.042 -0.1621 -0.3621 -0.0161
17255W        W34103   4.618  12.992   1.719 -0.1385 -0.0521  0.0516
17256W        W34104  12.528   9.524   1.457 -0.2998  0.0290  0.3123
17257W        W34105  12.030  11.502  15.593  0.2549 -0.0592 -0.1247
17258W        W34106  17.319   4.712   0.608  0.2131 -0.1337  0.0491
17259W        W34107   0.313   1.817   2.975 -0.0665  0.2294 -0.0299
17260W        W34108  18.026   6.800   3.928 -0.0268  0.2859  0.0939
17261W        W34109   6.010   7.529  16.116 -0.1072 -0.2916  0.0355
17262W        W34110   7.102  15.151  12.648  0.0241  0.1519 -0.2695
17263W        W34111  18.143   5.223  13.014 -0.0867 -0.0411 -0.1403
17264W        W34112   4.931  17.618   3.056  0.1997  0.0857 -0.1177
17265W        W34113   7.737  16.238   1.235 -0.1436 -0.1433 -0.2241
17266W        W34114  15.317   7.646   1.083  0.0513  0.0536 -0.1554
17267W        W34115   7.072   1.945  12.081 -0.1416 -0.2154 -0.1312
17268W        W34116  12.649   7.153  13.693 -0.2611 -0.1167 -0.2841
17269W        W34117  12.911   3.100  13.726  0.0257  0.1278 -0.1385
17270W        W34118  14.546  17.881  13.299  0.1036 -0.0318  0.0996
17271W        W34119  12.953   6.181  12.749  0.2711 -0.4363  0.3353
17272W        W34120  17.346   8.273  14.449 -0.0621  0.1713  0.3659
17273W        W34121  12.311  15.715  11.467  0.1031  0.1428  0.3514
17274W        W34122  11.073  11.170   0.786  0.0846 -0.2175  0.2051
17275W        W34123  13.820  10.516  12.246 -0.1713 -0.0838  0.0371
17276W        W34124   6.174  17.088   2.694  0.1541 -0.2712  0.0930
17277W        W34125   2.368  16.822  12.488  0.0726 -0.1847 -0.2262
17278W        W34126   4.485  13.380  16.007  0.0526  0.0013 -0.1920
17279W        W34127   5.316   5.676   2.284 -0.0942  0.3281  0.3127
17280W        W34128   0.637   8.548  14.185 -0.1673 -0.0556 -0.2330
17281W        W34129   8.138   6.414   1.133 -0.0676  0.1732 -0.2658
17282W        W34130   9.137  16.309  14.721  0.1941 -0.2636 -0.2499
17283W        W34131   7.583  13.268  13.631  0.3080  0.1006 -0.1460
17284W        W34132   8.245  13.365   2.875 -0.1771  0.0531 -0.1795
17285W        W34133  11.048   6.589   2.638  0.4739 -0.0533  0.1541
17286W        W34134   3.730   2.620  11.964  0.0446 -0.1308 -0.0840
17287W        W34135   5.458  17.443   0.181  0.1221 -0.0244  0.1888
17288W        W34136  13.656   6.085  11.494 -0.4077 -0.1357 -0.0453
17289W        W34137  14.384  15.857  13.167 -0.0070 -0.0761 -0.0415
17290W        W34138  15.491   3.010   0.707  0.0780  0.0334  0.0116
17291W        W34139  10.737   4.644   0.695 -0.0708  0.3842  0.1521
17292W        W34140   7.477  18.074   5.770  0.1403 -0.1720 -0.1395
17293W        W34141   4.987   1.837   2.548  0.4400 -0.0376  0.2361
17294W        W34142   4.918  10.840  11.764 -0.0332  0.0455  0.0684
17295W        W34143  10.110  10.655  14.010  0.0016 -0.1156  0.4499
17296W        W34144   7.711   7.959  15.596  0.3492 -0.1288  0.1020
17297W        W34145  14.687   4.335  10.663  0.1320  0.1373  0.1800
17298W        W34146   5.617  15.560   2.839 -0.0488  0.0353  0.1809
17299W        W34147  12.223  11.015  10.701  0.1142  0.4399 -0.2004
17300W        W34148  15.584   8.165  11.788  0.0196  0.0770  0.2192
17301W        W34149  18.220  17.715  12.373  0.0211  0.0417  0.1398
17302W        W34150   2.437  13.635  13.272  0.1229 -0.1597  0.0388
17303W        W34151   4.064   3.083  11.998  0.2180 -0.1566  0.0276
17304W        W34152   5.391   7.390  14.448  0.1183  0.2537 -0.1364
17305W        W34153   3.688  12.930   2.120  0.2328  0.1003  0.1861
17306W        W34154  11.059  13.066  10.923  0.0717  0.0441  0.0821
17307W        W34155   9.788  11.013   0.278  0.0316  0.0873 -0.1877
17308W        W34156  11.203   3.461   0.099  0.3430 -0.2382  0.1065
17309W        W34157   2.481   3.459   0.349  0.0224 -0.3000 -0.3975
17310W        W34158   1.565   3.220  14.101 -0.0645  0.3700 -0.1503
17311W        W34159   6.619   0.625   3.191  0.0832  0.2920 -0.1152
17312W        W34160  15.402   3.235   3.675  0.1699 -0.1975  0.2899
17313W        W34161  10.405  13.357  12.208  0.1277  0.1376 -0.2670
17314W        W34162   3.819  12.765  12.504 -0.1166  0.1880 -0.2876
17315W        W34163  16.158  17.298  15.607  0.1074  0.0537  0.3795
17316W        W34164   0.652   8.340   0.218  0.1461 -0.0037  0.1149
17317W        W34165   4.096   7.814  10.849  0.0719  0.0034 -0.0336
17318W        W34166   3.208   5.637  15.411  0.2858 -0.0410 -0.0604
17319W        W34167   8.413  15.134  14.522  0.1499  0.2322 -0.2788
17320W        W34168   1.655   5.968   1.686 -0.1847 -0.1430  0.0036
17321W        W34169   9.788   7.549  15.495 -0.2177  0.0501 -0.0953
17322W        W34170  13.077   0.946  14.028  0.0660 -0.1938  0.0009
17323W        W34171  15.555  17.339   3.628 -0.1135 -0.1457  0.0046
17324W        W34172   8.785  10.916  14.831 -0.0571  0.1100 -0.0431
17325W        W34173  14.396  17.852   4.045 -0.0313  0.1288 -0.0123
17326W        W34174  16.118   0.938   0.580  0.0537  0.0230 -0.0629
17327W        W34175  16.448   6.817  13.139  0.2347  0.0864 -0.0832
17328W        W34176  13.102  17.333  11.510 -0.2462  0.1527  0.0282
17329W        W34177  15.810   0.403   2.402  0.0327 -0.1541  0.0206
17330W        W34178   0.608  18.116  14.631  0.1481 -0.0454 -0.1783
17331W        W34179  12.898   4.871   1.477 -0.3519 -0.0581  0.3423
17332W        W34180   8.852   6.213  10.823 -0.2915  0.1523  0.1205
17333W        W34181  17.925   0.640   1.848 -0.0897 -0.0219 -0.1103
17334W        W34182   9.397  12.400  13.176  0.1053 -0.1537 -0.4461
17335W        W34183  12.643   6.319   2.997  0.1375 -0.1032  0.0413
17336W        W34184  17.458   1.272   1.010 -0.0280 -0.1761  0.1986
17337W        W34185  15.257   3.554   1.031  0.0627 -0.0936 -0.0020
17338W        W34186  10.514   4.289  11.998  0.0268 -0.0266  0.1031
17339W        W34187   9.413  14.161  15.708 -0.0095 -0.0207  0.0516
17340W        W34188  10.261   0.369   4.396  0.0132  0.4043  0.2799
17341W        W34189  13.280   2.234  15.237  0.0400 -0.0368 -0.1014
17342W        W34190   9.834  10.490   2.892 -0.2743  0.0443 -0.0519
17343W        W34191   9.738  10.125   6.298 -0.2318 -0.2645 -0.1855
17344W        W34192  14.072   5.541   5.877 -0.1654 -0.1658  0.4473
17345W        W34193   3.255  11.133   3.674  0.0930  0.2104 -0.1076
17346W        W34194   1.277  15.838  14.659 -0.2260 -0.4303  0.0361
17347W        W34195  16.530  15.509   3.175  0.2688  0.1037  0.1322
17348W        W34196  13.135   0.925   0.731 -0.4008 -0.2583 -0.0251
17349W        W34197  17.196  13.367   3.698  0.0212  0.2662  0.0357
17350W        W34198   7.400   6.676   2.328  0.2703 -0.2621  0.1904
17351W        W34199  11.059   7.530  13.328  0.3822  0.2245  0.2409
17352W        W34200   2.786   6.956  10.828 -0.0689 -0.5816 -0.0574
17353W        W34201   2.391  14.988  13.235  0.0224  0.1528 -0.1595
17354W        W34202   6.546  13.339  14.997 -0.2411  0.0791 -0.3085
17355W        W34203  13.075  14.477   3.842  0.2173 -0.0668  0.0712
17356W        W34204   1.902  16.337   0.167 -0.1114 -0.2666 -0.2336
17357W        W34205   2.247   1.873   3.772 -0.1407 -0.0189 -0.2144
17358W        W34206  15.885  11.346   0.527 -0.1151  0.2063  0.1612
17359W        W34207  13.877   5.323  11.975 -0.2455  0.1267  0.0430
17360W        W34208   6.110  13.573  13.666  0.2012  0.0186  0.0349
17361W        W34209  14.015   2.466   4.396 -0.0925 -0.1485  0.0813
17362W        W34210   7.316  15.389   3.269 -0.1420 -0.0394  0.1236
17363W        W34211   6.157   9.851   6.336  0.0203 -0.0280  0.0568
17364W        W34212  18.197  10.376  14.987 -0.1750 -0.2380 -0.1869
17365W        W34213  13.429   2.132   9.917  0.0805 -0.1799 -0.1050
17366W        W34214  14.958  17.234   3.415 -0.0790  0.1334 -0.4069
17367W        W34215  17.125   6.397   2.480  0.1378  0.0405 -0.0515
17368W        W34216  14.860   8.500   0.924 -0.4636 -0.0592 -0.2220
17369W        W34217  10.138  18.009   0.078 -0.3306 -0.1114  0.1515
17370W        W34218  14.029   7.885   0.254 -0.1291 -0.1432 -0.2702
17371W        W34219  10.982   9.538   3.360 -0.0446  0.0045 -0.0746
17372W        W34220   3.493  11.273  11.278  0.0082  0.3040  0.2513
17373W        W34221  17.816   5.959  15.442 -0.2301 -0.0274  0.3644
17374W        W34222   2.990  11.027  11.424 -0.2245 -0.1896 -0.0980
17375W        W34223   7.143  17.500  15.006  0.1251  0.1193  0.0284
17376W        W34224   0.671   7.799   1.687  0.1194 -0.1823  0.0996
17377W        W34225  12.708  12.747   3.780  0.0037 -0.0518  0.0715
17378W        W34226   1.875   2.809   4.266 -0.0081  0.0308  0.0139
17379W        W34227   4.354   6.163   2.002  0.2241 -0.0806  0.1032
17380W        W34228   1.920   1.365   4.713 -0.1700 -0.0502  0.0731
17381W        W34229   3.554  14.779   3.047 -0.0929 -0.0392  0.0893
17382W        W34230   3.650  17.054   4.998  0.0766  0.0417  0.1054
17383W        W34231  14.090  15.700   0.282  0.2184 -0.0885  0.0941
17384W        W34232   4.437  16.114   3.006  0.0770  0.0479 -0.0701
17385W        W34233   9.054   3.653   2.076 -0.2320 -0.0067  0.1078
17386W        W34234  12.678  10.834   4.426 -0.1270 -0.1282 -0.2952
17387W        W34235   4.039   4.327   2.166  0.0172  0.0779 -0.1702
17388W        W34236  18.203   5.028   3.220 -0.0046  0.0039  0.1025
17389W        W34237   6.377   7.536   3.978  0.1582 -0.2010 -0.1554
17390W        W34238  15.767   5.542   0.894  0.0526 -0.1153  0.1937
17391W        W34239  18.086  14.706  13.789  0.1548  0.0253  0.1567
17392W        W34240   3.962  15.270  11.152 -0.3363  0.3193 -0.4026
17393W        W34241   4.168   7.725   1.628 -0.3555 -0.0805  0.4451
17394W        W34242  12.305  11.778  13.249 -0.2788 -0.1815  0.2524
17395W        W34243   5.313  11.378   2.374 -0.0614 -0.0146  0.1341
17396W        W34244  15.868  17.535   4.302 -0.0555  0.0049 -0.0982
17397W        W34245   0.580   2.642  15.067  0.1726 -0.0823 -0.1743
17398W        W34246   5.876  12.997   3.800  0.2128 -0.1870 -0.1780
17399W        W34247   9.324   4.756   0.874  0.0064  0.0652  0.1282
17400W        W34248   7.643   9.956   4.314 -0.0297  0.1619  0.0005
17401W        W34249   9.565  15.220  14.205 -0.1846 -0.0658 -0.2199
17402W        W34250   8.751   6.499  11.215 -0.3101  0.2212  0.0824
17403W        W34251   7.495  15.628   2.821 -0.1608  0.1194  0.1359
17404W        W34252  12.769  16.121   1.348  0.1417 -0.2489  0.3699
17405W        W34253   8.828  12.406   5.479  0.1373 -0.2419  0.0455
17406W        W34254   3.932   7.401  11.871  0.1493  0.0234 -0.2021
17407W        W34255   6.705  12.710  14.441 -0.1522 -0.1606  0.1878
17408W        W34256   9.076   0.714   1.739  0.1058 -0.1599  0.0137
17409W        W34257   1.990  10.911  15.458 -0.0780  0.0223 -0.2416
17410W        W34258  12.228  14.615  13.841  0.1302 -0.0422  0.4145
17411W        W34259  17.906   9.401   1.903 -0.1602  0.2421 -0.0226
17412W        W34260   9.661  15.665   0.936  0.0792 -0.1156  0.1958
17413W        W34261  11.614   4.452   4.945 -0.1123 -0.0609 -0.1659
17414W        W34262  13.380  17.407   4.045  0.1274  0.2105 -0.1017
17415W        W34263   5.391   3.402  15.225  0.1137 -0.0409  0.1755
17416W        W34264   1.346   8.362   3.718 -0.0365 -0.0108 -0.1936
17417W        W34265   2.337  11.337  13.811  0.3134 -0.1448 -0.1352
17418W        W34266   8.774  12.699   4.153  0.1024 -0.1341 -0.2084
17419W        W34267  10.801   0.236  11.841  0.1579  0.1883  0.1316
17420W        W34268  17.717   6.115  14.668  0.0594  0.0507 -0.0169
17421W        W34269  14.108   9.481   4.724 -0.0556 -0.4125  0.2544
17422W        W34270  17.742   0.683   0.203 -0.1046 -0.1132 -0.1342
17423W        W34271   6.226  15.136   1.086 -0.1801 -0.0148  0.1322
17424W        W34272   1.096   9.552  14.577 -0.3329 -0.0845 -0.2223
17425W        W34273  13.664  11.045  12.213  0.0587  0.0342 -0.0773
17426W        W34274   9.708   1.289  12.747  0.1076  0.1904  0.0406
17427W        W34275   5.712   3.042  15.006 -0.0207  0.2741 -0.1970
17428W        W34276  13.619   1.383   1.593 -0.1915 -0.0131  0.1771
17429W        W34277  10.586  14.340  15.556 -0.1052  0.2342  0.0412
17430W        W34278  11.101  17.122   4.904 -0.0297  0.0526  0.1803
17431W        W34279  13.897   3.204   1.299  0.0579  0.1841 -0.0863
17432W        W34280   7.945  11.023   3.674 -0.5941 -0.1972  0.1570
17433W        W34281   1.394   6.206  16.049 -0.1553 -0.0459 -0.0156
17434W        W34282   5.478   6.064   2.747 -0.0569  0.0561 -0.0672
17435W        W34283   8.160   5.222  14.002 -0.2506  0.4078 -0.0865
17436W        W34284   7.657  13.122  15.360 -0.3593 -0.1324 -0.0061
17437W        W34285   2.072   5.952   4.243 -0.0274  0.0665  0.0758
17438W        W34286   1.551  13.635  14.042  0.0156  0.3207 -0.0246
17439W        W34287   6.569   9.421   2.927  0.0501 -0.2800 -0.1968
17440W        W34288   3.768  11.619  13.961  0.1348 -0.0157  0.1727
17441W        W34289  10.125   1.719   2.514 -0.1267  0.0378 -0.2479
17442W        W34290   1.070   3.813   0.946  0.1879  0.1836 -0.0505
17443W        W34291   0.330   9.188  14.933  0.0706 -0.0205  0.0154
17444W        W34292   6.629  11.022   4.829  0.1979 -0.1471  0.1085
17445W        W34293   5.476   8.683  11.994 -0.1594  0.1417  0.0766
17446W        W34294   9.758  10.168   5.062  0.0433  0.1396 -0.3234
17447W        W34295  11.420  13.790  14.533  0.0744 -0.0545 -0.0365
17448W        W34296   9.622  17.057   0.612 -0.0321  0.0421  0.1928
17449W        W34297  13.952   0.785   1.962 -0.4648 -0.2819  0.0561
17450W        W34298   1.682  16.426   2.442  0.2154 -0.1100 -0.4287
17451W        W34299  15.329   7.541  13.736  0.4360 -0.3049 -0.2148
17452W        W34300   5.641  14.433   5.232  0.1581  0.2360  0.0740
17453W        W34301  15.388   3.713  13.167 -0.2551  0.2224  0.1637
17454W        W34302  17.136  11.750  11.489 -0.2934  0.0736  0.2328
17455W        W34303   0.659   1.904   0.130 -0.2434 -0.1545  0.1104
17456W        W34304   4.080  10.468  12.836  0.2786 -0.0893  0.0833
17457W        W34305   0.809   1.716  14.859 -0.0478 -0.2648 -0.1146
17458W        W34306   4.118  16.270   3.914  0.0468  0.2803  0.0086
17459W        W34307   5.137   9.924  16.024  0.2829 -0.0589  0.0225
17460W        W34308   8.091  11.515  14.974  0.3584  0.0058 -0.0704
17461W        W34309   7.330   9.673   1.874  0.0270  0.1409  0.1642
17462W        W34310   6.668  13.937   1.261  0.5971  0.0417 -0.2641
17463W        W34311  17.650   9.336   3.682 -0.2650  0.1251 -0.0999
17464W        W34312   7.817   8.863   0.917 -0.0203 -0.0094 -0.1133
17465W        W34313  10.004  12.022  11.146 -0.1207  0.3605  0.1114
17466W        W34314  10.313   3.717   0.075  0.1363 -0.0188 -0.1919
17467W        W34315  11.933  17.568   4.861 -0.1511 -0.1349 -0.2340
17468W        W34316   4.119  16.923   4.644  0.1797 -0.0553  0.2086
17469W        W34317   3.604  15.364   0.870 -0.1217 -0.1758 -0.1401
17470W        W34318   5.792  10.336  10.909  0.1654  0.2724  0.0575
17471W        W34319   8.473   7.051  14.171 -0.0992 -0.2365  0.3964
17472W        W34320   7.178   7.517  12.486  0.4238 -0.1246 -0.1283
17473W        W34321   9.030   8.100  12.305 -0.3536  0.0798  0.3567
17474W        W34322  11.808   3.785  12.376  0.1107 -0.0078 -0.2453
17475W        W34323   9.697   0.923   5.119 -0.1067 -0.1107 -0.0000
17476W        W34324   8.326  12.545   3.503 -0.1258 -0.0512  0.0107
17477W        W34325  10.819  16.691   0.347 -0.1123  0.2939 -0.1652
17478W        W34326  17.273   1.951   4.392 -0.0613  0.0677 -0.0423
17479W        W34327   7.527  12.265   4.201 -0.0610  0.0382  0.0006
17480W        W34328  16.939   3.263   3.447 -0.0259 -0.0942  0.2072
17481W        W34329   7.405   7.854   0.332  0.0847  0.1316  0.0498
17482W        W34330   0.273   2.445  12.591  0.2348 -0.0214 -0.0505
17483W        W34331   5.912   7.118  14.395  0.0244  0.0890  0.0312
17484W        W34332   7.710  10.754  12.254 -0.2034  0.2326 -0.2666
17485W        W34333   2.304   3.437   0.822 -0.3243 -0.0427 -0.3557
17486W        W34334   6.270   1.051   0.997  0.1688  0.0447 -0.0986
17487W        W34335   2.782  12.183  13.703 -0.0393 -0.1373  0.1405
17488W        W34336  11.552  17.681   3.643  0.1482  0.0005 -0.0017
17489W        W34337   6.997   7.661   2.187  0.2001  0.0215 -0.0742
17490W        W34338   0.527  13.774   0.732 -0.3080  0.1667 -0.3106
17491W        W34339   1.363   5.127   1.586 -0.2077  0.1088  0.1958
17492W        W34340  13.552   4.324   2.489 -0.5116 -0.0846 -0.1739
17493W        W34341   6.794   8.866  12.814  0.0823 -0.0605  0.0931
17494W        W34342   4.411   3.922  14.195 -0.2542 -0.1011 -0.2568
17495W        W34343  18.191   5.961   3.706  0.1843  0.0992 -0.0788
17496W        W34344   4.703  13.642   4.954  0.0930 -0.2042  0.1041
17497W        W34345   0.505  16.519   2.089  0.3794 -0.0882  0.1146
17498W        W34346  10.233  13.115   2.157  0.0294  0.1601 -0.1028
17499W        W34347  16.827   6.933  13.413 -0.0653  0.1275 -0.0243
17500W        W34348  13.842  14.591  13.005  0.2176  0.1008  0.1210
17501W        W34349  10.504   8.946  12.716 -0.1375  0.0498  0.0928
17502W        W34350   8.810  15.146  13.433 -0.2384 -0.1599  0.3513
17503W        W34351  15.605   6.754  12.097  0.1903 -0.2966  0.0372
17504W        W34352   0.290   5.767  11.519  0.0981  0.0736 -0.1150
17505W        W34353  17.246   3.809   1.947 -0.1337  0.0349  0.1146
17506W        W34354   4.102   7.247  15.202 -0.0696 -0.3254 -0.0391
17507W        W34355   1.782  16.609   4.034 -0.0778 -0.0551  0.0753
17508W        W34356   3.792  11.803   4.273 -0.2272  0.0521  0.1835
17509W        W34357  10.586   8.371  13.205  0.2673  0.0606  0.1402
17510W        W34358   5.888  11.967  13.649 -0.0162 -0.2583  0.2796
17511W        W34359   7.977   5.336  16.060 -0.0959  0.3091  0.2867
17512W        W34360   5.062   0.330  13.530 -0.0489  0.0680  0.2101
17513W        W34361   9.198   5.805  11.557  0.1606  0.0203  0.0644
17514W        W34362   4.434   2.510   4.657  0.3210  0.2756  0.1321
17515W        W34363   9.680  14.036  15.250  0.6234 -0.0227 -0.3737
17516W        W34364  12.006  12.769   5.008  0.1827 -0.2201 -0.2227
17517W        W34365  16.350  14.079  13.048 -0.0016 -0.1745  0.0266
17518W        W34366  15.587   7.284   3.812 -0.0297 -0.1567 -0.1250
17519W        W34367  12.988  14.548  14.907 -0.3139  0.3029 -0.3224
17520W        W34368  14.466   8.078   4.618 -0.1214 -0.0295 -0.1912
17521W        W34369  13.504  10.289  15.397 -0.0300  0.0240 -0.0826
17522W        W34370  14.476  13.902  15.794  0.2542 -0.3463 -0.0929
17523W        W34371   8.965   8.909   3.864  0.3113  0.3119 -0.0173
17524W        W34372  11.575  14.899   1.116  0.0656  0.0366  0.1242
17525W        W34373  15.151  17.289   1.629 -0.2788  0.0282 -0.0266
17526W        W34374   1.821  13.246  13.696 -0.0453 -0.1584  0.0370
17527W        W34375   9.123   8.589  15.433 -0.3019  0.3017  0.0112
17528W        W34376   5.522  15.036  15.856 -0.3883  0.2362  0.0292
17529W        W34377  17.253   3.638  14.178  0.1212 -0.1871 -0.0797
17530W        W34378   6.529  17.306  15.005 -0.3839  0.1065 -0.0788
17531W        W34379   2.202  13.973   2.577 -0.2391  0.0100  0.1882
17532W        W34380  13.155   2.994  15.782 -0.1980  0.2142  0.1472
17533W        W34381   3.870  17.793  13.038 -0.1333  0.6001  0.5911
17534W        W34382   5.951   8.509   1.034  0.1142  0.1723 -0.1962
17535W        W34383   8.570   2.185   1.872 -0.0151  0.0244  0.0897
17536W        W34384   5.044  14.041   4.023  0.0754 -0.0873 -0.1029
17537W        W34385   6.599   4.343  12.263 -0.0069 -0.1472 -0.0973
17538W        W34386   9.584  16.726   0.035 -0.0676  0.0970  0.0744
17539W        W34387  14.046  10.828  11.922  0.2047 -0.1383 -0.0152
17540W        W34388  13.462  14.373   2.849  0.2018 -0.1389 -0.1939
17541W        W34389  12.124  14.773   5.319 -0.3756 -0.1761  0.0624
17542W        W34390  11.729  13.856   2.454  0.2086 -0.0503  0.1382
17543W        W34391   8.757   2.712   5.010  0.1118  0.1934 -0.3246
17544W        W34392  15.528   7.599  15.966 -0.2065  0.1312  0.0621
17545W        W34393  10.405   8.825  14.981 -0.0151  0.0903  0.1322
17546W        W34394  15.800  11.723   4.591 -0.1536  0.1577  0.1072
17547W        W34395   4.761  17.423   2.597 -0.3755 -0.0118  0.4887
17548W        W34396  16.381   6.453  15.994  0.1579  0.2927  0.1161
17549W        W34397  17.581   4.408  15.247 -0.2155 -0.5345  0.0939
17550W        W34398  15.069   2.358  13.381 -0.3595 -0.1452  0.0928
17551W        W34399   4.620  11.786  15.871 -0.2794  0.2101 -0.2052
17552W        W34400  15.528  15.429   0.210  0.2936 -0.2664  0.3621
17553W        W34401  12.048   4.755  12.981  0.2307 -0.0393 -0.0187
17554W        W34402   5.633  14.938  15.349  0.1297  0.1020  0.0422
17555W        W34403  14.173   8.442   2.970 -0.3035 -0.0572  0.0137
17556W        W34404  11.375  10.516   5.355  0.3527  0.1898 -0.1437
17557W        W34405  13.180  16.035  14.553  0.0370  0.1727 -0.1285
17558W        W34406  10.883   5.603  11.839  0.1060  0.1866 -0.4408
17559W        W34407   2.998  16.884   3.186 -0.2080 -0.1536  0.0227
17560W        W34408  11.412  13.704   1.614  0.1045 -0.0189 -0.2345
17561W        W34409  13.547  15.114   3.720 -0.0359 -0.0169 -0.1707
17562W        W34410   6.354  12.436  10.945  0.0312 -0.0785 -0.2195
17563W        W34411   2.200  10.912   1.361  0.2772  0.3448 -0.1535
17564W        W34412   3.950  14.427  10.348 -0.2341 -0.0731  0.0252
17565W        W34413  10.825   0.362  14.414 -0.0030 -0.0401  0.2024
17566W        W34414   5.945   4.373   1.025  0.3136 -0.2262  0.1783
17567W        W34415   9.616  13.006  11.828 -0.2305  0.2002  0.3153
17568W        W34416   7.844   6.609  15.330 -0.1908 -0.1569 -0.3385
17569W        W34417  13.709  15.389   2.540  0.1742  0.0070 -0.0870
17570W        W34418  15.140   5.224  12.178 -0.0620  0.0643  0.3186
17571W        W34419  11.569  13.249  12.330 -0.3950  0.0360  0.1359
17572W        W34420  10.998  15.621  14.223  0.0097 -0.0392  0.2155
17573W        W34421   2.230   9.637  14.010 -0.0940 -0.2572  0.2420
17574W        W34422   9.139  11.991   0.063  0.2952  0.1096 -0.0109
17575W        W34423   7.936   4.134   3.682  0.1240 -0.1377  0.2236
17576W        W34424   0.233   9.027  11.048 -0.0801  0.0021  0.1161
17577W        W34425  12.019   3.173  14.753 -0.1206 -0.0892 -0.0925
17578W        W34426   5.192   9.288   2.436 -0.0638  0.0347  0.3129
17579W        W34427   1.341   6.453  15.225  0.1219 -0.1044 -0.2027
17580W        W34428   3.434   4.833   1.468  0.1697  0.0008  0.2860
17581W        W34429  16.989  12.692   3.055 -0.1557 -0.2854 -0.0139
17582W        W34430   0.810   2.276   0.866 -0.0048  0.1718  0.0441
17583W        W34431  15.568   2.162  12.549 -0.2795 -0.3040 -0.0259
17584W        W34432  16.967   0.938  10.951 -0.4929  0.1981 -0.2311
17585W        W34433   7.980  15.885  12.810 -0.0341  0.0719  0.1657
17586W        W34434  10.005   7.387  12.865  0.1096 -0.2586 -0.1916
17587W        W34435   5.675   9.953   1.467 -0.3410  0.1635  0.2702
17588W        W34436   1.140   0.747   4.463  0.3798  0.0985  0.2732
17589W        W34437  11.096   1.819   4.142 -0.0490 -0.0906 -0.3488
17590W        W34438   8.563  12.925  15.139  0.2022 -0.0214 -0.1521
17591W        W34439  16.593  10.718   2.258 -0.0509 -0.1312  0.2242
17592W        W34440   3.998   4.154   0.533  0.0561 -0.2204 -0.1734
17593W        W34441   6.336  11.865  10.364 -0.0960 -0.0589 -0.0707
17594W        W34442   1.458  16.270  15.896 -0.1228 -0.0907  0.1815
17595W        W34443  17.058   9.469  13.002 -0.1729  0.0610 -0.1029
17596W        W34444  16.616  17.623   2.740 -0.1921 -0.1256  0.0668
17597W        W34445  10.793   7.904  15.658  0.0072  0.0035  0.1591
17598W        W34446   2.458   6.257  14.160  0.0593 -0.0486 -0.1487
17599W        W34447   1.360  10.516   0.252 -0.1214  0.0513 -0.2686
17600W        W34448  12.222  13.794   3.797 -0.0116 -0.2252  0.4594
17601W        W34449  17.526  14.484   4.483 -0.0763 -0.1593 -0.0846
17602W        W34450  14.978   0.271  10.686 -0.3947  0.1357  0.4042
17603W        W34451   8.733  10.582  13.399 -0.1100 -0.0456 -0.1396
17604W        W34452   5.313  17.278   0.976 -0.0535  0.1163  0.0024
17605W        W34453   2.188   7.803   2.036 -0.2173 -0.0389 -0.0909
17606W        W34454  12.410  17.117  13.222  0.3021  0.2897  0.0750
17607W        W34455   7.410   5.773   0.954  0.2875  0.0942  0.0690
17608W        W34456  12.079   4.562   2.812  0.0785  0.1763 -0.2262
17609W        W34457  12.844  16.746   2.986  0.0159  0.0451 -0.1734
17610W        W34458   3.308   4.121  12.972  0.0621 -0.2388 -0.2883
17611W        W34459  14.672  17.502   1.682 -0.1141  0.0868  0.0853
17612W        W34460   4.461   0.340  14.841  0.1875  0.1203 -0.0329
17613W        W34461  11.588  13.795  12.536  0.3660  0.1015 -0.2459
17614W        W34462  16.758  13.944  13.936  0.3893 -0.2198 -0.1548
17615W        W34463   3.800  17.541  10.038  0.2207  0.1215 -0.0497
17616W        W34464  11.346  10.231  13.259 -0.0056  0.0080 -0.5138
17617W        W34465   3.562   3.990   4.446 -0.2284 -0.2026  0.1503
17618W        W34466  12.668   4.626   2.207  0.0987 -0.0897  0.4318
17619W        W34467  14.129  10.989   3.382  0.2521 -0.2027  0.0250
17620W        W34468  16.692   8.199   3.951  0.1639  0.0692  0.1750
17621W        W34469  12.318   4.981   5.099 -0.2175 -0.4055 -0.5083
17622W        W34470   4.578   1.886  13.046 -0.2529  0.1648 -0.0811
17623W        W34471  15.207   4.937  12.580  0.4928 -0.1270  0.0130
17624W        W34472  16.740   8.894  11.849 -0.0978 -0.1704 -0.0898
17625W        W34473   3.610  17.295  15.270  0.1222  0.1456  0.2682
17626W        W34474   9.096   9.632  11.155 -0.1441  0.0255 -0.0704
17627W        W34475  12.720   4.444   1.179 -0.2105 -0.2092 -0.0008
17628W        W34476   8.310  17.220   4.395  0.1006  0.0634  0.0388
17629W        W34477  15.708   6.780  15.467 -0.2209  0.0140  0.2657
17630W        W34478  14.867  15.388  15.048 -0.1954 -0.2910  0.1352
17631W        W34479   9.086  15.428   2.352  0.0338 -0.1092  0.0657
17632W        W34480   4.103  17.209  12.445  0.0244 -0.3270 -0.1621
17633W        W34481   0.385   8.119   2.975 -0.1726  0.0257  0.1794
17634W        W34482  10.581  10.833   1.384  0.1156 -0.2174 -0.0348
17635W        W34483  17.843  15.121  11.945 -0.2409 -0.0635 -0.0846
17636W        W34484   8.955   8.872  16.059  0.0061 -0.0881 -0.1464
17637W        W34485   3.581  15.851  12.522  0.1396 -0.1031  0.5685
17638W        W34486   9.269   2.847   1.958  0.1817  0.0920 -0.0855
17639W        W34487  14.293   6.294  12.881 -0.1820  0.0247 -0.2876
17640W        W34488   1.298   9.834   3.586  0.0852 -0.0609  0.3724
17641W        W34489  18.192  13.917  11.600 -0.0743 -0.1563 -0.0560
17642W        W34490  10.279  13.990  11.514 -0.0347  0.1199  0.0373
17643W        W34491   6.844   1.153  13.799  0.0532  0.0090  0.3167
17644W        W34492  14.638   6.718  16.081  0.0091  0.0785 -0.0578
17645W        W34493  13.500  16.214   0.912  0.0858 -0.0325  0.0191
17646W        W34494  16.743  16.165  15.406 -0.0604  0.1546  0.3638
17647W        W34495  18.123   3.858   0.868 -0.1678  0.0237  0.3161
17648W        W34496   7.626  15.811  13.735  0.1164  0.0269 -0.0115
17649W        W34497   3.833  10.089   2.453 -0.1748 -0.3338 -0.1919
17650W        W34498  17.837   7.877  15.107  0.0860 -0.0344  0.1134
17651W        W34499   0.118   0.037   4.232  0.1663  0.2448  0.0853
17652W        W34500  13.010   8.866  11.990 -0.1403  0.0021  0.1857
17653W        W34501  16.103  13.156   3.522  0.1844 -0.0056  0.0375
17654W        W34502   3.985   1.886   0.858 -0.0307 -0.1494 -0.1409
17655W        W34503   3.314   5.134  15.770 -0.1699  0.0309 -0.1555
17656W        W34504   1.610   1.670   0.481  0.0804  0.0839 -0.1728
17657W        W34505   1.587   5.949  14.816  0.3181  0.2691  0.0272
17658W        W34506   5.080   5.751   3.228  0.0900  0.2002 -0.0741
17659W        W34507   1.483   3.314   4.068  0.0170  0.1487  0.0987
17660W        W34508  11.049   6.464   4.777 -0.2547 -0.3031 -0.0153
17661W        W34509   0.975   9.279   1.002 -0.0033  0.0670 -0.1010
17662W        W34510  13.604   9.445   1.454 -0.1367  0.4253  0.1231
17663W        W34511  15.744   4.298  12.086 -0.0771 -0.2275  0.1239
17664W        W34512  11.642   7.510   2.769  0.1180 -0.2571  0.2915
17665W        W34513  10.148   0.344   0.196 -0.0333 -0.1497 -0.1339
17666W        W34514  13.222   4.250  12.026  0.0119  0.1764  0.0370
17667W        W34515   3.040   1.461   0.225  0.1259  0.0125  0.0416
17668W        W34516   7.575  13.914   2.546 -0.2392  0.1527  0.0147
17669W        W34517  12.712   4.976  14.997  0.2053 -0.1504 -0.3006
17670W        W34518   5.052   8.975   3.860  0.1958  0.2043  0.5302
17671W        W34519  13.371   0.842   2.410 -0.1040 -0.1840  0.1085
17672W        W34520   0.700  14.048  15.273  0.3695 -0.0153 -0.2402
17673W        W34521  12.705   7.370   5.180 -0.1538  0.0069  0.2442
17674W        W34522   8.539  11.735  15.040  0.1445 -0.2341 -0.0829
17675W        W34523   2.808   8.926  12.964 -0.0056 -0.0037  0.0257
17676W        W34524   3.480   5.796   1.792 -0.0446 -0.1300  0.1927
17677W        W34525  18.027  16.878  13.600  0.1121 -0.0595  0.0354
17678W        W34526   7.012   2.739  11.709 -0.2107 -0.2460 -0.0940
17679W        W34527   7.180   4.519   2.321 -0.1442 -0.1233 -0.0361
17680W        W34528  16.705   1.025  13.934 -0.0854 -0.0908  0.2463
17681W        W34529  13.420  14.323  14.736  0.0614  0.0747 -0.1611
17682W        W34530  13.498  17.503   3.092 -0.0583  0.0398  0.1531
17683W        W34531  15.683   5.073   2.624  0.0553  0.0261 -0.1488
17684W        W34532   4.738  16.001  13.056  0.2365 -0.0748  0.2651
17685W        W34533  10.584  17.587   0.838 -0.0196  0.1768 -0.1267
17686W        W34534   8.302   4.483   1.232  0.0562 -0.1001 -0.0271
17687W        W34535  13.695   8.774  13.938  0.5273 -0.2855  0.4780
17688W        W34536   7.038  10.459  15.515  0.0797 -0.0994  0.0159
17689W        W34537  18.009  10.032  14.053 -0.0629 -0.0582 -0.0607
17690W        W34538   8.831  13.827   1.334  0.1139 -0.0994  0.0879
17691W        W34539  11.878  13.106   5.371  0.0598  0.0138 -0.0317
17692W        W34540   5.593  10.547   3.395 -0.0360 -0.2001  0.0171
17693W        W34541  12.719  17.107  14.728 -0.1823  0.1024  0.2595
17694W        W34542  13.723   7.206  12.100 -0.4007 -0.0060 -0.1454
17695W        W34543   1.042   5.008   4.020 -0.4402  0.0581 -0.1489
17696W        W34544  12.090   0.428   2.935 -0.2037  0.3246  0.2348
17697W        W34545  14.179  13.485  15.507 -0.0915  0.0765 -0.0652
17698W        W34546   7.990  15.288  15.395 -0.0264 -0.1177  0.1272
17699W        W34547  11.432   8.336   0.195 -0.1593 -0.0316 -0.0828
17700W        W34548   4.178   5.354  12.304  0.1094  0.1153  0.0093
17701W        W34549  14.620  17.920  13.799  0.2933 -0.0211  0.1877
17702W        W34550  12.629  14.581   3.550  0.0522 -0.3802 -0.2276
17703W        W34551   7.203  13.137  13.379  0.0301 -0.4805 -0.1319
17704W        W34552  10.786   8.421   3.453 -0.1111 -0.2364 -0.1965
17705W        W34553   2.177   9.961   4.634  0.2412  0.1137 -0.4008
17706W        W34554   5.416   9.378   3.150  0.0577 -0.0052  0.0810
17707W        W34555  11.851  10.535  13.839 -0.0010  0.2582  0.1536
17708W        W34556  13.044   6.639  12.963  0.2013  0.0464 -0.0414
17709W        W34557   0.086   7.822  13.619 -0.1636 -0.2313  0.1219
17710W        W34558  11.126   2.134  13.912 -0.0901  0.1289 -0.3582
17711W        W34559  10.257   0.305  14.133 -0.0822 -0.2108  0.1228
17712W        W34560  15.957  11.682  12.723  0.0729  0.1918 -0.0869
17713W        W34561  17.804  12.764  15.737  0.0422  0.0913 -0.0137
17714W        W34562  11.576   6.644  12.216 -0.0398 -0.2721  0.3299
17715W        W34563  10.374  18.029   0.970 -0.1080  0.3075  0.1503
17716W        W34564  12.251   2.249  10.966  0.2311  0.0476 -0.3030
17717W        W34565  17.864   6.294  11.112  0.1369  0.2564  0.1351
17718W        W34566   4.388   2.343   3.398 -0.1590  0.1735  0.3795
17719W        W34567   5.981  15.118  13.922  0.0175 -0.0713  0.0169
17720W        W34568  10.341  15.983  14.797  0.0299 -0.2150 -0.0036
17721W        W34569   8.702  13.138  11.830  0.0026 -0.0291  0.3538
17722W        W34570   5.031  14.810   3.090  0.2358  0.0074 -0.2333
17723W        W34571   0.872  16.661  10.601  0.1240  0.0009 -0.2647
17724W        W34572  12.819   8.030   4.964  0.3243 -0.3034 -0.1600
17725W        W34573  11.134   5.399   3.529 -0.0039 -0.2144  0.0317
17726W        W34574   3.778   4.872   4.260  0.1220  0.0778  0.4967
17727W        W34575  13.059  12.397  15.223  0.0728  0.0673  0.0755
17728W        W34576  16.270  10.440   2.580 -0.2043  0.0834 -0.1384
17729W        W34577  13.483   6.888   1.507  0.0901 -0.1019 -0.0693
17730W        W34578  14.151   6.632  15.364 -0.0404  0.1774 -0.0821
17731W        W34579   3.932  12.180   3.178 -0.1343 -0.0232  0.0099
17732W        W34580  11.468   5.067  15.651 -0.0118  0.2021  0.1946
17733W        W34581   9.148  12.890   5.769  0.0723  0.0616 -0.3111
17734W        W34582   7.557   0.064   3.140  0.0125  0.0208  0.1237
17735W        W34583   9.862  15.238  13.128  0.3227 -0.0600 -0.0092
17736W        W34584   1.932   7.773   1.492  0.0902  0.0824 -0.1275
17737W        W34585  14.239  16.809  12.732  0.0944  0.1267 -0.0199
17738W        W34586  12.065   0.006  11.462  0.1210  0.0908  0.1524
17739W        W34587  11.592  15.688  13.603 -0.1018  0.0473 -0.0339
17740W        W34588  15.442  11.764  14.990  0.1365  0.0051  0.1031
17741W        W34589   0.069  11.576  15.252 -0.0007 -0.0567  0.3475
17742W        W34590  11.443   5.189   4.417 -0.1693  0.2784  0.4063
17743W        W34591  15.078   0.262   3.606 -0.0147  0.1005 -0.1300
17744W        W34592   5.325  16.762   0.373  0.1255 -0.0989 -0.3100
17745W        W34593  13.356  15.369   3.265  0.2030  0.2206 -0.1061
17746W        W34594  11.695   2.076   2.828 -0.2202 -0.0341 -0.3551
17747W        W34595   8.452   7.665   2.284  0.5305  0.4797 -0.2119
17748W        W34596  12.866  12.943   3.364 -0.0202 -0.4091 -0.1432
17749W        W34597   7.210  10.302  11.626  0.2928 -0.1366 -0.3919
17750W        W34598  17.161   6.346  11.176 -0.0208 -0.3317  0.0459
17751W        W34599  17.816   8.182   4.172 -0.3105  0.4776  0.0683
17752W        W34600  14.763   2.667  15.416  0.1462  0.1399 -0.1569
17753W        W34601   9.436   8.935   0.067  0.1372  0.2399  0.2538
17754W        W34602   7.243  15.156   0.547  0.0236 -0.0653 -0.1952
17755W        W34603   6.259   7.959  13.704 -0.1321 -0.0088 -0.0492
17756W        W34604   6.125  17.058   3.753 -0.0853 -0.0062  0.0856
17757W        W34605  17.621   0.727  14.127  0.0491  0.1141 -0.0921
17758W        W34606   4.923   7.553  15.610  0.2781 -0.0394 -0.0185
17759W        W34607   3.080  17.959   3.048 -0.0063  0.1803  0.1176
17760W        W34608   7.175  11.903   0.652 -0.1801 -0.2021 -0.1037
17761W        W34609  11.180  12.394   4.934  0.3009 -0.2605 -0.4113
17762W        W34610   4.656  11.121  12.867 -0.1105  0.3038  0.1163
17763W        W34611   9.724   5.535   4.135 -0.1065 -0.0850 -0.2223
17764W        W34612   0.391  10.313  15.947  0.2191 -0.0690  0.1104
17765W        W34613  10.901   5.008  12.594  0.3986  0.0670  0.1761
17766W        W34614  16.740   8.322   0.620  0.0234 -0.1636 -0.0404
17767W        W34615   8.806   5.750   5.222 -0.0496  0.1078 -0.3122
17768W        W34616   3.296  17.363   1.886 -0.0978  0.1084  0.1381
17769W        W34617  10.682  15.343  12.653  0.4023  0.2486 -0.1310
17770W        W34618  16.970   9.164   4.033  0.2789  0.0999 -0.2661
17771W        W34619   3.212   4.691   2.504 -0.1821 -0.1123 -0.0135
17772W        W34620  11.053   7.444  11.888  0.1592  0.1116 -0.3414
17773W        W34621   4.592   3.036   2.438 -0.1136 -0.1071  0.1826
17774W        W34622   0.500   3.545  15.402  0.0585 -0.2422 -0.3519
17775W        W34623  11.720  16.598  12.851 -0.0568 -0.2142  0.1585
17776W        W34624   7.572   9.162   3.993  0.2262  0.1519 -0.1990
17777W        W34625  13.178  16.381   3.196 -0.1338 -0.4726  0.1388
17778W        W34626   6.651   7.082  15.356  0.1190 -0.3623 -0.2850
17779W        W34627   1.164   4.857  11.639  0.1964 -0.1617  0.1067
17780W        W34628  12.725  17.492  13.264  0.1386 -0.0136 -0.2671
17781W        W34629  15.448   5.883   1.295  0.1244 -0.2970 -0.3945
17782W        W34630   5.865   4.010  13.917  0.0378  0.0002  0.0325
17783W        W34631   0.288   6.872  13.558  0.1763  0.3164  0.0150
17784W        W34632  10.376   8.539   1.362  0.0122 -0.1897  0.4649
17785W        W34633   1.108  12.686  11.870 -0.1033  0.0051 -0.0478
17786W        W34634  14.648  11.287   4.070  0.0598 -0.1128 -0.0213
17787W        W34635   8.625   0.485  13.615  0.1601  0.0695 -0.0155
17788W        W34636  17.106   5.146  14.641  0.0331 -0.0955 -0.4109
17789W        W34637  13.606  10.652  15.729 -0.0433 -0.0184  0.1423
17790W        W34638  17.585   4.259  15.926 -0.1821  0.2564  0.2978
17791W        W34639  17.248   8.323   5.160  0.0406  0.2179 -0.2219
17792W        W34640   4.290  16.621   4.254 -0.4438 -0.0807 -0.2344
17793W        W34641  13.529   5.302  15.751  0.4720  0.1681 -0.1258
17794W        W34642   7.535   9.971   2.691  0.0889  0.0826 -0.2502
17795W        W34643  11.213   2.608  15.207  0.0676 -0.1890  0.2321
17796W        W34644   9.152   4.883  12.027  0.3831  0.1426  0.2039
17797W        W34645   8.053  18.211  14.415  0.0072  0.2204  0.3798
17798W        W34646  11.411   7.908   2.586  0.3424 -0.1109 -0.2409
17799W        W34647   5.746   9.454   2.326  0.4091  0.2040  0.1350
17800W        W34648  17.038   1.694  11.794  0.2278  0.1242 -0.0108
17801W        W34649  12.733  15.338  11.481 -0.0782 -0.0895  0.0113
17802W        W34650  13.266   5.657   3.066  0.3689  0.0554  0.1273
17803W        W34651  16.811  16.125  14.409 -0.0146  0.1261  0.1842
17804W        W34652  16.070   6.051  14.203  0.0090  0.1122  0.1068
17805W        W34653  12.134   2.274  13.441 -0.0175 -0.1597  0.1937
17806W        W34654   2.666  16.027   0.449 -0.0048  0.1129  0.1261
17807W        W34655   1.187  14.257  13.982 -0.2467  0.1029 -0.1880
17808W        W34656  12.203   1.349  10.758 -0.2215 -0.1974  0.0605
17809W        W34657  14.924   7.098   3.477 -0.1546  0.1583  0.0045
17810W        W34658   3.301  14.324   1.517  0.3307 -0.3313 -0.0150
17811W        W34659  10.489   0.557   3.989  0.0344 -0.1620 -0.2212
17812W        W34660  12.834   6.305   0.384 -0.2201  0.3709  0.0536
17813W        W34661  11.030   7.282   5.546  0.1737 -0.0761 -0.1906
17814W        W34662  12.252  10.418   5.237 -0.0934  0.0277 -0.1316
17815W        W34663   2.286   7.443   5.846 -0.0496 -0.0611 -0.1633
17816W        W34664  17.162   8.811   4.341 -0.1055  0.0954 -0.0206
17817W        W34665   6.562  11.994   3.036  0.2605 -0.0244  0.0184
17818W        W34666   9.987  13.705   2.786 -0.2479 -0.0481 -0.0732
17819W        W34667  10.470   0.677  14.781  0.3598  0.2552 -0.2963
17820W        W34668  13.080  17.149  12.546 -0.1703  0.3264  0.2712
17821W        W34669   1.198  13.882  11.395 -0.2395 -0.0589 -0.1714
17822W        W34670   7.053  10.670   4.867  0.2045  0.2111  0.2177
17823W        W34671   4.808   6.248  15.167 -0.0956 -0.3733 -0.1385
17824W        W34672  13.045   9.974  15.525  0.0082  0.3412 -0.0534
17825W        W34673  17.385  16.339  12.595 -0.1733 -0.0563 -0.0133
17826W        W34674   5.943   0.114   4.194 -0.4451  0.0285  0.1065
17827W        W34675   4.471  17.881   0.033 -0.3854  0.0617 -0.1484
17828W        W34676  13.258  12.450   3.811  0.2337 -0.1324 -0.1293
17829W        W34677  10.316   2.887  13.395  0.3066  0.0058  0.1994
17830W        W34678   2.024  11.816  10.902  0.0925 -0.1599 -0.0418
17831W        W34679   2.675   1.393  15.746  0.0235 -0.2172  0.0853
17832W        W34680   0.584  17.789  15.648  0.0516  0.0212 -0.0354
17833W        W34681   9.986   6.379   4.174  0.1453  0.2961 -0.2173
17834W        W34682  16.882  15.782  10.509  0.1775  0.1634  0.3198
17835W        W34683  15.097   2.255   4.071  0.0049 -0.0137 -0.2209
17836W        W34684  10.415   4.190   2.239  0.0736 -0.1536 -0.3370
17837W        W34685  14.117   3.930   1.150 -0.0614 -0.0443  0.2484
17838W        W34686   1.742  14.727   2.908  0.3265 -0.0622 -0.0827
17839W        W34687   7.072   7.415  15.260 -0.6102 -0.1808  0.1546
17840W        W34688   7.393  17.853  11.738  0.1435  0.1851  0.1055
17841W        W34689   3.514  17.490  13.140  0.1755  0.0380  0.0899
17842W        W34690  11.823  11.976  13.663 -0.0090  0.4121 -0.0218
17843W        W34691  14.289   9.578  14.457  0.0392  0.1562 -0.0498
17844W        W34692   5.513  10.094   3.205 -0.0210  0.1024  0.2319
17845W        W34693  11.034  12.244  15.255  0.0790  0.0193  0.0303
17846W        W34694  12.293  11.920   1.168 -0.1451 -0.0247  0.1539
17847W        W34695   2.117   9.150   0.829  0.0897  0.0367  0.1205
17848W        W34696   3.481   7.654  11.949 -0.0999 -0.2647 -0.1197
17849W        W34697  11.328   6.021   3.716  0.1025 -0.0338  0.0365
17850W        W34698  14.552   0.330  12.394 -0.1142  0.1564 -0.0372
17851W        W34699   9.395   7.668  11.399  0.1455  0.0146  0.1381
17852W        W34700  13.217  12.205  12.453  0.0078 -0.1857  0.2459
17853W        W34701  15.231   7.583   2.523  0.0287 -0.0185 -0.1011
17854W        W34702  16.230   8.378   1.413  0.0108  0.2312  0.0171
17855W        W34703  15.793  10.425   1.679 -0.4093 -0.1615 -0.0774
17856W        W34704  15.075  17.096   2.317  0.1852 -0.0054  0.2817
17857W        W34705  11.226   5.938   1.014 -0.1601  0.2019  0.0214
17858W        W34706   8.333  10.258   5.197 -0.0871  0.1259  0.2679
17859W        W34707   1.114  14.849   1.890 -0.1847 -0.5139 -0.0232
17860W        W34708   5.626  17.570   3.090  0.2318 -0.2350 -0.1480
17861W        W34709   8.588  16.579  11.432 -0.1555  0.1976  0.3477
17862W        W34710   5.508  14.107   3.866  0.4875 -0.0545 -0.2055
17863W        W34711  15.950  12.781   4.389 -0.1695 -0.1845  0.0902
17864W        W34712   8.310   3.102   2.866  0.1711  0.2802  0.2381
17865W        W34713   9.908  10.223  14.559 -0.1675 -0.1351  0.2593
17866W        W34714  11.121   6.749   4.019 -0.1140 -0.1970  0.0068
17867W        W34715   0.388  14.573   1.320 -0.2968  0.1086  0.1470
17868W        W34716   1.078  15.526   0.234 -0.0762 -0.0634 -0.0986
17869W        W34717  14.487   4.481   3.880 -0.2370 -0.3381 -0.3135
17870W        W34718  13.473  10.585   0.644  0.2893  0.0660 -0.2442
17871W        W34719   5.358   5.422  15.271 -0.2087 -0.0952  0.2642
17872W        W34720   8.857  12.016  15.404 -0.2526 -0.0312 -0.0656
17873W        W34721   5.128  10.818  12.706  0.4801 -0.1562  0.1756
17874W        W34722  14.500   7.206  13.539 -0.2218 -0.3418 -0.0168
17875W        W34723  17.992   4.355  13.958  0.0529  0.0115 -0.0734
17876W        W34724  13.099   9.960   0.940 -0.0770 -0.0847  0.4816
17877W        W34725   8.348   5.855  11.788 -0.1156 -0.0424  0.1766
17878W        W34726  14.872  10.063  13.471 -0.1854  0.1226 -0.0091
17879W        W34727   3.010  11.868  10.299 -0.1448 -0.1169 -0.1403
17880W        W34728  14.348  14.067  11.991  0.2207 -0.2042 -0.1294
17881W        W34729  17.456  17.107   3.932 -0.1078  0.1675  0.0371
17882W        W34730   0.657  17.467   2.191  0.1799  0.1368  0.0061
17883W        W34731   8.930   1.640  11.735  0.1247 -0.0952 -0.2390
17884W        W34732   3.546  13.602   2.921  0.1925 -0.4062  0.0048
17885W        W34733   4.234  10.800   3.479 -0.2269 -0.0294 -0.0597
17886W        W34734   7.675  11.695  15.277 -0.0595 -0.2321 -0.3316
17887W        W34735   1.855  16.156  14.865  0.3287  0.1935 -0.0568
17888W        W34736   0.945   0.377   1.225 -0.0440  0.1588 -0.0409
17889W        W34737   3.662  17.382   0.996 -0.1792 -0.2096 -0.1274
17890W        W34738  17.832   6.973  11.508  0.0523 -0.2738 -0.1818
17891W        W34739  11.126  16.629  11.950  0.0638  0.2190  0.1650
17892W        W34740  17.813   6.876  10.964  0.1722 -0.0713 -0.1363
17893W        W34741   6.953   1.408  14.183 -0.3138  0.1614 -0.2233
17894W        W34742   6.570  12.394   3.636  0.1207 -0.0627 -0.2722
17895W        W34743  16.753  15.477   5.953 -0.0332 -0.1255  0.0521
17896W        W34744   3.950   1.269  12.660  0.0385 -0.3805 -0.2855
17897W        W34745  14.872   3.613  15.481  0.1281  0.1954  0.4116
17898W        W34746  17.675  15.972  11.823 -0.1186  0.1480  0.0294
17899W        W34747   9.323   1.535  10.164  0.1761 -0.3673 -0.0403
17900W        W34748   1.481  13.856   5.909 -0.1369 -0.1697 -0.1461
17901W        W34749   0.287   9.611  15.818  0.1876 -0.1387  0.1691
17902W        W34750  17.619  10.364  14.822  0.1879  0.0074  0.4907
17903W        W34751   2.363  10.810  15.152  0.0120  0.0205 -0.1058
17904W        W34752   7.154   1.875  14.232  0.0137 -0.2873 -0.2703
17905W        W34753   9.715   6.979  15.848 -0.4022  0.0460 -0.0010
17906W        W34754   5.935   8.951   1.212  0.0409 -0.2884 -0.0605
17907W        W34755   5.761   8.533   4.213  0.1875  0.0346 -0.1219
17908W        W34756   0.145  14.029  13.314 -0.0808  0.0263  0.1822
17909W        W34757  10.293  13.712   4.680  0.0609  0.0336 -0.0990
17910W        W34758  15.618  16.087  14.908  0.1121  0.0002  0.1334
17911W        W34759   1.668   9.965  16.018  0.0887 -0.4533 -0.0320
17912W        W34760   1.423   7.065   2.709  0.0495 -0.1026  0.1537
17913W        W34761   2.757   1.970   3.486  0.2513 -0.0425  0.5066
17914W        W34762  16.943  16.628  14.635  0.1584 -0.1948 -0.1752
17915W        W34763   4.159   9.551   3.806  0.0214  0.0020  0.3361
17916W        W34764   4.439   8.380  15.584 -0.0007 -0.1055 -0.0369
17917W        W34765  16.558   6.827   4.942  0.0267 -0.1918 -0.0661
17918W        W34766   6.545   9.776  13.741  0.1772 -0.0558  0.1100
17919W        W34767   8.426   6.962   4.678  0.0507  0.0089 -0.0918
17920W        W34768  18.092  13.067   4.397  0.0558 -0.2142 -0.1601
17921W        W34769   4.508  10.102  12.934 -0.1593  0.3011  0.0706
17922W        W34770   5.510   5.576   3.443 -0.0615 -0.2989  0.3741
17923W        W34771  16.735  12.409  12.834  0.3654  0.0163  0.2245
17924W        W34772  10.120   5.452  14.476 -0.1256 -0.0865 -0.3396
17925W        W34773   0.792   5.461   3.081 -0.1217 -0.0602  0.2012
17926W        W34774  10.385   0.788   0.203 -0.2103 -0.3130  0.2346
17927W        W34775   9.508   7.195   1.737  0.1525  0.2062 -0.2797
17928W        W34776  13.563   0.356   2.598 -0.3000 -0.1638 -0.0574
17929W        W34777   4.803  15.218   0.122  0.3920  0.0288 -0.0550
17930W        W34778  11.810   8.400  13.899 -0.0628 -0.1866 -0.1074
17931W        W34779  13.217   5.888   2.087  0.3385 -0.1580 -0.1129
17932W        W34780   7.285   6.239   0.805  0.2204 -0.0300 -0.1296
17933W        W34781   3.427   2.349  13.569  0.1694 -0.1250  0.0012
17934W        W34782   7.283   4.761  12.731  0.0348 -0.1430 -0.4155
17935W        W34783   5.181   3.826  14.574 -0.2328 -0.2283  0.2041
17936W        W34784  13.877   6.250  15.747 -0.0240 -0.1440 -0.0765
17937W        W34785  17.323   7.261   2.633  0.1244 -0.0655 -0.2286
17938W        W34786   7.692  12.078  13.369  0.0771 -0.0392  0.0874
17939W        W34787  14.053   8.643  13.580  0.0542  0.0101 -0.0884
17940W        W34788   1.710   9.542   1.606 -0.1565  0.2281  0.1143
17941W        W34789  14.977   4.016   1.404  0.1596 -0.0776  0.1235
17942W        W34790   4.976   1.890  13.396  0.4735 -0.1137  0.0332
17943W        W34791  17.011   5.282  15.502 -0.0086 -0.1775 -0.1261
17944W        W34792  11.455  10.036   5.469  0.0620 -0.2481  0.1896
17945W        W34793  12.189  12.133   3.735  0.3253  0.0081 -0.1381
17946W        W34794   6.414   0.751   2.734 -0.1173 -0.0549 -0.2084
17947W        W34795  12.365  17.079  11.899 -0.3608  0.0170  0.1181
17948W        W34796   0.898  13.108   2.792  0.0140 -0.0929 -0.2562
17949W        W34797  13.581  17.246  15.958 -0.0993  0.1172 -0.4234
17950W        W34798  14.032   1.584  13.042 -0.3609 -0.0943  0.3803
17951W        W34799  15.572   9.418   2.667 -0.0780 -0.3912  0.0856
17952W        W34800   6.956  10.079  15.801 -0.0435  0.2368  0.2007
17953W        W34801   9.650   2.542  12.379 -0.1325 -0.0091  0.0940
17954W        W34802   7.813   1.077   2.230  0.0024 -0.0731  0.0185
17955W        W34803  13.098  14.993  11.347 -0.2447 -0.0282  0.1548
17956W        W34804   0.852  12.877   2.340 -0.1578 -0.1421  0.3258
17957W        W34805   8.083   9.279   3.946 -0.3672 -0.0763 -0.2807
17958W        W34806   4.748  15.623  12.691 -0.3173  0.5066 -0.0205
17959W        W34807   9.353  15.636  11.013 -0.1909 -0.0884  0.1533
17960W        W34808  14.101   8.995   5.073 -0.1730 -0.4176  0.1421
17961W        W34809  14.665   8.612   4.581  0.4215 -0.0740  0.0606
17962W        W34810  15.596   5.454   4.272 -0.1670  0.1426 -0.0881
17963W        W34811   5.763   8.218  13.233 -0.0589  0.3331 -0.1374
17964W        W34812   8.812  17.960  14.514  0.3250  0.0370 -0.1922
17965W        W34813  13.972  15.631   1.566 -0.1964 -0.4156 -0.0953
17966W        W34814   9.905  12.319   5.486 -0.0962  0.0262  0.1368
17967W        W34815  16.467  10.955   3.914 -0.0659 -0.0159 -0.0078
17968W        W34816  10.657   1.808  14.872 -0.1153  0.2869  0.0310
17969W        W34817  15.973   8.090  11.014 -0.0682 -0.1223  0.0949
17970W        W34818   0.984  16.440   1.266  0.2720 -0.1670  0.1850
17971W        W34819  10.397   5.082  12.530  0.0798  0.1412 -0.1548
17972W        W34820   8.372  14.197   1.129  0.1428 -0.0116  0.1338
17973W        W34821  11.916  15.758  14.627 -0.0665 -0.0842  0.4318
17974W        W34822  15.842  14.740  10.838  0.0579  0.0287 -0.2682
17975W        W34823  17.412   1.618   1.737 -0.1599  0.2321 -0.1370
17976W        W34824  12.986   2.470   9.821  0.0188  0.1803  0.1688
17977W        W34825   2.556   2.431  12.379  0.0915  0.1800  0.0235
17978W        W34826   6.400  13.691   4.026  0.2487  0.1952 -0.1727
17979W        W34827  12.247  12.197  12.329  0.2205 -0.2477  0.2463
17980W        W34828   0.478  11.432  15.520  0.0057  0.1033  0.0820
17981W        W34829   8.822  11.689  10.881  0.1603  0.1235 -0.3643
17982W        W34830   8.547   8.429   2.848  0.2687  0.0566 -0.2705
17983W        W34831  16.108  13.046  11.550  0.0070 -0.0553 -0.0001
17984W        W34832  10.298  12.140   3.321  0.0272  0.3562  0.3437
17985W        W34833  16.171  11.965   1.791  0.3709 -0.1510 -0.2635
17986W        W34834   4.968   8.075  14.429 -0.0972 -0.0243 -0.2031
17987W        W34835   6.436   3.574  12.762 -0.2647  0.2306 -0.1952
17988W        W34836  13.866  15.938   3.784 -0.4752  0.1603  0.0994
17989W        W34837  10.538   0.997  12.833  0.1175  0.1737  0.0886
17990W        W34838   2.213   7.187   2.052 -0.4068  0.2546 -0.1910
17991W        W34839   2.161  14.910   1.295 -0.0811  0.0315  0.1320
17992W        W34840   0.754   2.014  15.717 -0.2162  0.1356 -0.1834
17993W        W34841  15.692  15.846   0.817  0.0611 -0.1567  0.0985
17994W        W34842   6.887   2.175  13.890 -0.2506  0.0193  0.0530
17995W        W34843  15.093   9.753  12.964 -0.1907 -0.1318 -0.3691
17996W        W34844  17.181  13.418   4.783 -0.2885  0.1786 -0.1699
17997W        W34845  11.663   3.171   4.056  0.1420 -0.0428  0.1781
17998W        W34846   4.841   9.713   2.347  0.0221 -0.2074  0.3302
17999W        W34847   0.335  11.779  11.140  0.0428 -0.1678 -0.1843
18000W        W34848   3.398   5.570   3.839 -0.0936 -0.1394 -0.1634
18001W        W34849   3.627  12.229  13.288 -0.1542  0.0825  0.1186
18002W        W34850  10.780   9.723  12.801 -0.2383 -0.1284  0.2528
18003W        W34851  10.843  17.404   4.101  0.1811 -0.1288  0.0173
18004W        W34852   3.183   7.683   1.251 -0.1486 -0.1173 -0.1563
18005W        W34853   4.099   0.249   5.471  0.0379 -0.2185  0.2379
18006W        W34854  16.348  11.130  12.918 -0.0548  0.1397  0.0657
18007W        W34855  15.676   1.067  11.956  0.0550  0.0297  0.0837
18008W        W34856   4.917   9.492   4.195  0.0677  0.0620  0.1354
18009W        W34857   1.851  13.594  15.473 -0.0942  0.0927  0.0105
18010W        W34858  11.759  10.501   3.478  0.2413  0.0951  0.2294
18011W        W34859   2.949   8.244  12.452  0.1871  0.1515  0.2798
18012W        W34860  14.504   4.488  12.960 -0.0694 -0.0589 -0.1154
18013W        W34861   5.454  15.626   4.320 -0.2586  0.0818 -0.2393
18014W        W34862   3.946   6.302  12.173  0.1189 -0.0065  0.0139
18015W        W34863   8.365  15.810  12.371 -0.4024  0.0725  0.0155
18016W        W34864   4.550   7.869   3.639  0.3507 -0.1243  0.1539
18017W        W34865  17.814  11.814  14.191 -0.1287 -0.0792 -0.0631
18018W        W34866   4.958   6.096   4.202  0.0984 -0.2431  0.2036
18019W        W34867   8.040  15.129  11.672 -0.0146 -0.1404 -0.1140
18020W        W34868  12.853  14.372   1.119 -0.1726 -0.1675  0.5344
18021W        W34869   0.554  11.866   4.361  0.1269 -0.0370 -0.0023
18022W        W34870   5.195  17.836  13.565  0.2720  0.1118  0.2292
18023W        W34871   0.733  12.438   4.568 -0.2003 -0.0320  0.1844
18024W        W34872   4.635  13.418   2.609 -0.2048  0.3546 -0.2209
18025W        W34873  13.974  14.988   0.780 -0.1567 -0.1358 -0.0435
18026W        W34874  11.817  10.425  11.598 -0.1575 -0.1511  0.1622
18027W        W34875   6.289   4.165   1.391  0.1879 -0.0776  0.0777
18028W        W34876   7.759   4.456   3.160  0.0268 -0.0221 -0.3104
18029W        W34877   1.897  16.168   4.330  0.1500  0.0376 -0.3012
18030W        W34878   2.046   3.028  11.236  0.0554  0.0194 -0.1275
18031W        W34879  15.380   2.492   4.753  0.1030 -0.0966 -0.1342
18032W        W34880   8.593  14.246   2.662 -0.0414 -0.0753  0.1549
18033W        W34881   4.150   7.407   4.299  0.3960 -0.2459 -0.1128
18034W        W34882   7.306   2.044   3.071 -0.0583 -0.1077  0.1099
18035W        W34883  10.564  14.138   6.098 -0.0792 -0.0310 -0.2294
18036W        W34884   8.726   4.491   4.686 -0.0783 -0.0284  0.1886
18037W        W34885  13.870   7.830  13.783  0.5214  0.1337 -0.1807
18038W        W34886   1.565  14.561   0.598 -0.0223 -0.1094 -0.4483
18039W        W34887   4.664   4.796   6.052  0.1278  0.1105 -0.2499
18040W        W34888  14.503   5.089  14.866 -0.1118 -0.3238  0.3083
18041W        W34889   8.632  17.188   2.723  0.0426  0.2513  0.1523
18042W        W34890  11.152   8.420  15.833  0.1735  0.2802  0.2689
18043W        W34891   0.972  16.525  12.638 -0.0494  0.0370 -0.0042
18044W        W34892  16.105  14.145   3.034  0.2917 -0.1467 -0.5979
18045W        W34893   6.284  15.493  15.909 -0.1857 -0.1680  0.0113
18046W        W34894  10.818  16.781  13.119 -0.2112  0.0453  0.1506
18047W        W34895  11.841  10.294   1.641 -0.0330 -0.2119  0.3346
18048W        W34896   2.259  17.940   4.687  0.2363 -0.0204  0.0131
18049W        W34897   2.053   1.305   0.257  0.2798  0.4222  0.0718
18050W        W34898   9.097   4.535   4.965 -0.0029 -0.2162  0.2730
18051W        W34899   9.006   7.087  12.599 -0.2267  0.1523 -0.2423
18052W        W34900  13.989   1.665   0.843 -0.0411 -0.0220 -0.0549
18053W        W34901  17.837   9.966   1.148 -0.1770 -0.3995  0.1918
18054W        W34902   2.033  11.166   1.758 -0.3331 -0.1632  0.0592
18055W        W34903   3.006  17.904  14.060  0.1989  0.1148  0.3556
18056W        W34904  15.868   2.059  14.372 -0.0520 -0.2442  0.1559
18057W        W34905  16.090  11.455   1.682 -0.0671 -0.0197 -0.0131
18058W        W34906   3.813  10.097   0.048  0.0167  0.1444  0.1313
18059W        W34907  11.172   3.304   5.572 -0.0058 -0.0851 -0.0899
18060W        W34908  10.515  10.481  15.733 -0.0159  0.2223 -0.0138
18061W        W34909   0.994  14.228  15.768  0.1295  0.2049 -0.1296
18062W        W34910  16.407   6.644  13.627  0.2258  0.0434  0.0615
18063W        W34911   7.879   0.786  11.543  0.0020 -0.0071 -0.0622
18064W        W34912   5.797   0.027  14.018  0.0396 -0.2270  0.0052
18065W        W34913   9.741  14.422  11.505  0.3082 -0.0370 -0.1088
18066W        W34914   8.203   3.723   4.736 -0.0727  0.0490 -0.0177
18067W        W34915  15.929  11.960  13.531 -0.1461  0.1299 -0.0801
18068W        W34916  16.694   2.574   4.701 -0.0593  0.3001  0.0734
18069W        W34917   9.108   9.688   1.086 -0.2682 -0.0839  0.0074
18070W        W34918  12.224   3.972   2.732  0.1321 -0.2048 -0.0688
18071W        W34919  15.667  15.370   3.253 -0.1753  0.3083  0.0521
18072W        W34920   1.921   4.442  11.308 -0.0558 -0.1636  0.5086
18073W        W34921  17.466  12.099  14.925 -0.1330 -0.1699 -0.0173
18074W        W34922  15.930  17.818  11.887 -0.1587  0.2969  0.1036
18075W        W34923  15.294  11.761   1.326 -0.0303  0.1819 -0.0583
18076W        W34924   5.582   4.407  12.289  0.4121 -0.4036 -0.2057
18077W        W34925  13.892   2.654   1.499  0.1208 -0.0578 -0.1922
18078W        W34926   3.455  11.690   4.705  0.0038  0.0181  0.2616
18079W        W34927   6.227   1.143   4.728 -0.1822  0.1739  0.0077
18080W        W34928  17.079  12.985   4.559 -0.2728 -0.0652 -0.0166
18081W        W34929   2.011   1.212  15.320 -0.0672  0.0687  0.2131
18082W        W34930   2.028  12.978  14.503  0.1170  0.0477 -0.2021
18083W        W34931   0.445   5.461  13.165 -0.0148 -0.0598  0.0191
18084W        W34932   6.161  13.684   2.181  0.3297 -0.0604 -0.2835
18085W        W34933   5.009  12.217   4.427 -0.0449  0.0707 -0.2585
18086W        W34934  17.386   3.553  11.361  0.0188  0.1646 -0.1148
18087W        W34935  15.251  11.395   4.734 -0.1487  0.0885 -0.1249
18088W        W34936   2.216   8.837  12.728 -0.0342  0.0519  0.2202
18089W        W34937   5.933   5.336  11.581  0.1394 -0.0773  0.2678
18090W        W34938   2.359   6.842   2.991 -0.0599  0.2407  0.1521
18091W        W34939   7.592   4.454  13.622  0.0533  0.1252  0.0701
18092W        W34940  12.743  14.740  14.453  0.4078 -0.1327 -0.2976
18093W        W34941   1.128   2.841   1.472  0.0364  0.1912 -0.0211
18094W        W34942   7.978   3.241  15.452  0.2478 -0.1559 -0.3073
18095W        W34943  15.767  15.871   0.214  0.3338 -0.1270  0.1807
18096W        W34944  11.120   2.099  15.193 -0.2359 -0.0186  0.0077
18097W        W34945   9.520  14.054   0.153 -0.1158  0.0464 -0.1884
18098W        W34946   2.562  15.941   1.358  0.0487 -0.2096  0.0587
18099W        W34947   9.776   2.043  15.730  0.0223 -0.0258  0.0241
18100W        W34948   1.588  11.302   0.314 -0.1954  0.0979  0.2377
18101W        W34949  15.531  13.118  15.347 -0.0752  0.0046  0.0581
18102W        W34950   4.779   6.877  12.352 -0.0814 -0.2583  0.1966
18103W        W34951  15.121   3.923  15.190  0.2509 -0.0694 -0.4083
18104W        W34952   1.368  16.466   0.343  0.3268  0.1260 -0.1511
18105W        W34953   3.789   5.718  13.477  0.0247 -0.1052 -0.4804
18106W        W34954   8.990   1.376  12.176 -0.1297 -0.0799 -0.0719
18107W        W34955  14.557  15.360  12.656 -0.1540  0.2272  0.0349
18108W        W34956  14.277   9.902   2.681 -0.0567 -0.1382  0.2090
18109W        W34957   9.176   7.301   5.248 -0.5274 -0.1184  0.0302
18110W        W34958   5.597   4.361   3.548  0.1289  0.0090 -0.3575
18111W        W34959  14.134   1.089  11.061  0.0124  0.1562 -0.0745
18112W        W34960  13.356   6.111   0.414 -0.2771 -0.1456 -0.3991
18113W        W34961   4.993  14.526  15.804  0.0991  0.2682 -0.0864
18114W        W34962   4.177  16.438   0.974 -0.1267 -0.0605 -0.1860
18115W        W34963   3.589  17.307  15.990  0.0716 -0.0092 -0.0504
18116W        W34964  14.641   9.873   5.009  0.1089 -0.0318  0.1019
18117W        W34965  10.591   4.402  13.174  0.1050 -0.1985  0.0390
18118W        W34966  14.229  15.159  10.926  0.1100  0.1479 -0.1209
18119W        W34967   6.654   9.666   5.621 -0.0977  0.3486 -0.1358
18120W        W34968   4.539   8.746   4.624 -0.4662  0.0254  0.3185
18121W        W34969  13.994   8.788   0.999  0.1122  0.0001 -0.1195
18122W        W34970  15.098  14.564  10.200  0.1665 -0.1184 -0.2230
18123W        W34971   2.903   2.832  11.695  0.0414 -0.0570  0.2856
18124W        W34972   0.534  13.917   3.451  0.2018  0.3666 -0.1097
18125W        W34973  13.054   8.275   3.732  0.0423 -0.1630 -0.2388
18126W        W34974   9.250  15.264  12.010 -0.0012  0.5520  0.0781
18127W        W34975  11.165   3.215   4.152  0.3201  0.1796 -0.1292
18128W        W34976  10.929  17.452   3.587 -0.2540 -0.0532  0.2097
18129W        W34977  17.906   4.171  10.953  0.0177  0.4678 -0.0074
18130W        W34978   3.856   6.485  15.823  0.1609 -0.0600  0.0557
18131W        W34979  12.361   7.645  13.928  0.3764 -0.1522  0.2456
18132W        W34980   9.273   3.965  14.061 -0.0428 -0.0485 -0.0677
18133W        W34981  10.180  14.221   2.426  0.2612 -0.1146 -0.4284
18134W        W34982  12.164   2.165  14.389  0.3046  0.0424  0.3685
18135W        W34983   1.782   4.986  14.695 -0.0402 -0.1316 -0.1600
18136W        W34984   2.468   2.848  11.479  0.1693 -0.0134 -0.0105
18137W        W34985   9.046  10.536  11.806  0.2410 -0.1130  0.1068
18138W        W34986  12.835   0.365   1.714  0.4883 -0.1460 -0.2246
18139W        W34987  13.299   4.566  13.905  0.2469  0.2528  0.2359
18140W        W34988  18.085   8.282   1.562 -0.0875  0.0211 -0.1495
18141W        W34989   9.228  10.622  10.882  0.2309  0.1776 -0.1433
18142W        W34990   3.306  14.598   2.545 -0.0272 -0.1560 -0.3918
18143W        W34991   4.218  16.152   4.408 -0.1435 -0.1134  0.1942
18144W        W34992   6.313   5.475  12.269 -0.0681  0.1641 -0.1302
18145W        W34993   7.720  10.225  16.031  0.1712 -0.0398  0.0112
18146W        W34994   7.263   3.739   1.502 -0.0237  0.1673  0.4130
18147W        W34995   3.606  12.563   0.735  0.2766  0.1406  0.0067
18148W        W34996   5.839  11.468   5.752 -0.1956 -0.0321 -0.2124
18149W        W34997  17.980  15.730   1.801 -0.3039  0.1547  0.2582
18150W        W34998   8.941  12.043   1.359 -0.0781  0.2871  0.0269
18151W        W34999  10.545   7.223   1.300 -0.1947 -0.0285 -0.4446
18152W        W35000  16.473  15.161  15.223 -0.2641 -0.0126 -0.1357
18153W        W35001   9.111  11.455  11.547  0.0777  0.1581 -0.0117
18154W        W35002  16.559   2.050   3.765  0.1520 -0.3608 -0.0597
18155W        W35003   6.603  18.054   3.375  0.2130  0.0040  0.0545
18156W        W35004  15.754   6.956  15.038  0.1577  0.1393  0.2717
18157W        W35005  13.634   5.431   4.972 -0.2476 -0.2876  0.3005
18158W        W35006   3.662   9.647  15.686 -0.1673 -0.0544 -0.3188
18159W        W35007   2.306  11.637   5.122  0.0185 -0.0076  0.0231
18160W        W35008  12.229   2.607   3.821 -0.1602 -0.0949 -0.1914
18161W        W35009   4.117   2.376   3.877  0.0970  0.1056 -0.0279
18162W        W35010  11.025   1.811   3.279  0.1069  0.0084  0.0003
18163W        W35011  14.205   6.075  10.944 -0.2418 -0.2248  0.0140
18164W        W35012  15.341   9.563   3.508  0.1967 -0.1309 -0.0177
18165W        W35013  10.327   9.631   0.955 -0.1920  0.2506  0.1150
18166W        W35014   9.612   8.585   3.048 -0.1701  0.0919  0.2318
18167W        W35015  13.342   3.809   4.024 -0.1421  0.2624 -0.1046
18168W        W35016   6.449  11.777   2.589  0.1635 -0.0664 -0.1726
18169W        W35017  12.764   6.892   1.241  0.0470 -0.2896  0.1204
18170W        W35018   4.930  10.551  14.656 -0.4091 -0.0295  0.1059
18171W        W35019   7.713   0.676   2.421  0.2017  0.1515  0.1614
18172W        W35020   9.190   1.489  13.703 -0.2178 -0.1691 -0.2276
18173W        W35021   3.797   7.038  11.336 -0.0584  0.0094  0.1800
18174W        W35022   7.689   2.268   2.661  0.1712 -0.2822  0.2001
18175W        W35023  16.531   6.985  16.065 -0.0597 -0.4337  0.1934
18176W        W35024   5.415   1.316  11.699  0.2272  0.0888 -0.1731
18177W        W35025  15.319   2.522  15.411 -0.3978 -0.0343  0.0389
18178W        W35026   2.337  11.717  11.689  0.0419 -0.1280  0.1623
18179W        W35027   1.812   7.099  14.636 -0.1316 -0.3526 -0.0602
18180W        W35028  12.494  16.119  12.069 -0.2271 -0.0145 -0.1939
18181W        W35029   4.902   4.574   0.886 -0.3549  0.0180 -0.1959
18182W        W35030   2.590  15.825  13.009 -0.1918 -0.1885 -0.1526
18183W        W35031  15.050  17.324  13.959  0.2062  0.0039  0.2641
18184W        W35032   4.228  14.772  14.224 -0.0475  0.2054 -0.0997
18185W        W35033  12.346  11.311   6.152 -0.3705 -0.0230 -0.1612
18186W        W35034  11.484   4.300  11.246  0.0535  0.5116  0.4992
18187W        W35035   0.012   7.294  13.874  0.1259 -0.2229 -0.2395
18188W        W35036   1.261   6.503  12.502 -0.0416 -0.1867  0.0784
18189W        W35037  14.354  16.482   5.724 -0.0254  0.2541 -0.1118
18190W        W35038   2.746   0.245   1.381  0.0725  0.0098 -0.1919
18191W        W35039   5.551  16.776  14.050 -0.0092 -0.0080 -0.0908
18192W        W35040  15.348   1.848   4.000 -0.2034 -0.1551  0.0954
18193W        W35041   3.226   3.035   4.524  0.1710 -0.1617 -0.0793
18194W        W35042  12.102   6.463   4.239 -0.1500  0.1549  0.0985
18195W        W35043  10.057  13.237  11.836 -0.1040 -0.4090 -0.4586
18196W        W35044  17.214  15.794  11.974  0.0423 -0.0642 -0.4798
18197W        W35045   8.547  13.728   1.956 -0.0527 -0.0797  0.1827
18198W        W35046  11.225   8.635   3.284 -0.0086 -0.0399  0.1555
18199W        W35047   3.832   7.570  15.702  0.0077 -0.2242 -0.0857
18200W        W35048  11.075   2.238  11.123 -0.3298  0.0064  0.2501
18201W        W35049   6.626   6.712   5.062  0.0725 -0.1043  0.1027
18202W        W35050   9.051   0.818   2.699 -0.0637 -0.1956 -0.0653
18203W        W35051   9.441  10.278   5.429 -0.1952 -0.1819 -0.0111
18204W        W35052   1.211   7.501   0.480 -0.1638  0.2135 -0.3933
18205W        W35053   9.184   7.386  13.001 -0.2440  0.3087  0.0311
18206W        W35054   1.354  10.675   2.374  0.2332  0.1730  0.1225
18207W        W35055   2.935  17.750   1.651 -0.0611  0.0081 -0.0085
18208W        W35056  16.320  13.037  15.862 -0.4217 -0.2056  0.1960
18209W        W35057  10.553   5.939  13.396  0.1106 -0.1153  0.2931
18210W        W35058  13.329   1.933  10.802  0.0256  0.0386 -0.0117
18211W        W35059  13.720  14.433   0.391  0.2370 -0.1121 -0.0198
18212W        W35060  15.769  13.371  13.223  0.0000 -0.0720  0.1342
18213W        W35061   4.264   2.893  10.127 -0.1181 -0.0228  0.2352
18214W        W35062   3.112  13.629   4.817 -0.1597  0.0842 -0.2751
18215W        W35063  15.114  11.262  15.066  0.1404  0.0822 -0.1802
18216W        W35064   7.041  11.811  15.847 -0.2343  0.0343  0.1651
18217W        W35065   7.847   7.576  13.568 -0.3066  0.0838  0.2563
18218W        W35066  12.781   4.439  13.534  0.1998  0.2338 -0.0116
18219W        W35067  16.182  13.339   4.353 -0.0487 -0.1741 -0.1855
18220W        W35068   7.248   9.744  13.216 -0.0296  0.0842 -0.0172
18221W        W35069   2.214  15.400  11.344 -0.4361 -0.2164 -0.1564
18222W        W35070   5.498  16.287  12.405  0.0840  0.0703  0.1582
18223W        W35071  17.851   5.665  13.554  0.1579  0.3526  0.0805
18224W        W35072   2.001  15.159  12.576  0.0083  0.1038  0.2357
18225W        W35073  17.272   3.645   4.836 -0.3153  0.0513  0.0027
18226W        W35074   2.562  16.628  13.395  0.3736  0.1878 -0.0011
18227W        W35075  12.149  10.389   0.342 -0.0914 -0.0908 -0.0955
18228W        W35076  18.205  16.709  15.406  0.2759  0.1718  0.1719
18229W        W35077  15.644   9.533   5.882 -0.2638  0.1630 -0.2123
18230W        W35078  12.600   5.090   1.788  0.0517  0.1028 -0.4808
18231W        W35079  13.532  15.570  13.077  0.1741  0.0547 -0.3306
18232W        W35080   1.527   7.572  13.146  0.1388 -0.0599 -0.1860
18233W        W35081   3.899   7.205   3.673  0.2496 -0.0320  0.0233
18234W        W35082   5.941  11.157  11.682  0.1478  0.3581 -0.2195
18235W        W35083   8.395  11.784  13.313  0.3603 -0.0660  0.1057
18236W        W35084   3.555  15.435  10.870 -0.1940 -0.1513  0.0631
18237W        W35085  11.824   1.904  11.373  0.2447  0.1179 -0.2483
18238W        W35086  11.586   0.848   2.243 -0.1026 -0.1940 -0.0300
18239W        W35087  13.493  16.726  13.262 -0.2167 -0.1136 -0.3406
18240W        W35088   0.338   3.729  12.039  0.1219  0.1303  0.0098
18241W        W35089  16.333   6.152   1.276  0.1632  0.0748  0.3694
18242W        W35090   0.849  15.990   1.365 -0.0064  0.3533 -0.0821
18243W        W35091   8.745  10.538   2.609  0.2772 -0.2817  0.0530
18244W        W35092   8.527   7.511   1.806 -0.0317  0.0650  0.1075
18245W        W35093   6.929   4.662  14.310  0.1874  0.0763 -0.0092
18246W        W35094   6.559  13.009  15.625 -0.0590 -0.2571  0.0868
18247W        W35095  13.208   2.130  14.590 -0.3845 -0.0030 -0.3979
18248W        W35096  17.808  14.213  10.854 -0.0759  0.1669  0.4243
18249W        W35097  14.843  10.241  11.702 -0.2533 -0.1502 -0.0584
18250W        W35098  10.870   0.666   2.753  0.1224 -0.3283 -0.0640
18251W        W35099   5.568   1.116   4.877  0.0590  0.0364  0.3486
18252W        W35100  11.872  15.438   3.639  0.0004 -0.1046  0.2044
18253W        W35101  11.671   3.241   1.192  0.0512  0.1611 -0.1423
18254W        W35102  14.701   2.757  16.048  0.0452  0.0137 -0.3530
18255W        W35103   7.346  13.882  14.705  0.1541  0.1082 -0.1385
18256W        W35104  13.956  12.804   4.804 -0.3779 -0.0497  0.0299
18257W        W35105  17.612  17.066   1.929 -0.0899 -0.3426  0.0706
18258W        W35106   9.125  11.123   5.583 -0.0871  0.2594 -0.0625
18259W        W35107   6.918   9.220   4.730 -0.0423  0.0926  0.0334
18260W        W35108  16.615   8.302   3.412  0.0765  0.1011 -0.3027
18261W        W35109  14.357   8.876  14.575 -0.1222 -0.0636  0.1066
18262W        W35110  10.882   2.584  14.802 -0.3749 -0.1975  0.0576
18263W        W35111   2.255   3.781  15.367  0.2275 -0.1961  0.0340
18264W        W35112   7.047   0.220   1.068  0.0291  0.1457  0.0523
18265W        W35113  13.228   4.812  15.191  0.1905 -0.1983 -0.0735
18266W        W35114  17.112   2.084   0.900 -0.0308 -0.2860  0.2269
18267W        W35115   9.573  10.328   2.368 -0.1458  0.0088  0.0647
18268W        W35116   4.472   4.559   4.812 -0.2843  0.1869  0.0206
18269W        W35117   5.781   9.859   0.866  0.2763 -0.0822 -0.1108
18270W        W35118   6.830   7.462  15.789  0.1972  0.1341  0.0255
18271W        W35119  12.643   2.249   2.031 -0.1856  0.0305  0.0558
18272W        W35120   9.895   5.071  10.337  0.0291 -0.1920  0.0295
18273W        W35121  12.813   5.709   4.549 -0.2243 -0.1610 -0.3923
18274W        W35122   6.607  11.442   2.855  0.0950  0.0386 -0.2431
18275W        W35123  13.274  13.886  10.911 -0.0275 -0.0754 -0.0508
18276W        W35124  13.579  12.243  10.372 -0.1180 -0.0065 -0.1050
18277W        W35125   6.755  11.333  15.582  0.0027 -0.4407  0.1646
18278W        W35126   9.075   8.910   2.994 -0.1443  0.1693  0.1283
18279W        W35127   9.509   6.819  11.352  0.0070 -0.0319 -0.4014
18280W        W35128   8.590  17.370  12.725  0.2040  0.0678  0.1366
18281W        W35129   0.598   3.785   0.822  0.0660  0.2412  0.3480
18282W        W35130   8.297   4.606   3.673  0.1916  0.0551  0.0712
18283W        W35131  10.764  15.721  14.613 -0.2956 -0.1806 -0.1218
18284W        W35132   2.381  17.751  12.431 -0.1271 -0.0765 -0.2026
18285W        W35133   6.211   3.090  14.124  0.0485  0.0222  0.0507
18286W        W35134   4.549   2.985   2.943  0.2134  0.1337 -0.2099
18287W        W35135   8.228  17.576  15.142  0.1756 -0.0397 -0.0756
18288W        W35136  13.477   0.951   0.298  0.1480 -0.0838 -0.1413
18289W        W35137  12.659  13.966  12.014  0.0901  0.1103  0.1045
18290W        W35138   5.009   1.147  15.430  0.0391  0.0034  0.0550
18291W        W35139  12.271  17.747  13.092  0.0700  0.0190  0.0852
18292W        W35140   3.589   7.497   0.012 -0.3489  0.1931  0.0546
18293W        W35141   3.113   6.938  14.474  0.3267  0.3100  0.2352
18294W        W35142   3.110   3.432   1.234 -0.2243 -0.1083  0.0664
18295W        W35143   6.080   2.756   2.307 -0.0121  0.4377  0.1080
18296W        W35144   0.847   7.075  11.842  0.4976 -0.1416 -0.1287
18297W        W35145   4.305   3.335   2.177 -0.0305 -0.3004  0.1978
18298W        W35146   4.697   0.306  12.712  0.2971 -0.0687  0.0776
18299W        W35147  17.345   1.797  16.011  0.0100 -0.0444  0.0853
18300W        W35148   8.350  15.629  14.795 -0.0011  0.0573 -0.0483
18301W        W35149  13.295   2.986   2.675  0.1441  0.1302  0.0076
18302W        W35150  14.861   4.111  12.060 -0.5365  0.0740 -0.1673
18303W        W35151   9.503   8.465   1.615 -0.0299  0.2777 -0.0561
18304W        W35152   0.020   5.700   1.945  0.0472  0.1546 -0.3115
18305W        W35153   8.114   1.327  12.505 -0.0524 -0.0496  0.0349
18306W        W35154  13.435   2.189  12.756 -0.1074 -0.1523 -0.1242
18307W        W35155   0.299   7.480  12.734 -0.1310  0.0006  0.0673
18308W        W35156  15.110  13.233  11.362  0.0853  0.4022 -0.0877
18309W        W35157  13.467  11.230   0.536 -0.0889 -0.0358 -0.0751
18310W        W35158   4.022   8.559  15.974 -0.0154 -0.0013  0.0709
18311W        W35159   9.091  12.789  11.899  0.0895 -0.0526  0.2268
18312W        W35160  15.016  17.858   2.849  0.0133  0.2927 -0.0101
18313W        W35161  11.373  13.124   0.809 -0.0778  0.3234 -0.2121
18314W        W35162   0.785   9.015  13.237  0.3426 -0.2850  0.0636
18315W        W35163   7.871   5.768  13.524  0.2459  0.1229 -0.1468
18316W        W35164   6.418   9.664   3.333  0.1101 -0.0677  0.1953
18317W        W35165  10.962   5.058  15.965  0.1204 -0.0769 -0.1753
18318W        W35166   5.065  15.283   2.843 -0.0759  0.0982 -0.1987
18319W        W35167   7.488  16.762   3.118 -0.2519 -0.0985  0.2107
18320W        W35168   9.117  10.265   5.789 -0.1151  0.1128 -0.0687
18321W        W35169  10.001   5.606  15.536  0.1853  0.0129 -0.1695
18322W        W35170   2.057  13.697   1.771 -0.0153  0.1956 -0.1903
18323W        W35171  11.738   1.142   3.332  0.1105  0.0788  0.0621
18324W        W35172   3.780   7.131   4.539 -0.0274 -0.1561  0.1946
18325W        W35173  11.090  12.924   4.819  0.1447 -0.3396 -0.0234
18326W        W35174   9.409  13.097   4.576  0.1249  0.2913  0.1160
18327W        W35175  16.907   0.204  14.276 -0.0937 -0.1707  0.2473
18328W        W35176  10.306  16.584  15.090  0.1389 -0.0048  0.1264
18329W        W35177   6.175  17.877   0.848 -0.0961  0.0809 -0.0862
18330W        W35178  16.967  16.449  16.098 -0.2778 -0.0599 -0.1106
18331W        W35179   2.615  17.203   3.403 -0.1411  0.0906 -0.0418
18332W        W35180   7.022  17.760  15.474 -0.0039  0.0473  0.0657
18333W        W35181   3.849   7.463  11.080 -0.0213 -0.1574 -0.2121
18334W        W35182   3.864  14.238  12.243  0.1059 -0.1907  0.1752
18335W        W35183  16.699   2.808  13.426  0.0489  0.0725  0.1632
18336W        W35184  14.344   8.385   3.847 -0.2294 -0.1905 -0.1999
18337W        W35185   3.619  14.856   4.344 -0.0985  0.2848  0.0607
18338W        W35186  15.188   8.324   2.865  0.1368 -0.0435  0.1928
18339W        W35187   6.551  14.022   2.938 -0.2311 -0.0434 -0.0826
18340W        W35188   8.081   0.539  13.144  0.0113  0.1273 -0.3907
18341W        W35189  13.750  15.608   4.130  0.1974  0.1653 -0.1067
18342W        W35190   9.078  13.674   2.127 -0.0027 -0.0529  0.0926
18343W        W35191  17.735  17.761  14.685 -0.0607 -0.0608 -0.0381
18344W        W35192  16.146  15.749  13.681  0.0342  0.0016 -0.1328
18345W        W35193  12.693  11.717   0.740  0.2189  0.3277  0.0335
18346W        W35194   0.254   9.267  15.425 -0.0263 -0.0268  0.1413
18347W        W35195  13.907  13.730  12.671  0.2317 -0.1074 -0.0785
18348W        W35196  13.853  11.047  14.020  0.2977 -0.4232 -0.0266
18349W        W35197  14.874  18.209  12.157  0.1928  0.2765 -0.1730
18350W        W35198  15.528   9.291  15.923  0.1278 -0.3058 -0.0181
18351W        W35199   4.856   4.349  11.783 -0.0663  0.1281  0.2282
18352W        W35200  10.754   1.141  13.246 -0.0525 -0.0251 -0.0463
18353W        W35201  15.178  11.126   1.890  0.2159  0.4475  0.1048
18354W        W35202   6.813   0.167   2.936  0.3805  0.0715 -0.2726
18355W        W35203   3.854  10.057  14.288 -0.0965  0.0866 -0.1077
18356W        W35204   2.021   5.013   1.742 -0.1051  0.0562  0.5990
18357W        W35205   1.799  17.426   2.965 -0.1023 -0.0639  0.2265
18358W        W35206   7.076   2.266  12.733 -0.1105  0.1835  0.0270
18359W        W35207   0.620  14.588  15.973  0.0372 -0.3716  0.2220
18360W        W35208   2.636   6.284  12.589  0.0938  0.3039 -0.0291
18361W        W35209   9.488  10.106   0.356  0.5585 -0.2019 -0.1671
18362W        W35210   4.507  15.588  12.183 -0.1073  0.2763 -0.3682
18363W        W35211   2.495   0.616  13.392  0.1859  0.0995  0.0793
18364W        W35212  11.718  13.223   4.865  0.1245  0.0683 -0.2354
18365W        W35213   5.678   1.143  14.576  0.2446  0.3920 -0.1086
18366W        W35214   2.843   4.449  12.283 -0.1203  0.0912  0.1643
18367W        W35215   4.664   5.440  13.409  0.1559  0.2191 -0.1180
18368W        W35216  16.377  16.500  11.212 -0.1620  0.0484  0.1238
18369W        W35217   0.611  17.248   3.050  0.0243  0.4379 -0.1548
18370W        W35218  11.393  17.007   3.666  0.1229  0.0696  0.2195
18371W        W35219  14.757  13.162   3.703 -0.1376 -0.1743  0.0738
18372W        W35220  14.099   9.088  12.263 -0.0984  0.1266 -0.0076
18373W        W35221  12.296  17.502  14.651 -0.0458 -0.0109  0.1378
18374W        W35222   1.027   4.544   2.078 -0.0783  0.2155  0.0753
18375W        W35223  13.836   6.238  12.838  0.2904  0.2908  0.0478
18376W        W35224   8.612   6.395   0.870 -0.6016 -0.2069 -0.0481
18377W        W35225   1.078   2.829   3.264  0.0792  0.1101 -0.2034
18378W        W35226  10.216  17.625  12.404 -0.1049 -0.4259  0.2106
18379W        W35227   1.087  11.810   0.748  0.0147 -0.0182  0.0913
18380W        W35228   2.810  13.763  11.364 -0.0371 -0.2202 -0.0563
18381W        W35229  14.011  16.590   1.491  0.1896  0.2860 -0.0478
18382W        W35230   9.844   3.233  15.038 -0.1124  0.0148 -0.0135
18383W        W35231   8.106   0.018  13.882 -0.2975 -0.0111 -0.0539
18384W        W35232  12.139   3.754  13.930 -0.4303 -0.1781  0.2471
18385W        W35233  18.122   7.296   3.187 -0.0848  0.0383  0.2240
18386W        W35234  16.315   5.982   0.138 -0.0508  0.0354  0.1259
18387W        W35235   4.744   1.503   1.214 -0.0089 -0.1124  0.1618
18388W        W35236  13.200   8.989  15.857 -0.1694  0.0537  0.1169
18389W        W35237   9.025  17.625  12.737  0.0236 -0.2265  0.2347
18390W        W35238  17.047  11.025  13.661  0.0427  0.0236 -0.1955
18391W        W35239   9.578  15.248   3.812  0.1113  0.0234 -0.2423
18392W        W35240   0.152   5.578   3.919  0.0814 -0.5155  0.2143
18393W        W35241   3.899  16.826   3.038 -0.1098 -0.3468  0.3678
18394W        W35242   7.925   3.929   4.169  0.1135 -0.3025  0.0115
18395W        W35243  11.001  14.614   1.850 -0.0274 -0.1367  0.1611
18396W        W35244   7.985  12.523   2.243  0.3058 -0.0773  0.1536
18397W        W35245   4.384   6.182   5.278  0.0317  0.0770 -0.0761
18398W        W35246   2.407   4.332   2.039  0.0805 -0.4255  0.1289
18399W        W35247   2.538   2.027   1.335 -0.0401  0.0034 -0.0279
18400W        W35248   0.634  11.654  14.016 -0.1016  0.2570 -0.1431
18401W        W35249   7.371   8.638  11.836  0.0510 -0.4177 -0.2422
18402W        W35250  17.577   3.355   0.171 -0.1848  0.1291  0.2057
18403W        W35251   1.514   6.866   0.762  0.3251 -0.0779 -0.2028
18404W        W35252   3.566  17.108  12.602  0.1368  0.0712 -0.0897
18405W        W35253  14.102  12.510   2.295 -0.2654  0.0084  0.0405
18406W        W35254   2.360  13.297  11.241 -0.2648 -0.2321 -0.2925
18407W        W35255   0.762   5.643  12.425  0.1240  0.1134 -0.0503
18408W        W35256  12.446   0.928   1.414 -0.0528  0.1750 -0.5254
18409W        W35257   0.230   3.109   2.918 -0.3789  0.5215 -0.2025
18410W        W35258   0.673   5.744  16.039 -0.0392 -0.1204  0.2454
18411W        W35259  14.435   5.958  12.572  0.1270  0.1553 -0.0370
18412W        W35260  10.097   8.354   2.344 -0.3601  0.2303  0.1501
18413W        W35261   0.144  10.081  15.335  0.0755  0.2801  0.4104
18414W        W35262  10.897   8.111   0.038  0.0188  0.1268 -0.1064
18415W        W35263  10.035  10.854  14.526 -0.2144  0.0525 -0.2994
18416W        W35264   5.594  13.925   1.127 -0.0822 -0.0238  0.0170
18417W        W35265  13.553  12.301  15.029 -0.1892 -0.3375  0.4160
18418W        W35266  12.558  14.949   1.610  0.2604  0.0795  0.0737
18419W        W35267   7.033   1.937  15.638  0.2309  0.0365 -0.2265
18420W        W35268   1.035  14.741  12.376  0.1552  0.0475 -0.1919
18421W        W35269  10.179  17.400  11.442 -0.1506  0.0658  0.1749
18422W        W35270   9.176   1.984  11.256 -0.0455  0.1305 -0.2900
18423W        W35271   9.317   5.673   0.324 -0.0488 -0.0979  0.0933
18424W        W35272   4.471  17.131  16.051  0.2428  0.2331 -0.1349
18425W        W35273   1.797   1.313  15.942  0.0152 -0.4122  0.0330
18426W        W35274   0.393  11.066  14.843  0.0099 -0.0127  0.2173
18427W        W35275  16.023  17.790  15.241 -0.5017  0.2437 -0.0639
18428W        W35276   7.493  11.505   4.829 -0.1722 -0.3953 -0.1341
18429W        W35277   7.880   0.882  13.660 -0.1823 -0.5141  0.1218
18430W        W35278   6.036  13.206   4.644 -0.1142  0.2251 -0.0754
18431W        W35279  16.358  15.979  11.095  0.0991 -0.0855 -0.1473
18432W        W35280   9.387   6.427   5.131  0.0042 -0.0045 -0.0543
18433W        W35281  17.919  17.157  10.813 -0.2663  0.2284  0.1220
18434W        W35282   7.395  12.694   4.587  0.0990 -0.2514 -0.0560
18435W        W35283   6.064  17.608  15.054  0.1213 -0.2578 -0.1205
18436W        W35284   2.650   9.079   4.765 -0.1217  0.0814 -0.1826
18437W        W35285  12.450  16.343  15.837 -0.2900 -0.0884  0.0911
18438W        W35286  15.710  12.593   0.381 -0.1914 -0.0062 -0.1631
18439W        W35287  17.987  11.303  14.331 -0.0646  0.2094  0.1212
18440W        W35288   4.295  16.781   3.748 -0.0784  0.0878 -0.2431
18441W        W35289   3.284  17.933   0.795  0.0072 -0.2447  0.1749
18442W        W35290   4.374   5.857  10.725 -0.0915  0.0800 -0.1054
18443W        W35291   1.547  10.328  14.255 -0.2471  0.0793  0.2529
18444W        W35292  17.252   2.137  12.759 -0.0540  0.2524 -0.2680
18445W        W35293   5.918  11.475  12.259 -0.1849 -0.0590  0.1822
18446W        W35294   2.586   1.935  14.914  0.0865  0.0117 -0.1660
18447W        W35295  14.015  12.643  15.926 -0.0905 -0.1915  0.1271
18448W        W35296   8.339   4.540  14.224 -0.0825 -0.6745 -0.0841
18449W        W35297  15.701  11.772   4.035 -0.0120  0.1518  0.0586
18450W        W35298  17.985   9.523   1.397  0.1545 -0.3367 -0.0008
18451W        W35299  15.836  10.253   2.300 -0.1579  0.0485 -0.0036
18452W        W35300  11.434   4.360  15.277  0.2684  0.1183 -0.5185
18453W        W35301  15.624  17.255   5.060 -0.0229 -0.0196 -0.2273
18454W        W35302   3.159   5.602   1.247  0.1498  0.1011 -0.1579
18455W        W35303  14.478   8.473  14.162 -0.6101 -0.4064 -0.0889
18456W        W35304  16.886   6.482  13.259  0.3709  0.0164  0.1367
18457W        W35305   9.732  16.273   3.776 -0.1623  0.5050  0.3814
18458W        W35306   3.592   8.077  12.631  0.0364  0.3392  0.0753
18459W        W35307   7.596   1.291  15.668  0.1281  0.1183 -0.1495
18460W        W35308   2.009  14.609   1.719  0.1464  0.2263 -0.0385
18461W        W35309   7.302  17.964   4.022 -0.0289  0.0267  0.1164
18462W        W35310  10.205   1.982  12.250 -0.1806 -0.2074  0.1623
18463W        W35311   0.919   5.027   3.314 -0.0032 -0.0665 -0.0627
18464W        W35312  12.481  15.650   2.161  0.1129 -0.0119  0.1640
18465W        W35313  16.570  15.175  11.309 -0.4317 -0.1511  0.1057
18466W        W35314   3.453   6.313   1.939  0.1430  0.0230 -0.2275
18467W        W35315   5.805  10.424   4.561  0.1359  0.0373  0.3206
18468W        W35316   2.203   0.287  15.839 -0.0458 -0.0844 -0.3232
18469W        W35317   7.984   5.744   4.882  0.1189  0.1784  0.0688
18470W        W35318   1.642  10.121  11.031 -0.1675 -0.1475 -0.4957
18471W        W35319   8.934   9.697   4.534 -0.0384  0.2136 -0.1205
18472W        W35320  11.618  17.297  13.088 -0.1529  0.0796 -0.0332
18473W        W35321   4.781   0.069   2.245 -0.1442 -0.2804 -0.1488
18474W        W35322   9.905  16.155   0.887  0.0822  0.1225 -0.2405
18475W        W35323   7.667   3.598   3.751  0.0346 -0.3608 -0.2214
18476W        W35324  17.898   4.640  15.677 -0.0704 -0.0633  0.2011
18477W        W35325   2.528   1.699   0.988 -0.0136 -0.0734  0.1337
18478W        W35326  17.221   5.611  11.509 -0.0289 -0.0991  0.1964
18479W        W35327  14.565  12.947  11.536 -0.0036 -0.2832  0.2062
18480W        W35328  12.564  13.601   3.475 -0.1127 -0.2130 -0.0650
18481W        W35329  17.754   5.914   1.153 -0.0909 -0.0876 -0.2797
18482W        W35330  10.544  13.159  11.786 -0.1031 -0.1241 -0.0617
18483W        W35331   2.949   9.225  14.576 -0.1087 -0.1675 -0.0157
18484W        W35332   6.699   0.888   4.802  0.0754 -0.1251  0.5421
18485W        W35333   1.331  17.935   1.686  0.2159 -0.0538  0.0867
18486W        W35334   3.696  16.759  14.623  0.0018  0.1493  0.0158
18487W        W35335   0.888  11.365  12.579  0.1690 -0.1748  0.1105
18488W        W35336   4.550   3.064  14.239  0.0030  0.1281 -0.0599
18489W        W35337  15.907   5.249  11.052  0.2025 -0.0346 -0.0899
18490W        W35338   0.923  16.849   0.302  0.1608 -0.1002 -0.1030
18491W        W35339  15.619  17.037   1.606 -0.0807 -0.2193  0.0329
18492W        W35340   2.836   0.570   3.384  0.2930  0.1395  0.1406
18493W        W35341   0.668  17.802   3.066 -0.1188  0.2122 -0.0503
18494W        W35342  11.911   3.092  15.517  0.0311 -0.3070 -0.0463
18495W        W35343   1.107  17.781  15.227  0.2764  0.0670 -0.0397
18496W        W35344   6.183   8.546   5.347  0.1771 -0.2531 -0.0744
18497W        W35345   5.689  13.068   0.684  0.3403 -0.1970  0.0184
18498W        W35346   5.099   6.576  14.737  0.1713 -0.1931 -0.2369
18499W        W35347  14.338  14.167   5.040  0.3485 -0.0256  0.0340
18500W        W35348   7.225  17.426   3.826  0.0258  0.1743 -0.3599
18501W        W35349  11.221  10.474  14.871 -0.4177  0.0144 -0.1464
18502W        W35350   0.396   9.145  15.935  0.2332 -0.1327  0.0076
18503W        W35351   2.467   8.245  11.259 -0.0680  0.3888 -0.0583
18504W        W35352  14.036   9.298  14.842  0.0184  0.1389  0.0759
18505W        W35353  16.787   4.045   3.737 -0.1511 -0.2124  0.0799
18506W        W35354   1.656   4.029   2.853  0.0748  0.0508 -0.0470
18507W        W35355  12.986  11.777  13.407 -0.1044 -0.2151 -0.2512
18508W        W35356   1.353   6.251  11.968  0.1189 -0.2070  0.2493
18509W        W35357   2.455   4.746   5.209 -0.2143 -0.2286  0.0633
18510W        W35358  14.753   8.320   4.191 -0.1538 -0.0170  0.0165
18511W        W35359  10.523   1.330  14.155  0.1440  0.0046  0.0395
18512W        W35360  11.991  12.744  14.008  0.2424 -0.1655  0.1673
18513W        W35361   2.747  17.911   0.713  0.1980  0.2370  0.0521
18514W        W35362   7.858  10.548   5.201 -0.0426  0.1315  0.2519
18515W        W35363   8.285  15.473  11.883 -0.0818 -0.1616  0.1549
18516W        W35364  11.219   6.772  14.773 -0.3074 -0.3318  0.0063
18517W        W35365   0.421  17.634  14.641  0.0604  0.0204 -0.0573
18518W        W35366  13.460  11.307   1.378 -0.1840  0.1666  0.0496
18519W        W35367  11.029  12.867   5.335  0.2663 -0.0921 -0.0042
18520W        W35368   4.917  10.846  13.264 -0.0239 -0.0098  0.2496
18521W        W35369  10.559  16.865  13.576 -0.2244 -0.1744 -0.0138
18522W        W35370  10.188  15.617  14.490 -0.0972 -0.4262  0.1915
18523W        W35371  12.006   8.331   3.766  0.0615  0.0887 -0.1745
18524W        W35372   3.674  18.006  12.229 -0.2266  0.0696  0.0350
18525W        W35373   0.142   6.174   1.840  0.0848 -0.1939  0.0685
18526W        W35374  15.718   8.733  13.598 -0.1571  0.2257  0.2190
18527W        W35375   2.267  13.945   3.122  0.0151  0.0168  0.0576
18528W        W35376   3.768  12.669   1.676  0.0094 -0.2542 -0.0087
18529W        W35377   7.180  10.031  14.550  0.3738  0.2528  0.1922
18530W        W35378  13.949  18.146   4.029 -0.0337 -0.3625 -0.2763
18531W        W35379  12.744   3.978   0.818  0.1743  0.1551  0.0362
18532W        W35380   4.588  14.107   4.170 -0.0427 -0.4422 -0.0691
18533W        W35381  16.015  18.117  11.002  0.0159  0.1023 -0.2503
18534W        W35382  17.768  10.812  13.188 -0.2572 -0.1792  0.2022
18535W        W35383   6.282  13.606   0.732 -0.0285 -0.1208  0.0655
18536W        W35384  16.175   0.276  11.918 -0.0459  0.1430 -0.0897
18537W        W35385  15.610   9.826  15.577 -0.0415  0.2602 -0.0587
18538W        W35386   7.753   8.522  12.658  0.1718 -0.0994  0.2597
18539W        W35387  15.142   6.622   2.241  0.0296 -0.2740 -0.1417
18540W        W35388   1.186   4.492  15.772  0.3164  0.0281 -0.2192
18541W        W35389   1.615   8.733  15.004 -0.1002 -0.3070  0.2066
18542W        W35390   3.183   5.479   2.070 -0.0375 -0.2745 -0.2739
18543W        W35391   4.379   0.451   2.354  0.0944  0.3007  0.2175
18544W        W35392   3.258  10.698  12.225 -0.1953 -0.2652 -0.2543
18545W        W35393   0.973   0.655   0.146  0.1317 -0.0513 -0.0094
18546W        W35394   4.673  17.326   2.045  0.1533  0.3857  0.0821
18547W        W35395  14.221   4.579  13.500  0.0730 -0.1088 -0.0952
18548W        W35396   4.703   0.901   3.801 -0.2112 -0.1589 -0.0787
18549W        W35397  15.002  14.421  14.408  0.0836 -0.1483  0.2504
18550W        W35398  10.607   3.834  12.253  0.0374  0.1099  0.1768
18551W        W35399   0.966  17.655  11.354  0.3781  0.1082  0.2559
18552W        W35400  13.703  15.382  16.084  0.0816  0.0203  0.1862
18553W        W35401  11.831   3.087  12.131 -0.1344  0.0388 -0.0730
18554W        W35402   4.801   2.786  15.478  0.0082  0.3007  0.0651
18555W        W35403  12.784  17.791  11.402 -0.1457  0.2043  0.1488
18556W        W35404   1.941  11.872   4.080 -0.0449 -0.0037  0.3842
18557W        W35405   6.972  12.907  15.964  0.2761 -0.0432 -0.0255
18558W        W35406  11.150   0.591  13.040 -0.3772 -0.0027 -0.1508
18559W        W35407   0.551   7.426  15.871  0.1992 -0.0746  0.0658
18560W        W35408  17.246  17.619  14.831  0.1168 -0.4070  0.0718
18561W        W35409   6.052  13.408  15.102  0.1138  0.1878 -0.0754
18562W        W35410  13.881   2.208   2.724  0.1391 -0.0851  0.2829
18563W        W35411   3.581   3.406   4.518 -0.1322  0.1342 -0.0672
18564W        W35412  17.333  16.553   0.944 -0.2559  0.3323 -0.1315
18565W        W35413   7.318  13.207  12.652 -0.1318 -0.2924  0.0500
18566W        W35414  16.754   2.978  11.032 -0.1434  0.5602  0.0667
18567W        W35415   4.753   1.456   0.205  0.0091  0.0379 -0.2362
18568W        W35416   3.751   8.805  15.239  0.0801 -0.2604 -0.0111
18569W        W35417  15.277  16.829  14.711 -0.0002  0.2284  0.1286
18570W        W35418   1.498   6.035  12.746 -0.0384 -0.0245  0.0694
18571W        W35419   7.432  13.817   1.681  0.0336 -0.3829  0.0485
18572W        W35420  11.487   3.968   0.727  0.1201 -0.0766  0.0442
18573W        W35421   8.727  11.972  12.599 -0.0300  0.2166 -0.3722
18574W        W35422  13.890   3.917   0.498 -0.1939  0.0975  0.0471
18575W        W35423  17.165   4.632  15.000 -0.0394  0.1110 -0.0276
18576W        W35424  12.568  14.761   1.079 -0.0559  0.0685  0.0655
18577W        W35425   7.944  18.106  16.117  0.0346 -0.3224  0.0367
18578W        W35426   1.469   8.557  11.202  0.0206  0.0511  0.2354
18579W        W35427   4.636  15.975  11.011  0.4768 -0.0895 -0.1866
18580W        W35428  13.030  13.796   4.895  0.1989  0.0744  0.2414
18581W        W35429  10.665   3.105  14.662 -0.0981 -0.1299  0.2501
18582W        W35430   7.436   7.093  11.580 -0.2221  0.0120  0.1919
18583W        W35431   6.278  15.225  11.483 -0.1069  0.0486  0.0191
18584W        W35432  12.104   8.735  15.704  0.1238 -0.3088 -0.2006
18585W        W35433  13.114   0.900   3.363  0.2538 -0.0436 -0.1350
18586W        W35434   0.968   0.810   5.919  0.0650 -0.2075  0.1677
18587W        W35435  17.120   5.492   2.383  0.1555 -0.0494 -0.0998
18588W        W35436   1.600   5.033   2.068  0.0874 -0.1141  0.1141
18589W        W35437  15.538   1.878   0.320  0.1222 -0.2441  0.0142
18590W        W35438   4.449   3.317   1.652  0.0717  0.2691  0.1073
18591W        W35439   9.148   0.654  13.956 -0.1011  0.0841 -0.1663
18592W        W35440   7.607  14.302   1.558  0.1207 -0.0187 -0.3110
18593W        W35441  17.766  14.709  12.458  0.0455  0.1745  0.0189
18594W        W35442   3.519  17.316  11.630  0.0900 -0.1512  0.3452
18595W        W35443  12.614   3.722   1.812 -0.3402  0.1788  0.2222
18596W        W35444   1.346   9.122  14.844  0.2387  0.0513 -0.0964
18597W        W35445  11.930   9.896  13.808 -0.2687 -0.1857  0.3000
18598W        W35446   1.853  11.897   0.670 -0.1231  0.0649  0.1543
18599W        W35447   4.375   4.562  11.625  0.1622 -0.2050  0.1404
18600W        W35448   0.483   3.473   3.232  0.0305 -0.0925 -0.0134
18601W        W35449  14.426   4.195  12.495 -0.1963 -0.2157  0.0689
18602W        W35450  13.957   6.800  12.726 -0.1072 -0.0214 -0.0514
18603W        W35451  13.002   2.808   1.741 -0.1385  0.0929  0.2961
18604W        W35452   7.113   2.869   4.558 -0.2963  0.1563  0.2573
18605W        W35453   5.834   1.622  14.393  0.2294  0.3322 -0.0580
18606W        W35454   2.931   7.981  13.460  0.0077  0.1292  0.0343
18607W        W35455   9.082   5.368  15.998  0.0746  0.2514 -0.2660
18608W        W35456  14.443   7.903  15.469  0.2387 -0.1467  0.3474
18609W        W35457  11.371   3.199   3.676  0.3705 -0.1193  0.0480
18610W        W35458   7.046  14.900   3.095  0.0931  0.0330  0.0193
18611W        W35459  12.125  15.289  14.834  0.1932 -0.2100  0.3372
18612W        W35460   6.212   8.000   2.270  0.1947 -0.5149  0.1270
18613W        W35461   9.916  18.205  13.822  0.1699  0.1751  0.1855
18614W        W35462  11.800   8.188  12.486  0.1879  0.2848 -0.1959
18615W        W35463  15.635  11.728  15.488 -0.1231  0.0864  0.1655
18616W        W35464  13.173  17.569  12.314  0.1181 -0.1608  0.1532
18617W        W35465   2.706  12.034   2.791  0.2157  0.0265  0.4391
18618W        W35466  11.045   7.945  12.855  0.0010  0.0033  0.1009
18619W        W35467   4.196  13.211  11.794  0.1557  0.2389  0.3186
18620W        W35468   6.702   2.629  14.807 -0.0464  0.4049  0.1883
18621W        W35469   2.155   2.492  14.836 -0.0312 -0.2443 -0.3238
18622W        W35470  15.541  14.782   1.444 -0.1238  0.1270 -0.0228
18623W        W35471   7.379   8.238  14.237 -0.1171 -0.0215  0.2497
18624W        W35472   8.017  16.447  12.912 -0.0544  0.2254  0.1836
18625W        W35473  10.362   3.696   1.605  0.1812  0.1065 -0.0506
18626W        W35474  10.012  13.515  14.951 -0.1056  0.2653  0.0218
18627W        W35475  13.564   1.376  13.405 -0.3670 -0.2090 -0.0639
18628W        W35476  11.836   6.578   1.362  0.1948  0.0159  0.1906
18629W        W35477   8.274  17.285  14.344  0.3461  0.0865  0.2019
18630W        W35478   6.218  14.190  13.591  0.4267 -0.1720  0.0381
18631W        W35479   3.447   6.574  14.253 -0.1918 -0.0438 -0.1860
18632W        W35480  13.198  15.401   2.604 -0.0424  0.0252 -0.1801
18633W        W35481   4.221  12.287  15.741  0.1122  0.1305 -0.4235
18634W        W35482  16.317  10.154  11.061 -0.1085 -0.3855  0.0092
18635W        W35483   5.653   2.881   0.840 -0.0331 -0.1568  0.3677
18636W        W35484  11.288   3.971   2.344  0.0807  0.3316  0.1002
18637W        W35485   9.230   4.298   1.502  0.2236 -0.3257  0.1282
18638W        W35486  17.386   2.651  11.555 -0.0307  0.3128  0.3066
18639W        W35487   5.866  15.070   0.662 -0.3760  0.4201  0.0394
18640W        W35488  16.677  14.843   3.227  0.3042 -0.1383 -0.0538
18641W        W35489  15.941  15.293  13.336 -0.2621  0.1938 -0.2455
18642W        W35490  11.806   8.909  13.516 -0.0305  0.1946 -0.2527
18643W        W35491   8.174  14.648  11.679 -0.0848 -0.1086  0.1287
18644W        W35492  17.305   5.978   3.334 -0.1088 -0.0883  0.0642
18645W        W35493  16.859  18.077   2.104  0.1630  0.1650 -0.3113
18646W        W35494   2.668  14.164   0.059  0.2908 -0.5282 -0.2963
18647W        W35495  13.690  14.955   0.346 -0.1741 -0.2634 -0.1883
18648W        W35496  10.015   8.759   5.485  0.2397 -0.0155 -0.0182
18649W        W35497  13.642  14.375   5.770 -0.0570 -0.1728  0.0074
18650W        W35498  14.281   8.147  11.843  0.1383  0.1110 -0.2994
18651W        W35499   1.112   8.022   0.373  0.0591  0.1029 -0.1815
18652W        W35500  14.787  11.659   3.706 -0.0871 -0.1255  0.1616
18653W        W35501  12.040   2.202  14.901 -0.0862  0.0662  0.0748
18654W        W35502   9.917   1.914   2.085 -0.0265 -0.2163 -0.1627
18655W        W35503   4.779   4.068   2.609 -0.1038 -0.0287  0.1321
18656W        W35504   9.289  10.697  13.916 -0.1408  0.0404  0.1221
18657W        W35505  13.451   3.506  15.936 -0.1240 -0.4558  0.0103
18658W        W35506  16.060   4.711  12.302 -0.1805  0.3172  0.0378
18659W        W35507   7.705   0.400   1.685  0.1176 -0.0969 -0.3405
18660W        W35508  13.397   1.288  14.339 -0.2737  0.1396  0.2923
18661W        W35509  17.015   5.605  13.080  0.2259 -0.3310 -0.4115
18662W        W35510  15.244  12.679  11.375 -0.0323 -0.2225  0.0016
18663W        W35511  13.617  14.650  15.593  0.3220 -0.3978  0.1548
18664W        W35512   0.009   4.564   0.485 -0.0514 -0.3555  0.0450
18665W        W35513   4.549  11.776   0.757 -0.2229  0.1350 -0.1704
18666W        W35514   8.342  14.624  14.700  0.1254  0.0919  0.3045
18667W        W35515  11.912   0.650  13.740  0.0024  0.4880 -0.0718
18668W        W35516   4.127  15.252  15.473 -0.1189  0.0002  0.2075
18669W        W35517   8.263   8.409  14.950  0.0209  0.2069  0.1380
18670W        W35518  14.688  17.134   3.893  0.1162  0.0349 -0.1907
18671W        W35519   2.839   2.440  11.382  0.1076 -0.2552 -0.4454
18672W        W35520   9.692   3.723   4.870 -0.2278 -0.2479  0.0436
18673W        W35521   8.389   1.437  10.951  0.0474  0.0697 -0.2501
18674W        W35522  14.620   4.193  15.366 -0.1935  0.0381  0.0231
18675W        W35523  13.215  13.908   1.909  0.1423 -0.0935  0.0602
18676W        W35524  12.513   5.991   4.830 -0.0668 -0.0872  0.0720
18677W        W35525   6.388  15.202  13.545  0.2405 -0.0809  0.1336
18678W        W35526   1.400  16.619  14.193  0.1689 -0.2256 -0.0216
18679W        W35527  17.809   6.157  13.614 -0.3607  0.2386 -0.2675
18680W        W35528  11.725   6.184   0.161 -0.2345  0.0754 -0.0253
18681W        W35529  18.192   8.655   0.597  0.4441 -0.3142 -0.5612
18682W        W35530  12.295   5.653  13.671  0.1846 -0.3040 -0.1869
18683W        W35531   9.666   7.926   4.692  0.1001  0.2042 -0.0207
18684W        W35532   8.024  13.992   0.821 -0.0976  0.0852  0.0257
18685W        W35533   3.575   2.412  15.571 -0.2710  0.0124 -0.0662
18686W        W35534   0.486  16.222  14.562 -0.1046 -0.0917  0.1172
18687W        W35535   0.998  16.464   0.663  0.0023  0.0137 -0.1980
18688W        W35536  12.708  15.964  11.216 -0.1414  0.1017 -0.3750
18689W        W35537  10.536  15.284   4.139  0.3725 -0.0648  0.1758
18690W        W35538   1.347  11.056   1.240  0.1364 -0.2089 -0.2516
18691W        W35539   9.464  12.731  12.231  0.0942  0.1247 -0.1251
18692W        W35540   0.611   6.439  13.471  0.0760  0.3048  0.4767
18693W        W35541   5.099  17.120   2.202  0.2257  0.2567  0.2161
18694W        W35542  16.023   5.460   3.858 -0.1651 -0.2163 -0.0359
18695W        W35543  11.907  11.454  15.064  0.2576 -0.0782  0.0748
18696W        W35544   5.705  15.188   4.180  0.4350 -0.2314  0.0282
18697W        W35545  17.007   9.915  15.572  0.0722 -0.1336 -0.0341
18698W        W35546  10.837   7.656   4.468  0.0835  0.0386 -0.1923
18699W        W35547   6.057   0.661   2.225  0.0945 -0.2327 -0.3082
18700W        W35548   8.102   4.965   4.028 -0.2065 -0.0854 -0.1326
18701W        W35549  10.944   3.760   3.004  0.1381  0.0831  0.0052
18702W        W35550   3.149  17.362  14.002  0.2453  0.0185 -0.1905
18703W        W35551   9.792   1.306  15.107  0.0803  0.0864 -0.1533
18704W        W35552  11.684  12.969   4.037  0.3169  0.1477  0.4161
18705W        W35553   5.207  10.913   3.597  0.0799  0.1076  0.0859
18706W        W35554   7.210  17.079   0.987  0.0336  0.1645  0.4018
18707W        W35555  16.568  13.436   3.486  0.1416  0.1005 -0.0196
18708W        W35556   1.619  12.515   2.902 -0.1591  0.2315  0.0210
18709W        W35557   9.832  10.500  12.303 -0.0840 -0.1346  0.1792
18710W        W35558  12.503   8.710   5.547  0.3402 -0.0482 -0.1267
18711W        W35559  10.292  17.949  15.378  0.0598  0.2676 -0.1123
18712W        W35560  13.912   4.673   2.454 -0.1782  0.0436  0.3011
18713W        W35561  17.466   0.618   1.087 -0.0898  0.3580 -0.2257
18714W        W35562   1.789   3.861   3.554  0.3452  0.1719 -0.2425
18715W        W35563  13.621   1.613   0.573 -0.0709 -0.0179 -0.1654
18716W        W35564  17.932  17.533   0.065 -0.0933  0.1937 -0.1075
18717W        W35565   6.517  13.021   3.710 -0.0936  0.0593  0.0047
18718W        W35566  10.658   3.159   3.944  0.0316 -0.1320  0.1981
18719W        W35567  17.004   9.429   2.594  0.0845 -0.0940 -0.1235
18720W        W35568   7.203  16.520  12.118 -0.1646  0.0265  0.0942
18721W        W35569  10.813   5.440  12.332 -0.0741  0.0267 -0.0771
18722W        W35570   6.258   1.159   2.381  0.1729  0.0362 -0.0362
18723W        W35571   6.298   4.521  12.611  0.2262 -0.2419 -0.1497
18724W        W35572   8.849  17.071   4.562  0.0533 -0.2089 -0.0638
18725W        W35573   1.647   1.635  14.607 -0.5002 -0.0476  0.3468
18726W        W35574  11.835  11.515   1.442 -0.0007 -0.1116  0.0955
18727W        W35575  10.142  13.271  12.604 -0.1366  0.2193  0.2452
18728W        W35576   7.653   0.027  14.756 -0.0593 -0.1746  0.0143
18729W        W35577   1.850  14.860  10.957  0.3378 -0.1126 -0.1591
18730W        W35578  10.227   1.067   3.165  0.1941 -0.1837 -0.2186
18731W        W35579   7.712   0.398  12.812 -0.1270  0.0170  0.1077
18732W        W35580  15.951   5.909  14.726 -0.0345 -0.0476  0.1224
18733W        W35581  17.167  13.249   2.060 -0.0172  0.0832  0.0856
18734W        W35582  18.018  13.767  14.561 -0.0818  0.0914  0.1836
18735W        W35583  15.911   4.245   2.195 -0.1120 -0.0326  0.0519
18736W        W35584   1.980   0.492  13.358 -0.4745  0.0264 -0.0047
18737W        W35585   7.503   8.642   6.523  0.0058  0.0798  0.1245
18738W        W35586  10.775   1.108  11.498 -0.4237 -0.0509 -0.1650
18739W        W35587   9.110   1.584  13.221 -0.0761 -0.0611 -0.1370
18740W        W35588  15.733  16.926   3.208 -0.0036  0.0382 -0.1065
18741W        W35589  16.543   7.940   3.044  0.3946 -0.0275 -0.0404
18742W        W35590   0.884  10.823   1.095  0.3289 -0.1332  0.2349
18743W        W35591   5.498  10.951   3.038  0.1897 -0.2239 -0.1185
18744W        W35592   3.312   6.763  11.632  0.0293  0.2935 -0.2534
18745W        W35593   6.124  15.006   2.304  0.0352  0.3221  0.0753
18746W        W35594   3.376   4.988  11.818  0.1290  0.1054 -0.5580
18747W        W35595   0.742  11.484  11.273  0.0954 -0.2572 -0.0738
18748W        W35596   7.081  14.424  13.463  0.4707  0.1165  0.0147
18749W        W35597   9.953   7.924  16.042  0.3797  0.0542  0.2554
18750W        W35598   1.843  14.068   0.405  0.3164 -0.0455 -0.3308
18751W        W35599   2.506   9.967   2.611  0.0588  0.0350  0.2858
18752W        W35600   6.946  18.055  14.102  0.0690 -0.1782  0.0212
18753W        W35601  15.391   7.997  13.163 -0.3627  0.0614 -0.3238
18754W        W35602   2.462   3.342  11.176 -0.2143  0.0972 -0.0694
18755W        W35603  10.357  10.493  14.435  0.0638 -0.2997 -0.1092
18756W        W35604   2.367  10.195   3.419 -0.0510  0.0893 -0.1510
18757W        W35605   0.382   6.350  15.021 -0.0808  0.0881  0.1117
18758W        W35606   3.188  13.444  12.803 -0.0017 -0.0512 -0.2889
18759W        W35607  14.870   6.342  13.421  0.2255  0.2329  0.0436
18760W        W35608   4.589  10.896   1.752 -0.1551  0.0518 -0.2128
18761W        W35609   4.352  11.861  15.364 -0.0428 -0.0103  0.2556
18762W        W35610   9.891  12.691  14.999  0.1009 -0.1668 -0.0171
18763W        W35611   5.307   2.219   1.925  0.4970 -0.2084  0.0087
18764W        W35612   9.518   7.029   0.253  0.0807 -0.0230 -0.0658
18765W        W35613   0.067  14.293   1.733  0.1122 -0.0526  0.1052
18766W        W35614   0.972   3.628   4.756  0.1803  0.1064 -0.0203
18767W        W35615   4.526  15.551  15.679 -0.0444  0.1583  0.2223
18768W        W35616   8.201   5.984   4.487 -0.3036  0.1189  0.1377
18769W        W35617  11.560  11.408   4.956  0.2256 -0.0085  0.1988
18770W        W35618   2.843   6.857  12.576 -0.0520  0.0721  0.1045
18771W        W35619   6.829   6.721   1.265  0.3655 -0.2728  0.1166
18772W        W35620  13.922  10.105  13.327 -0.1333 -0.0854 -0.0059
18773W        W35621  10.929   6.316   1.299  0.1342  0.1403  0.1819
18774W        W35622  12.748  15.027   4.602 -0.1663  0.1044  0.0760
18775W        W35623   4.568  10.915   4.561  0.2340 -0.0364 -0.3934
18776W        W35624   6.826   1.725   2.875 -0.2183 -0.0009 -0.0567
18777W        W35625  12.379  11.418   5.281 -0.0664 -0.2756  0.0590
18778W        W35626   2.450   4.017  12.596 -0.1634 -0.3751  0.0760
18779W        W35627  14.928   9.248   3.082  0.0349  0.0532 -0.1713
18780W        W35628   1.307  12.724  13.625  0.0755  0.0090 -0.2214
18781W        W35629  15.652   3.447  11.036  0.0192 -0.1336 -0.2264
18782W        W35630  14.573  10.804   2.590 -0.1417 -0.4435  0.2637
18783W        W35631   4.918   5.864  12.859 -0.0260  0.0353 -0.2282
18784W        W35632   7.601  18.041   3.643  0.0136 -0.1353  0.0252
18785W        W35633  13.792  12.696   1.351 -0.0987 -0.0495 -0.0743
18786W        W35634   3.036  14.036  14.847 -0.1416 -0.0055 -0.2428
18787W        W35635   5.383  12.564  11.168 -0.1820 -0.1044 -0.2681
18788W        W35636   7.599  13.590  15.160  0.0760 -0.4657  0.2402
18789W        W35637  10.478  12.041  11.485  0.0810  0.2544  0.3900
18790W        W35638   3.319   2.475   0.179  0.2012 -0.0812  0.0373
18791W        W35639  15.425  14.692   3.994 -0.0710 -0.2278  0.0921
18792W        W35640  10.889   3.916  14.542  0.0781  0.2853  0.2532
18793W        W35641  11.181  17.632   5.065 -0.2429 -0.0000  0.0166
18794W        W35642  14.413  11.752   5.083 -0.0136  0.5235  0.0468
18795W        W35643   1.660   3.412   5.028 -0.0830 -0.1973  0.0859
18796W        W35644  16.235   8.145  12.953 -0.0267 -0.1612  0.2862
18797W        W35645   4.137  12.418   1.904  0.4489 -0.2279 -0.1985
18798W        W35646  13.618   6.377   3.961 -0.3372  0.0215 -0.0154
18799W        W35647   5.987  13.640   2.652  0.0804 -0.0904  0.0445
18800W        W35648   2.090  12.474  13.488  0.1102 -0.2169  0.0136
18801W        W35649   4.800  15.930  15.936 -0.0914  0.1230 -0.2790
18802W        W35650  13.636  17.145  14.153  0.0294  0.0826  0.0376
18803W        W35651   1.744  17.878  12.057  0.1552 -0.4098  0.2823
18804W        W35652   1.359  18.162  12.209  0.1757 -0.0292  0.0522
18805W        W35653   2.463  14.743  14.184 -0.2757  0.1407  0.0061
18806W        W35654   7.365  15.359   1.848 -0.1034  0.3457  0.0145
18807W        W35655   6.757   2.957  14.241 -0.0781 -0.0567 -0.1125
18808W        W35656  12.798  11.227  12.763 -0.1527  0.0381 -0.2351
18809W        W35657  12.971  11.114  11.631  0.1691  0.2457 -0.2453
18810W        W35658   4.262  11.614   0.216 -0.1363  0.1905  0.0863
18811W        W35659  14.957   2.508   0.652 -0.1998  0.3984 -0.0369
18812W        W35660   6.087   1.430  15.252 -0.2601 -0.1476  0.0808
18813W        W35661   3.620   0.870   2.754 -0.0329 -0.2078  0.0174
18814W        W35662   7.412   5.612  14.427 -0.0239  0.2609 -0.1261
18815W        W35663  18.140   9.568  14.018  0.0952 -0.2747  0.0900
18816W        W35664  15.020  16.784   4.712 -0.0600  0.0176  0.0593
18817W        W35665  17.546   1.596  13.271 -0.2673 -0.0647  0.2016
18818W        W35666   7.960   3.887  14.310  0.0396  0.2947  0.4159
18819W        W35667  14.610   9.911   1.147  0.3181  0.0111  0.1832
18820W        W35668  13.918  10.060   3.135 -0.0467  0.2610  0.0920
18821W        W35669   9.970   6.716   1.092  0.3431 -0.0496  0.0564
18822W        W35670  13.226  17.924   1.271 -0.2580 -0.0567 -0.1002
18823W        W35671  12.792   2.644   5.404  0.1527 -0.0383 -0.1560
18824W        W35672  10.525   6.150   2.766 -0.1356 -0.0496 -0.2942
18825W        W35673   7.246  12.101  15.365 -0.1689 -0.0220  0.3769
18826W        W35674   5.487   3.433   1.527 -0.1536  0.1301  0.1097
18827W        W35675  12.870   4.271  15.741 -0.2597 -0.2284  0.1373
18828W        W35676   0.145  10.087   4.489 -0.1693  0.0218 -0.2181
18829W        W35677   5.032  11.909  12.045  0.1184 -0.1068 -0.0778
18830W        W35678   9.736  10.982  12.185 -0.0997  0.4994 -0.0380
18831W        W35679   4.792  10.213   0.187  0.1492  0.1148 -0.1230
18832W        W35680   9.688  15.755  11.338 -0.2756  0.1021 -0.0338
18833W        W35681  11.364  15.285   0.357 -0.2307  0.1945 -0.3877
18834W        W35682  13.557   4.649   2.880  0.0926 -0.1330  0.4195
18835W        W35683   2.205  13.528   2.303  0.0125 -0.1243 -0.2402
18836W        W35684  16.013   2.579   4.081 -0.1685 -0.1199 -0.5108
18837W        W35685  13.670   3.051  11.479  0.1777 -0.2343 -0.3286
18838W        W35686   7.072  12.947   0.380 -0.1314  0.0561 -0.0477
18839W        W35687   0.421   2.494   1.813 -0.0793  0.1778  0.1339
18840W        W35688  13.537  14.116   1.589  0.1237 -0.0704 -0.3040
18841W        W35689  14.805   8.376   0.456  0.1729  0.0947  0.0426
18842W        W35690   1.639  13.040  10.907  0.0061 -0.2852 -0.1124
18843W        W35691   7.239  10.663  13.892 -0.0590  0.1401  0.3233
18844W        W35692  16.815  10.045  12.897 -0.2961 -0.2308  0.0961
18845W        W35693   8.799   4.053  14.698 -0.3764 -0.2097  0.0083
18846W        W35694   8.281   9.192   4.451 -0.0953  0.1247  0.0791
18847W        W35695  10.644  15.216  14.463 -0.1618  0.1763 -0.0668
18848W        W35696   1.641   6.244   2.332 -0.0170  0.1938  0.3572
18849W        W35697  14.337   1.685   4.539 -0.0937 -0.4860 -0.0579
18850W        W35698  16.081   3.434   0.791 -0.3655 -0.0666  0.1937
18851W        W35699   4.810  14.188   1.910 -0.2097  0.0853  0.1264
18852W        W35700   9.792  10.204  11.374 -0.0957 -0.0929 -0.1363
18853W        W35701  10.348   2.991  13.897  0.2672  0.0504  0.3091
18854W        W35702   9.415   0.958  14.775 -0.1469  0.0719 -0.3253
18855W        W35703   2.324   6.780  11.565  0.0269 -0.2569  0.0546
18856W        W35704   6.396   1.225  13.132  0.0201  0.1554 -0.3196
18857W        W35705   3.521   0.263  13.364 -0.0177  0.0528 -0.2343
18858W        W35706   2.067  10.132  11.917  0.2101 -0.1624 -0.0079
18859W        W35707  16.869   3.462   1.379 -0.2565  0.1773  0.0321
18860W        W35708   8.144   8.125  13.572 -0.0725 -0.0623  0.0138
18861W        W35709  11.227   5.332   2.211  0.1575  0.3207  0.0628
18862W        W35710   5.988   5.503   5.584 -0.3538  0.1047  0.0869
18863W        W35711   9.436  16.035  13.630 -0.0407 -0.4906 -0.0044
18864W        W35712   8.768  15.601   0.959  0.0294  0.0353 -0.0462
18865W        W35713   5.581   2.540  11.441 -0.1081 -0.1045  0.2383
18866W        W35714  15.137   4.374   1.690 -0.2452  0.3677 -0.1244
18867W        W35715  17.553  10.734   0.036  0.0054 -0.1515 -0.2403
18868W        W35716  13.227   3.127  11.783  0.0858  0.2616 -0.0814
18869W        W35717   9.496   6.169  12.674 -0.0509 -0.1508  0.1802
18870W        W35718   8.793  18.202  13.299  0.0670  0.0850  0.0953
18871W        W35719   2.030  12.977  12.130  0.1943  0.0932 -0.1245
18872W        W35720   0.970   3.326   1.330 -0.0928 -0.0558  0.0770
18873W        W35721   4.538   5.322   2.565  0.1076  0.2131 -0.1011
18874W        W35722   7.827   4.417   5.026 -0.1126 -0.1128  0.3328
18875W        W35723   7.410  11.694   0.183 -0.0958 -0.2165 -0.1352
18876W        W35724   5.053  12.829   1.874 -0.3323 -0.1874  0.0209
18877W        W35725   8.930   4.782   3.752 -0.1585 -0.0636 -0.0797
18878W        W35726   0.648   7.086  15.412 -0.0846  0.0523  0.0751
18879W        W35727  13.264  15.000  13.718 -0.0319  0.0585 -0.4872
18880W        W35728  12.057  16.370   5.188  0.2039 -0.1432 -0.0574
18881W        W35729  11.013  10.217   3.965  0.1086 -0.0046  0.0717
18882W        W35730  17.586  12.886   3.491 -0.2007 -0.3259  0.1262
18883W        W35731   0.448   2.076  12.979 -0.0299 -0.1211 -0.0251
18884W        W35732  13.264   6.645   0.205 -0.0190  0.0529 -0.3541
18885W        W35733  13.097  12.738   2.930 -0.0870  0.0484 -0.1038
18886W        W35734   4.655   1.765   6.243  0.1327  0.0384  0.0947
18887W        W35735   5.871  11.744   1.076 -0.1761  0.1116  0.0274
18888W        W35736   7.629  11.479   3.820  0.1245  0.3517 -0.1946
18889W        W35737   2.384   2.451  15.310  0.0004  0.0527  0.1289
18890W        W35738   1.357  16.006   0.175 -0.1326 -0.0497 -0.0432
18891W        W35739   0.928   6.960   2.027 -0.1634 -0.1426  0.0681
18892W        W35740   6.793   0.781  15.766 -0.1157 -0.2820 -0.0452
18893W        W35741   1.886  13.685   0.731  0.1098  0.0110  0.0372
18894W        W35742   9.011  15.265   3.615 -0.0509 -0.2106  0.0943
18895W        W35743  17.404  10.968  14.068  0.1935 -0.0805  0.1242
18896W        W35744   2.390   1.660  12.928 -0.0311 -0.0079 -0.0406
18897W        W35745   9.991   1.736  13.066  0.0785 -0.1181 -0.0507
18898W        W35746  10.620   0.142   2.696  0.2319 -0.0502  0.1649
18899W        W35747   8.691   7.998  15.700  0.0028 -0.2129 -0.1022
18900W        W35748   6.423  13.748  14.340  0.0737  0.2063  0.2324
18901W        W35749  15.589  13.011   3.365  0.1851 -0.1687 -0.1616
18902W        W35750   9.122   6.304  14.143 -0.3801  0.2284  0.1336
18903W        W35751   9.734   0.311   1.453  0.6093  0.0570  0.1170
18904W        W35752   8.009  12.097   1.721 -0.0465  0.0580 -0.2079
18905W        W35753  16.996   6.922  14.763 -0.0338  0.4487 -0.1177
18906W        W35754   9.356  14.076   2.183  0.1801  0.0840  0.0774
18907W        W35755  11.387  18.016  12.155 -0.1555 -0.2735 -0.2132
18908W        W35756  10.718  10.435   0.594  0.0411 -0.1208 -0.2973
18909W        W35757   7.959   4.907  14.362 -0.0729  0.1134 -0.0823
18910W        W35758   1.896   4.839   2.924 -0.0728  0.1059 -0.0717
18911W        W35759   2.286   8.268  14.771  0.1290  0.0358 -0.1969
18912W        W35760   7.587  12.588   2.531  0.0080 -0.0089  0.0541
18913W        W35761   2.825   5.145  14.916 -0.1428  0.2092 -0.0203
18914W        W35762   8.695   1.415  13.541  0.1238  0.2009  0.1315
18915W        W35763  18.066   7.373  11.707 -0.0082 -0.0451  0.0117
18916W        W35764   8.444   2.860  12.099  0.0108  0.2883  0.1006
18917W        W35765  11.523   5.314   5.349  0.0923 -0.1755  0.1102
18918W        W35766  13.842   1.235   2.895  0.2347  0.0187 -0.4247
18919W        W35767   7.030   2.309   4.964  0.2940 -0.1135 -0.2471
18920W        W35768   8.109  17.524  12.710  0.1269  0.1865 -0.1378
18921W        W35769  15.576  10.410   5.337  0.2208 -0.0062 -0.0972
18922W        W35770   1.549  12.550   1.721 -0.1389 -0.1754  0.1480
18923W        W35771   4.528  11.705  11.928 -0.0016  0.0810 -0.0438
18924W        W35772  12.741  14.893  12.113  0.0649  0.2792  0.1596
18925W        W35773   9.874  13.697  13.443  0.0449  0.1430 -0.2543
18926W        W35774  18.174  12.113  14.400 -0.2277 -0.2990  0.2877
18927W        W35775  11.429   8.300   3.940  0.0880 -0.3957 -0.2330
18928W        W35776   9.058   6.669   3.872 -0.1200 -0.0107 -0.3634
18929W        W35777  13.094   9.119  13.425 -0.2102 -0.0632 -0.3689
18930W        W35778   5.017   1.262   3.564  0.0454 -0.0375 -0.1139
18931W        W35779  14.923   0.918  11.295 -0.0278 -0.1137 -0.0171
18932W        W35780   4.912   7.637  11.533  0.3208  0.3194 -0.1035
18933W        W35781  10.193  14.700  15.127 -0.3503  0.1543  0.1270
18934W        W35782   9.693   3.825  13.715  0.0774 -0.1912  0.0810
18935W        W35783  12.298   4.118   1.043  0.0986  0.1226 -0.0134
18936W        W35784   8.132  16.914  12.702 -0.2941 -0.0803 -0.3828
18937W        W35785  10.259   7.512  15.678 -0.1409 -0.0295 -0.0657
18938W        W35786  17.085   9.455  10.869 -0.0659 -0.0419 -0.2386
18939W        W35787  10.602  13.914   1.653 -0.1404 -0.5270  0.0912
18940W        W35788  14.757  17.187   5.587  0.0056 -0.1167  0.2373
18941W        W35789  17.883   8.570  15.153 -0.1768 -0.2479 -0.1576
18942W        W35790   3.164  12.377  15.331  0.2077 -0.0880  0.3191
18943W        W35791   2.401   2.887  12.519  0.1998 -0.2925  0.5344
18944W        W35792  17.125   8.690   2.647 -0.0740 -0.3753 -0.0615
18945W        W35793  16.369  12.571   3.688 -0.2306  0.1281 -0.2906
18946W        W35794  17.396   9.808   4.442  0.0964  0.0300 -0.3003
18947W        W35795   5.037   1.779   4.363 -0.2835 -0.4432  0.2147
18948W        W35796  14.093  17.712   2.881 -0.0013 -0.1873  0.2795
18949W        W35797  14.088  13.212  14.569 -0.2525  0.2163 -0.1763
18950W        W35798  14.297   6.196   4.567  0.2430 -0.0692  0.2640
18951W        W35799   4.197   6.103   3.680  0.0961  0.0712 -0.3101
18952W        W35800   0.274  14.817   1.971 -0.1302  0.3865 -0.0101
18953W        W35801  14.253  12.133   4.298 -0.1173  0.3000  0.0360
18954W        W35802  15.060  10.950   4.812  0.0663  0.1004  0.4475
18955W        W35803  11.558  16.128  12.758  0.0313 -0.2442  0.1441
18956W        W35804  11.036  17.679   3.100 -0.0466  0.3540 -0.0339
18957W        W35805   1.345   9.113  15.859  0.1569  0.2877  0.2351
18958W        W35806   7.408  16.625   4.987 -0.0836  0.0099 -0.1157
18959W        W35807   0.225   4.889  12.793 -0.0510 -0.2193  0.0314
18960W        W35808   9.997  17.672   1.809  0.0924 -0.0035  0.3188
18961W        W35809   2.661  16.787   4.361  0.2273 -0.0367  0.2189
18962W        W35810  11.623   8.880  11.832 -0.1858  0.3770 -0.2199
18963W        W35811   9.771   3.122   2.502  0.1820  0.2596 -0.1127
18964W        W35812   9.796  12.193  15.677 -0.0743  0.2768  0.3014
18965W        W35813  16.715  14.661  13.552 -0.0227 -0.0927 -0.0139
18966W        W35814  14.482   3.600  11.154 -0.0179  0.0742 -0.2246
18967W        W35815   0.583   9.121  12.184 -0.0079  0.1746  0.3227
18968W        W35816  13.508  13.370  12.215  0.2195 -0.1061 -0.0085
18969W        W35817   7.265   9.947   0.045  0.2567 -0.0975  0.0057
18970W        W35818  18.157  12.221  13.910 -0.2945  0.2808  0.1769
18971W        W35819  10.015   4.538  15.189  0.2938 -0.1961 -0.2788
18972W        W35820  18.069  17.240  15.592  0.1231 -0.2989 -0.1263
18973W        W35821  12.403  15.569   2.666  0.2748  0.1017 -0.0022
18974W        W35822   0.324   8.224   4.110 -0.0588  0.1235  0.2357
18975W        W35823  18.056   8.954  14.707  0.1081 -0.1559  0.2942
18976W        W35824   6.390   3.827  15.803  0.0231  0.0846  0.2705
18977W        W35825   0.858   4.076   5.002  0.0805  0.0470  0.1867
18978W        W35826   5.742   9.020   4.756  0.2662 -0.3037  0.0726
18979W        W35827  15.239  16.038   0.894 -0.2466 -0.0168 -0.1483
18980W        W35828  12.914   8.735   4.463  0.3423  0.3612  0.0267
18981W        W35829  17.984  14.147  12.400 -0.1725 -0.0694  0.0061
18982W        W35830  15.980  10.736   5.460 -0.2885 -0.1788 -0.0877
18983W        W35831   3.603   8.760  15.738  0.3095  0.2716 -0.1327
18984W        W35832   2.837   6.116   5.351 -0.2802 -0.2272 -0.0310
18985W        W35833   0.323   8.935  10.571  0.1875 -0.1103 -0.0428
18986W        W35834   3.265  17.491   2.723 -0.0371  0.0589 -0.0507
18987W        W35835  15.730  14.131   5.339 -0.0846 -0.1012  0.4505
18988W        W35836  15.281  10.650  12.265  0.2658  0.0863  0.1133
18989W        W35837   2.519  12.237  16.033 -0.1884  0.1258  0.1325
18990W        W35838  16.409   4.088   2.089 -0.3176 -0.0270 -0.0171
18991W        W35839   0.983   1.747  11.843  0.0955  0.2228  0.1705
18992W        W35840  16.525   3.536   3.075  0.2094  0.1919 -0.1169
18993W        W35841  14.955  11.405  12.711 -0.1731  0.0144  0.0115
18994W        W35842  14.410  10.545  12.378 -0.1165  0.1101 -0.1024
18995W        W35843   0.845  17.792  12.239 -0.2077 -0.1165 -0.2296
18996W        W35844  12.193   2.899   2.867 -0.1072 -0.1874 -0.2141
18997W        W35845   0.532  13.547   1.746  0.1829 -0.0774 -0.2004
18998W        W35846   9.463  15.225  11.373  0.2478 -0.0294  0.0060
18999W        W35847   7.607   6.749  10.361 -0.1292 -0.1648  0.2001
19000W        W35848  10.221  16.483  11.550  0.0381  0.0462 -0.1586
19001W        W35849  16.960   6.015  15.148 -0.1034  0.0801 -0.1499
19002W        W35850  15.806  15.090   2.879  0.1058  0.1794  0.3197
19003W        W35851   0.621   4.465  15.993  0.3202  0.3549 -0.1106
19004W        W35852   8.460   3.587   3.234  0.1187 -0.0851 -0.0563
19005W        W35853   0.224   9.005  13.579 -0.0158  0.5522  0.1096
19006W        W35854  17.660  16.647   0.542  0.1169 -0.1236  0.0211
19007W        W35855   8.860   1.015  11.786 -0.1013 -0.2390 -0.1945
19008W        W35856  13.141  16.027  11.409  0.0827 -0.0083 -0.0327
19009W        W35857  10.742   0.228  14.896 -0.3075 -0.0745  0.1061
19010W        W35858   2.449   8.698   4.541  0.1036 -0.0683  0.1550
19011W        W35859   5.916   8.560   1.655 -0.1067 -0.0335  0.1275
19012W        W35860   4.580   1.453  15.187  0.2156 -0.1093 -0.1951
19013W        W35861  17.812  10.373  15.338 -0.3818  0.0966  0.0946
19014W        W35862   5.921   7.358   1.349 -0.0525  0.1150 -0.0940
19015W        W35863   8.733   0.063  15.666 -0.4419  0.0443 -0.1675
19016W        W35864   2.853  13.218  11.085 -0.0842  0.2945 -0.1006
19017W        W35865  14.533   1.349   1.637  0.0441 -0.0806  0.1702
19018W        W35866   2.461  12.933   0.068 -0.1080 -0.1626  0.0890
19019W        W35867   1.984  11.050   0.199 -0.0697  0.2096 -0.1366
19020W        W35868   3.337  12.406   5.184 -0.0399  0.0184 -0.1620
19021W        W35869   7.597  12.353   6.411 -0.2897  0.1742  0.0563
19022W        W35870  16.097   7.414   1.490 -0.0912 -0.3190  0.5183
19023W        W35871   8.098  14.520   1.371 -0.1291 -0.0228  0.1525
19024W        W35872  12.254   2.711  15.682 -0.0310  0.2211  0.2406
19025W        W35873   2.418   8.379  11.737 -0.0579  0.3480 -0.0602
19026W        W35874  11.168  11.244  14.738  0.3098 -0.0480 -0.3847
19027W        W35875   2.684   0.038  12.278  0.2190 -0.2530 -0.0772
19028W        W35876   4.161   4.305   2.901 -0.0385  0.1640 -0.2308
19029W        W35877   7.172  16.992   1.914 -0.0708  0.0742 -0.1493
19030W        W35878   6.237   4.117  13.560  0.3150 -0.0698  0.1207
19031W        W35879  10.295  17.682   5.346 -0.2730 -0.0595  0.1864
19032W        W35880  11.252   5.491   0.646  0.2340 -0.2586 -0.1092
19033W        W35881   2.960  14.440  14.012 -0.0739  0.0233 -0.1244
19034W        W35882   5.050   4.756   1.975  0.1101  0.0732  0.3453
19035W        W35883   7.198  14.678   3.502 -0.2155  0.0502  0.0698
19036W        W35884  14.187   8.938   3.841  0.2209  0.1731  0.2648
19037W        W35885  10.315  13.509   0.297  0.2991  0.0431  0.1722
19038W        W35886   6.819   1.118  14.697  0.3802 -0.3508  0.0016
19039W        W35887   8.622   1.330  15.122 -0.0641  0.1234 -0.0572
19040W        W35888   2.347   7.870  11.745 -0.0107  0.0618 -0.3106
19041W        W35889  15.474   6.214  11.475 -0.1754  0.0144  0.1348
19042W        W35890   9.848   7.914   1.010 -0.1535 -0.1843 -0.0947
19043W        W35891  13.736  15.887  10.862 -0.1548 -0.3815 -0.2951
19044W        W35892   4.062  12.670   0.985 -0.2222 -0.0012  0.0552
19045W        W35893   8.484  11.203  15.973 -0.0617 -0.1883  0.1132
19046W        W35894  13.377  17.767  11.754  0.1620 -0.2763 -0.2513
19047W        W35895   8.269   8.265   5.323  0.4122 -0.1673 -0.3802
19048W        W35896   3.965  16.818   6.285  0.0222 -0.1386 -0.0664
19049W        W35897  10.273   2.482  13.710 -0.1343 -0.0451  0.1873
19050W        W35898  16.870   8.403   5.826 -0.2003 -0.1218  0.0726
19051W        W35899  10.309  12.676  11.942 -0.3192 -0.1309 -0.2087
19052W        W35900   0.032   0.693  13.568  0.2817  0.3108 -0.1397
19053W        W35901  11.214   4.390  13.294 -0.3946 -0.0106 -0.4039
19054W        W35902   9.163   6.235  11.243 -0.0287 -0.0202  0.2883
19055W        W35903  14.925   0.367  15.516 -0.1027  0.3355 -0.2096
19056W        W35904   2.694  12.102  11.208 -0.0500 -0.1741 -0.0838
19057W        W35905   4.853  12.886  12.299  0.1566 -0.1880  0.1665
19058W        W35906   0.505  11.134   0.979  0.0035 -0.1531 -0.1046
19059W        W35907  12.371  11.128  15.207  0.1138  0.0730 -0.2815
19060W        W35908   9.342   7.956   3.422 -0.2855  0.0294 -0.1826
19061W        W35909  14.205   1.862   3.677  0.2939  0.4274  0.1077
19062W        W35910  11.741   8.372  11.646  0.1834  0.0861 -0.1144
19063W        W35911   5.605   0.113   3.869 -0.0509 -0.2638  0.0498
19064W        W35912   2.028  13.467  14.111 -0.1201 -0.1018 -0.1854
19065W        W35913   9.446  13.033   5.172 -0.1377  0.1755  0.1392
19066W        W35914  10.156   3.284   0.342 -0.2636 -0.0290  0.3605
19067W        W35915  11.630   0.603  11.839 -0.1144  0.0010  0.0929
19068W        W35916  12.835   9.707  15.153  0.0844  0.0024 -0.1197
19069W        W35917  15.184  15.632   4.936 -0.0409  0.3245  0.1693
19070W        W35918  16.106   2.409   1.411  0.1686  0.3817 -0.1470
19071W        W35919   7.057   8.757  13.219  0.0125 -0.0567 -0.0783
19072W        W35920   6.107   3.264  14.577 -0.1676  0.0883 -0.0954
19073W        W35921  14.621  14.240   1.536 -0.0654 -0.2277 -0.2429
19074W        W35922   5.854  10.915  15.726 -0.1622  0.1558 -0.1829
19075W        W35923   2.625  15.126  14.518 -0.1099  0.0274  0.0417
19076W        W35924   6.174   8.769  14.220  0.3459 -0.0225  0.2015
19077W        W35925  14.033  11.759  15.494 -0.0068 -0.1170 -0.3969
19078W        W35926  13.390  10.395   4.163 -0.1509  0.1037  0.4243
19079W        W35927  14.092  11.983   4.702  0.0620 -0.2055 -0.0513
19080W        W35928  12.749   8.455   3.361 -0.1253  0.0040  0.0500
19081W        W35929   7.863  13.960  14.294  0.0077 -0.2121 -0.1388
19082W        W35930  16.024   7.937   2.221  0.1897 -0.2459 -0.1992
19083W        W35931   9.075   2.206  15.371 -0.1253  0.4606 -0.0931
19084W        W35932   5.198   7.921  14.887 -0.0795  0.0685 -0.4017
19085W        W35933   8.307  11.335  11.516 -0.0740 -0.0812  0.1448
19086W        W35934  16.901  13.197  15.607 -0.1879 -0.2076 -0.1116
19087W        W35935   8.845  13.641   5.819  0.0082 -0.0267 -0.3211
19088W        W35936  16.369   7.689   0.895  0.0707  0.2503  0.0705
19089W        W35937   6.526   6.893   2.450 -0.1334 -0.0600 -0.0266
19090W        W35938  15.882   2.043   1.672 -0.0385 -0.1163  0.0229
19091W        W35939   6.892  17.253  15.420 -0.4271 -0.1325  0.0991
19092W        W35940  15.756   6.610   3.076 -0.0284  0.0037  0.2786
19093W        W35941  17.053   8.964  13.297  0.1902  0.2582 -0.1812
19094W        W35942   6.094   7.738   2.672 -0.2510  0.1520  0.3578
19095W        W35943   1.379   5.302   0.134  0.1475 -0.2305 -0.1253
19096W        W35944   5.910   3.365   1.885  0.2198 -0.1754  0.1269
19097W        W35945  11.624  11.983   1.773 -0.2175 -0.0533  0.1311
19098W        W35946  10.170   2.602  15.246  0.0578  0.3613  0.2529
19099W        W35947   2.611  13.126  15.620  0.0133 -0.3254  0.3221
19100W        W35948  11.362   0.817   3.473  0.1155 -0.0772 -0.1804
19101W        W35949   2.127  17.300  10.112  0.1630 -0.0543 -0.0233
19102W        W35950   4.821   6.881   5.515 -0.1883 -0.1673 -0.0999
19103W        W35951  16.622   3.607   0.882 -0.0492  0.0558 -0.2823
19104W        W35952   3.663   0.614   1.523 -0.2991  0.0849  0.1465
19105W        W35953  15.468  14.485   0.527  0.0494  0.2022  0.0692
19106W        W35954   6.225   2.484  10.689 -0.0386  0.2802  0.1708
19107W        W35955   2.379   2.266   4.833  0.2258  0.0118  0.0659
19108W        W35956  14.769   5.162  11.798 -0.2950 -0.2555 -0.1206
19109W        W35957   3.202  13.536  14.924 -0.0883 -0.3559 -0.3028
19110W        W35958  11.499  12.226  13.345 -0.0304  0.3049  0.0861
19111W        W35959  11.040  12.843  14.294  0.1555  0.0189  0.2150
19112W        W35960   0.969  12.374  13.511 -0.1809  0.0001 -0.0745
19113W        W35961   3.746  14.187   0.874 -0.2412 -0.2435 -0.1249
19114W        W35962  16.477   0.789   4.833 -0.2302  0.3136 -0.1933
19115W        W35963  12.154   1.741   4.196  0.2455  0.0389 -0.1407
19116W        W35964  16.244  14.470  13.511  0.1589  0.1378 -0.4893
19117W        W35965   9.779   0.214  14.279 -0.0705  0.0899 -0.3828
19118W        W35966   8.441  14.663  12.602 -0.6607 -0.1263 -0.0574
19119W        W35967  10.423  11.659   2.897 -0.4029  0.0418  0.0384
19120W        W35968  13.388   2.248   1.263 -0.2940 -0.1596 -0.0429
19121W        W35969   8.899  14.519   0.478 -0.0940  0.0385  0.2101
19122W        W35970  15.276  18.087  14.860 -0.0376 -0.3394  0.0354
19123W        W35971  14.592  14.802   1.496  0.1455  0.0258  0.1210
19124W        W35972   0.966   0.841   1.996  0.0164  0.1336 -0.0819
19125W        W35973   9.221   7.439  14.879 -0.2118  0.2339  0.2026
19126W        W35974  17.380  10.104   1.993 -0.0956 -0.1739 -0.2341
19127W        W35975   0.410   8.939   0.282  0.2114  0.0484  0.2245
19128W        W35976  11.615   0.794   1.424  0.1662  0.1170  0.4654
19129W        W35977  17.926   2.920   0.296  0.0054 -0.1571 -0.2134
19130W        W35978  17.851  17.634  12.872 -0.2045  0.2917  0.2268
19131W        W35979   6.551  16.818   1.391  0.2740  0.1939  0.2922
19132W        W35980   5.516   3.299  13.252 -0.0420 -0.1010 -0.1440
19133W        W35981   1.118  10.864  15.302 -0.3093  0.0595  0.2912
19134W        W35982   2.753  15.027  15.817  0.1695  0.0609 -0.1388
19135W        W35983  16.427   7.758   5.375  0.0572  0.3448  0.2127
19136W        W35984   9.574   3.551   1.170 -0.1554 -0.0163 -0.0695
19137W        W35985   4.983  13.164   4.798  0.1541  0.0358  0.1613
19138W        W35986   8.444   3.157  14.944  0.3338 -0.0137 -0.0156
19139W        W35987  14.187  16.475  13.742  0.1513  0.0676 -0.0676
19140W        W35988  10.436  15.036   0.822 -0.0414 -0.0234  0.2834
19141W        W35989  14.548   9.473  11.478  0.1247  0.0721  0.0232
19142W        W35990   5.762   7.100  15.973  0.2681  0.1774 -0.3741
19143W        W35991   8.541  11.197  14.191 -0.0743 -0.1869 -0.2262
19144W        W35992  16.195   1.155   9.700  0.2349 -0.1742 -0.2006
19145W        W35993  11.705   9.949  15.844  0.1301 -0.2168  0.1390
19146W        W35994   4.402   3.295  12.392 -0.1271  0.2029 -0.0113
19147W        W35995  16.682   1.481   3.036  0.0452 -0.0022 -0.0908
19148W        W35996  16.518  11.706  12.859  0.0029 -0.0642 -0.2700
19149W        W35997   1.436   0.318  13.579 -0.2525  0.2929 -0.0769
19150W        W35998  16.955  14.797  13.015  0.3860 -0.1283  0.0262
19151W        W35999   4.248   4.018   3.365 -0.1481 -0.1466  0.3188
19152W        W36000  10.283   4.827  16.048 -0.0751 -0.0320  0.0593
19153W        W36001  13.005   3.979   1.840  0.1586 -0.2643  0.3981
19154W        W36002   2.658  11.300   2.348 -0.4249  0.1555 -0.1136
19155W        W36003   2.960   6.437  14.511  0.0443 -0.3212  0.4250
19156W        W36004  12.920   0.029  12.137 -0.0979 -0.3448 -0.2442
19157W        W36005  13.435  15.052   1.946 -0.2274 -0.1731  0.3310
19158W        W36006   3.289   0.081  14.222  0.1893 -0.0772 -0.1401
19159W        W36007  17.240  14.174   1.275 -0.1372  0.1016 -0.0916
19160W        W36008   9.705   2.780  15.178  0.3856 -0.0464  0.2216
19161W        W36009  14.259   6.566   1.337 -0.0454 -0.1506  0.0826
19162W        W36010  13.877   5.200   2.005 -0.0601 -0.0884  0.3132
19163W        W36011   1.738  16.188   2.966 -0.1962  0.0687 -0.0898
19164W        W36012  16.208  14.328   0.551  0.0092 -0.1145  0.3713
19165W        W36013  16.074   1.137  11.365  0.2065 -0.1572 -0.2227
19166W        W36014   4.006  17.550  14.423  0.3716 -0.5855 -0.0222
19167W        W36015  12.675  12.904  13.466 -0.1524 -0.1672  0.0309
19168W        W36016   5.855   6.619   5.593  0.0323  0.0654 -0.0691
19169W        W36017   2.286   2.412   3.829  0.0059 -0.0201 -0.1208
19170W        W36018  16.309   4.142   4.047 -0.0276 -0.0851  0.1021
19171W        W36019  12.553  17.733   4.743  0.1764 -0.1040 -0.0501
19172W        W36020   7.172  12.110  12.131 -0.0058  0.1372  0.0095
19173W        W36021  14.854   6.788   2.673  0.0357  0.1115  0.1689
19174W        W36022  16.088  15.653   3.307 -0.3400 -0.3269  0.1820
19175W        W36023   2.656  15.270   5.220 -0.0010  0.1569 -0.1440
19176W        W36024  17.991   0.001   3.884  0.3944  0.2174  0.0308
19177W        W36025   7.068  11.328   2.878 -0.0279 -0.3755 -0.1362
19178W        W36026   4.081   3.690   2.962 -0.1258 -0.0139  0.1397
19179W        W36027   7.446   8.149   4.865 -0.0891 -0.1112 -0.2086
19180W        W36028   4.824  10.290   1.125 -0.0271 -0.3696 -0.1793
19181W        W36029   1.059  14.049   1.613 -0.0959 -0.1451  0.0168
19182W        W36030  17.223   4.586   4.745 -0.1401  0.0285  0.3883
19183W        W36031   9.702  10.723  11.794  0.3079  0.1761 -0.0578
19184W        W36032  16.427   1.068   2.801 -0.1867 -0.0741 -0.0595
19185W        W36033   7.315   9.489   4.438  0.0108 -0.0566  0.0948
19186W        W36034  17.592   3.552  12.517 -0.1701  0.1845  0.2452
19187W        W36035  11.832  16.357  13.317  0.2889  0.0703  0.0460
19188W        W36036   2.070  15.344   0.465  0.1395  0.1720  0.1017
19189W        W36037   4.957  11.407  12.032 -0.1331 -0.0892  0.1658
19190W        W36038  10.498   9.014  11.698 -0.0906  0.0157 -0.2303
19191W        W36039   5.405   0.913   0.656  0.5028  0.0275 -0.0048
19192W        W36040  13.836  14.914  13.738  0.1165  0.0731 -0.0399
19193W        W36041  17.209   2.644  13.347 -0.2046  0.0722 -0.0129
19194W        W36042   8.637   0.363   0.512  0.0909  0.1208 -0.1071
19195W        W36043   6.297  16.373  14.991 -0.0368  0.0472  0.1453
19196W        W36044  12.706   7.725   4.598 -0.0802 -0.1859 -0.0868
19197W        W36045  13.262   8.206   2.719  0.0554 -0.0756  0.1535
19198W        W36046   5.426  11.836   2.825  0.1541  0.2625  0.2847
19199W        W36047   4.816   2.422   0.770  0.1908  0.1785  0.0215
19200W        W36048  10.801   7.470   3.044  0.0305  0.0738  0.0310
19201W        W36049   3.927  17.991   4.274 -0.0936  0.2025 -0.0570
19202W        W36050  17.961  18.058  10.596 -0.1029 -0.1898  0.0735
19203W        W36051   2.895   0.352   4.859 -0.2900  0.0568  0.4457
19204W        W36052   5.305  12.389   0.242  0.1925  0.0736 -0.0299
19205W        W36053  14.248   4.094  13.528 -0.1118 -0.0390 -0.0907
19206W        W36054   8.579  13.326  13.332 -0.1782 -0.0192  0.1475
19207W        W36055  14.008  16.236  13.263  0.3317  0.2797  0.0587
19208W        W36056   2.139  13.799  14.489 -0.1071  0.2520 -0.5617
19209W        W36057  10.510   6.934   0.448  0.2082 -0.0793 -0.1462
19210W        W36058   4.078   3.080  13.852 -0.0275  0.3210 -0.2392
19211W        W36059   5.120  12.833   0.466 -0.1111 -0.1663  0.0908
19212W        W36060   6.691  15.385   3.867 -0.1326  0.1356 -0.0614
19213W        W36061   8.994  14.068   1.760  0.1863 -0.1395 -0.2425
19214W        W36062  14.612   9.830   2.230 -0.0724 -0.2184 -0.4214
19215W        W36063  14.755  10.432  11.255  0.2272 -0.0056 -0.3339
19216W        W36064   0.745  13.851   2.837  0.2227 -0.0323 -0.0617
19217W        W36065  11.161  11.758   3.174 -0.2631  0.0751 -0.1801
19218W        W36066   9.070  13.016   1.431 -0.0324  0.0058 -0.0506
19219W        W36067   7.962   4.431  15.036  0.2398  0.0336 -0.2489
19220W        W36068   6.811   9.343  11.841 -0.1658  0.0268 -0.1070
19221W        W36069   7.080   5.454   1.681 -0.0043 -0.0760  0.0513
19222W        W36070   7.888   6.321   3.478 -0.1185 -0.3099  0.1475
19223W        W36071   2.440   5.818  12.786 -0.5260 -0.4954  0.1763
19224W        W36072  12.331   9.177  15.541  0.3543  0.2450 -0.0721
19225W        W36073   1.568   8.638   4.486  0.1152 -0.0587  0.1416
19226W        W36074  11.828   4.871   5.167 -0.1522  0.0073  0.1486
19227W        W36075  10.998  10.158  12.941 -0.0342  0.0523 -0.0529
19228W        W36076   7.018   1.622  14.642 -0.4073 -0.0203  0.3140
19229W        W36077   4.963   4.850  12.865 -0.2061 -0.1242 -0.2113
19230W        W36078   1.595  14.141  12.349  0.0889  0.1376  0.0646
19231W        W36079  16.088   0.713   1.782 -0.2978  0.0170  0.1518
19232W        W36080   7.341   9.039   0.229 -0.2342 -0.0300 -0.2424
19233W        W36081  11.132   1.179   2.055  0.0733  0.2435  0.2167
19234W        W36082  17.222   4.689  15.484 -0.2582  0.0120  0.0972
19235W        W36083  14.160  14.341   3.607  0.0525  0.0346  0.1340
19236W        W36084  14.265  13.472   2.932  0.4466 -0.0458 -0.0588
19237W        W36085   7.564   2.431  12.192 -0.4444 -0.0358 -0.1223
19238W        W36086  13.876   0.339  14.650 -0.2789  0.0290 -0.1356
19239W        W36087   1.407   7.384  14.173  0.1783  0.0459  0.2735
19240W        W36088   8.912   9.755  11.764  0.2591  0.1063  0.0802
19241W        W36089  12.429   8.567  14.808  0.1272  0.1432  0.3968
19242W        W36090  14.164   0.680  13.136 -0.2057  0.0006  0.3560
19243W        W36091   1.084  16.523  13.842  0.1784  0.2497  0.2152
19244W        W36092   4.436  12.944  11.453 -0.3492  0.0667  0.2346
19245W        W36093  10.639   1.108   2.704  0.1731  0.0282 -0.1970
19246W        W36094  16.944  15.634   1.057  0.3176 -0.0630 -0.2971
19247W        W36095  14.473  15.769   2.532 -0.1468 -0.3897  0.0547
19248W        W36096   3.447   7.700  14.771 -0.2655  0.2383  0.1215
19249W        W36097  16.639   3.233  14.372  0.0560  0.0396 -0.4997
19250W        W36098   4.020   7.116   2.796  0.1224  0.1183 -0.1497
19251W        W36099   4.517  12.999   3.304 -0.0139  0.2289  0.1593
19252W        W36100  18.099  11.895  11.429 -0.0403  0.2720  0.1481
19253W        W36101  11.553  18.104   2.585 -0.2866  0.0147 -0.0511
19254W        W36102   6.781  14.395   1.337  0.2016  0.0593 -0.2749
19255W        W36103   8.914   1.059   3.176 -0.0097  0.0575 -0.2418
19256W        W36104   5.986   1.147   1.930  0.0093 -0.1978 -0.0986
19257W        W36105  16.337   0.531   0.819 -0.0261  0.0149  0.0445
19258W        W36106   0.753  11.972   1.134  0.1885 -0.1065 -0.1748
19259W        W36107   2.491  16.416   5.071 -0.2793 -0.0405  0.0709
19260W        W36108   6.510   2.538   1.739  0.1196  0.2714 -0.1154
19261W        W36109   0.872   7.521  13.066  0.2565 -0.2692 -0.1532
19262W        W36110   9.561   3.129   1.466 -0.0554 -0.1862  0.0710
19263W        W36111  16.221   9.499  14.052 -0.1934 -0.1272 -0.2372
19264W        W36112   7.513   3.046   2.910 -0.0742 -0.2831 -0.2697
19265W        W36113   6.400   1.415   3.684  0.1146 -0.0709 -0.4404
19266W        W36114   1.495  14.653  13.619  0.2365  0.1950  0.0031
19267W        W36115  17.464   4.432   3.131 -0.2809 -0.3207 -0.1588
19268W        W36116   0.824   7.649  12.547 -0.1381 -0.2686 -0.1578
19269W        W36117   0.818  15.697   2.090 -0.0231 -0.0135 -0.0307
19270W        W36118  13.470   6.806  12.729 -0.1306  0.3457  0.0216
19271W        W36119  13.962   7.999  15.454  0.1715 -0.1250 -0.0182
19272W        W36120   8.830  17.685   3.554 -0.2699 -0.1008 -0.4533
19273W        W36121   0.638   9.964  12.436 -0.0825 -0.1102 -0.1635
19274W        W36122  15.729  10.499  14.575  0.1620 -0.1818  0.2085
19275W        W36123   6.492   1.558  11.126 -0.2145  0.2271  0.1940
19276W        W36124  15.787   8.246   3.668 -0.1966  0.0326  0.2831
19277W        W36125   1.817  12.818  13.248  0.1995  0.0669 -0.1370
19278W        W36126   0.150  17.543   2.230  0.1570 -0.3975  0.1163
19279W        W36127   8.247  10.545   3.765 -0.2248 -0.0826  0.2293
19280W        W36128  15.625  14.361   2.186 -0.0779 -0.1947 -0.1721
19281W        W36129  10.548  13.056   0.088 -0.1603  0.0129 -0.0102
19282W        W36130   1.181  12.661   0.429 -0.1780  0.0678  0.1199
19283W        W36131   2.053   2.598  10.965  0.0469  0.3484 -0.0514
19284W        W36132   4.540   5.127  15.745 -0.0252  0.0489 -0.0880
19285W        W36133   0.895  14.121   4.493 -0.0686  0.2055 -0.1078
19286W        W36134   4.254  15.670  13.988 -0.0461  0.0435 -0.2727
19287W        W36135   3.705  14.376   3.263 -0.0359 -0.0386 -0.0320
19288W        W36136  17.208   9.124   2.922  0.0962  0.2059  0.1725
19289W        W36137  14.005   5.673  14.099 -0.1463  0.2853 -0.3546
19290W        W36138  16.929   8.555  12.476  0.0481 -0.0160 -0.2592
19291W        W36139   2.079   8.885   3.772 -0.1649  0.0346  0.4224
19292W        W36140   5.846  10.547  11.915 -0.0344  0.1472  0.0024
19293W        W36141  15.179  14.024  12.260  0.1737 -0.0146 -0.1023
19294W        W36142   4.882   2.773   3.304 -0.0515 -0.1275 -0.3708
19295W        W36143   0.375  16.357   3.003 -0.1810  0.2012  0.1726
19296W        W36144  17.513  15.438   2.916 -0.0994 -0.0226 -0.0268
19297W        W36145  10.596   6.207   3.271 -0.0966 -0.1782 -0.2404
19298W        W36146   9.205   8.639   5.421 -0.3965 -0.1086 -0.0335
19299W        W36147  17.947  10.302   2.492 -0.2109 -0.0430  0.0008
19300W        W36148  14.196  13.321  11.385 -0.0451  0.0830  0.1261
19301W        W36149  14.117   7.576  15.187  0.1279 -0.1755  0.0515
19302W        W36150   3.445   6.073   2.727  0.2706 -0.0150 -0.2335
19303W        W36151   8.956   1.994  13.577  0.1009  0.0896  0.1323
19304W        W36152   8.241   7.986  12.964  0.0946 -0.1352  0.1759
19305W        W36153  10.578   2.023  13.479  0.0349 -0.1379  0.5065
19306W        W36154   4.188   9.729   0.318  0.0380 -0.1596 -0.0385
19307W        W36155  13.836  14.774   2.740  0.1013 -0.1687 -0.3478
19308W        W36156   3.187   7.628  13.844  0.2037  0.1827 -0.0879
19309W        W36157   6.527   4.327   4.552 -0.3459  0.1515  0.0879
19310W        W36158   8.062   6.858   3.544  0.0861 -0.0110 -0.1452
19311W        W36159  12.870  15.738   0.323 -0.0604 -0.2186 -0.2497
19312W        W36160   8.455  16.392  13.186  0.1679 -0.0179  0.0802
19313W        W36161  16.272  10.227   4.785  0.1821 -0.1194  0.2381
19314W        W36162   8.084   1.930   1.690  0.0175 -0.1689  0.4689
19315W        W36163   0.257   2.617  13.862 -0.2271  0.2086  0.1553
19316W        W36164   6.921   0.205   0.068  0.2744 -0.2402 -0.0271
19317W        W36165   4.667  11.593  13.010 -0.2822 -0.2282 -0.0156
19318W        W36166   2.027   9.272   4.561  0.4529 -0.0514  0.1636
19319W        W36167   0.793   3.282  12.542  0.1111  0.0865  0.1199
19320W        W36168   1.463  17.977  13.391 -0.0139 -0.3017 -0.1708
19321W        W36169   3.109  18.118   1.210 -0.0840  0.2966 -0.3867
19322W        W36170  14.714  17.372   0.091  0.3487 -0.3187  0.0485
19323W        W36171  13.832   9.169   2.367 -0.2565 -0.1535  0.2844
19324W        W36172   9.940  12.725   2.202  0.0188  0.1251 -0.1289
19325W        W36173   3.702   7.920  11.523  0.3278  0.1078 -0.0712
19326W        W36174   8.848  14.850  14.707  0.3179 -0.4442  0.1093
19327W        W36175   6.923  10.436   3.878  0.0776  0.0443 -0.4494
19328W        W36176  15.212   3.099   2.451 -0.1054  0.1494  0.3429
19329W        W36177   6.498  11.953  10.802  0.0605 -0.1128  0.0323
19330W        W36178  18.083   0.960   4.208 -0.3375  0.1126 -0.2567
19331W        W36179  11.626  17.194  13.575  0.2069 -0.1114 -0.0230
19332W        W36180  14.801   3.458   2.164 -0.2828  0.2478  0.1867
19333W        W36181  17.365  13.684   1.427  0.0537 -0.0634  0.0660
19334W        W36182   3.658  16.064   2.761 -0.3071 -0.2080  0.0490
19335W        W36183   2.925  15.506  14.294  0.0872 -0.0213  0.1103
19336W        W36184  13.264   8.126  15.790 -0.0212  0.1786 -0.0721
19337W        W36185  17.025   3.211  13.656  0.0485 -0.1619  0.0766
19338W        W36186   5.500  17.228   4.983 -0.0743 -0.0814 -0.0528
19339W        W36187   3.645  13.636  13.091 -0.1369  0.0848  0.2693
19340W        W36188   7.612  11.159  15.751 -0.1443  0.3034  0.0328
19341W        W36189  14.110  16.995   1.792  0.0814  0.2375  0.2342
19342W        W36190   2.091   4.818  12.796 -0.1520 -0.0306  0.3252
19343W        W36191  14.123   7.214  12.399 -0.0583  0.3048  0.0845
19344W        W36192  16.724  12.337  14.421  0.0451  0.1946 -0.4566
19345W        W36193  16.962  11.267  14.143 -0.1521  0.0469 -0.0294
19346W        W36194   6.487   2.307   2.448 -0.4310 -0.2351  0.0289
19347W        W36195   0.533   5.371  10.982 -0.2451  0.1117  0.0335
19348W        W36196  11.020  13.290   3.180 -0.0779 -0.1302 -0.2719
19349W        W36197   4.286   8.671   1.134  0.0171 -0.4918 -0.2244
19350W        W36198   7.658  16.734  13.043  0.1239  0.0925  0.1095
19351W        W36199  10.181   7.105  15.993  0.1191  0.1548  0.1141
19352W        W36200   7.710   6.761   4.151 -0.2758  0.0784  0.2908
19353W        W36201   7.217   3.392  16.090  0.3124  0.1279 -0.1252
19354W        W36202   1.632   4.052  11.489 -0.0000 -0.1686 -0.3451
19355W        W36203  11.444   2.523   1.698 -0.2475 -0.0589  0.1687
19356W        W36204   0.303  13.386   4.399  0.1422  0.0582  0.0180
19357W        W36205   2.913   6.585   0.496 -0.1027  0.0615 -0.0985
19358W        W36206   3.513   5.680  15.861 -0.0038  0.1205 -0.1125
19359W        W36207  16.077   1.325  15.730 -0.0772 -0.0836 -0.1304
19360W        W36208  13.976   1.151  12.734  0.0405 -0.1979 -0.2589
19361W        W36209  14.097  13.892   3.833 -0.1107 -0.2353  0.1442
19362W        W36210  12.762  17.897  12.992  0.2744  0.0890 -0.1472
19363W        W36211   4.985   9.170   3.406 -0.2269  0.2371 -0.0432
19364W        W36212   2.864  13.276   1.736 -0.0864  0.2650 -0.0661
19365W        W36213   7.192   8.364  13.494  0.0293 -0.0768  0.2567
19366W        W36214   7.495  11.107   0.911 -0.4174  0.0680  0.2061
19367W        W36215  11.199  17.235  13.340  0.1169  0.0932 -0.2093
19368W        W36216   0.711  14.916   5.525 -0.0446 -0.2291  0.2830
19369W        W36217   5.394   0.884   0.156 -0.1117 -0.0431 -0.1256
19370W        W36218   9.465   2.252   5.004  0.0071 -0.0238 -0.0089
19371W        W36219   9.327   0.494   1.302  0.1965 -0.1514 -0.2389
19372W        W36220   5.525  17.185   2.004  0.0628 -0.1466 -0.2630
19373W        W36221  15.690   4.804   5.604  0.2268  0.1719 -0.0042
19374W        W36222   2.777   9.615  13.857 -0.1697 -0.1809 -0.0342
19375W        W36223   2.866  16.865   5.160 -0.0055  0.0363 -0.1010
19376W        W36224   3.177   9.482  12.268  0.0922 -0.2887  0.0466
19377W        W36225  17.329   6.961  13.761  0.4144 -0.3122 -0.1300
19378W        W36226   7.371  17.093   0.219 -0.0816 -0.1416 -0.1416
19379W        W36227   3.817  16.731   3.582 -0.0754 -0.2597  0.2764
19380W        W36228  11.063   4.265  11.008 -0.2244  0.0931  0.1584
19381W        W36229  11.762  17.132  14.701 -0.2416  0.1780 -0.3970
19382W        W36230  12.012   1.753  15.839  0.2675  0.0768  0.0947
19383W        W36231   1.256  11.162  13.441 -0.2995  0.1623  0.2380
19384W        W36232  12.062   3.390  15.890  0.0965  0.0485  0.0935
19385W        W36233  10.030  15.372   4.071 -0.3094 -0.2084 -0.0836
19386W        W36234  13.897  16.618   2.019  0.2579  0.1862 -0.1022
19387W        W36235   1.333  12.386  15.837  0.2332  0.0814 -0.2103
19388W        W36236   6.735   1.648  11.561  0.0698 -0.0452 -0.3484
19389W        W36237  15.090  14.418  15.674  0.0992  0.0483  0.1248
19390W        W36238   0.004   0.855   1.412  0.1100  0.0755  0.0318
19391W        W36239   8.052  16.044   1.551 -0.0405  0.2221  0.0059
19392W        W36240  14.380   0.100  11.900 -0.2736  0.0558  0.2951
19393W        W36241   1.802   6.323  13.612  0.0382  0.0861 -0.0441
19394W        W36242  17.943  13.318   5.734 -0.3655 -0.2896 -0.2280
19395W        W36243  16.276   4.903  10.932 -0.1547 -0.0785 -0.0924
19396W        W36244  16.708  11.997  13.905 -0.3117 -0.2788 -0.1171
19397W        W36245  14.451   7.972   3.613 -0.1124 -0.0241 -0.1021
19398W        W36246   4.679   0.859  12.704 -0.0307  0.3205  0.0081
19399W        W36247  18.007  13.154   3.582 -0.1639  0.0613 -0.1602
19400W        W36248  17.718  12.403  14.521  0.0172  0.1252  0.1120
19401W        W36249  13.681  17.284  11.278 -0.0061  0.1400 -0.1485
19402W        W36250   2.824  14.999  14.944 -0.1871  0.0965  0.1202
19403W        W36251  17.635   7.414   0.449  0.0067  0.2328 -0.4029
19404W        W36252  14.192  16.275   2.309 -0.0641 -0.0700  0.0454
19405W        W36253   1.732   9.063   3.052  0.1455  0.0840  0.0663
19406W        W36254   3.346   9.740  13.154  0.0136  0.1665 -0.0930
19407W        W36255  15.902  10.399   2.814  0.2522  0.0113 -0.2832
19408W        W36256  16.993   0.845   3.023  0.0190  0.1354  0.0168
19409W        W36257  12.848  13.504   1.851 -0.0548 -0.1314  0.0415
19410W        W36258  13.951   7.878   3.854  0.1561  0.0930  0.5607
19411W        W36259   3.979   0.266   4.165  0.2240  0.2166  0.0802
19412W        W36260  13.121  15.007   2.966  0.4027  0.1480  0.1785
19413W        W36261   7.453  17.487   1.260  0.1115  0.1329  0.2042
19414W        W36262  10.870   9.757  11.627 -0.0870 -0.3769  0.1282
19415W        W36263  16.769  13.762  15.674  0.2767  0.1002 -0.0269
19416W        W36264  11.268  18.206   0.585  0.0764 -0.2971  0.1582
19417W        W36265   4.477   2.817  13.419  0.1738  0.1691 -0.0833
19418W        W36266   8.303   6.949  16.066 -0.1233  0.2765  0.3005
19419W        W36267   6.969   7.679   2.829 -0.0142  0.2942  0.0507
19420W        W36268   0.032   1.592  15.522 -0.0075  0.2774 -0.2349
19421W        W36269  13.650  11.240   3.484  0.2334  0.0366  0.1656
19422W        W36270  11.864   8.658   0.063 -0.0408 -0.1427 -0.1134
19423W        W36271   4.443   2.842   1.439  0.0246  0.0106 -0.0913
19424W        W36272  14.352   5.986  14.345 -0.3038  0.0687  0.4713
19425W        W36273   5.497  12.933  10.809 -0.2848  0.3189 -0.1937
19426W        W36274  16.502  18.216  11.073 -0.2553  0.2234  0.1150
19427W        W36275   7.158   3.029  12.831 -0.3212  0.0245  0.1725
19428W        W36276   1.084  15.921  13.402  0.0758 -0.0314  0.0933
19429W        W36277   0.091  14.955   4.188  0.0521 -0.3006  0.0128
19430W        W36278   4.176  14.586   1.796 -0.0913  0.7123  0.1498
19431W        W36279  13.471   4.532  12.416  0.0374 -0.0873  0.0019
19432W        W36280   2.608  10.112  11.716  0.0088  0.0840 -0.1980
19433W        W36281  13.343  13.384   4.448  0.0132  0.1364  0.2316
19434W        W36282  10.024   6.822  13.750 -0.1234  0.0538 -0.1907
19435W        W36283   5.908  15.670  11.885  0.0200 -0.0363 -0.1931
19436W        W36284  15.510  15.604   4.308  0.5424 -0.3501  0.1151
19437W        W36285   3.973  17.719  14.936 -0.0263 -0.1660  0.0987
19438W        W36286   5.075  16.621  13.717 -0.1745  0.2287  0.2300
19439W        W36287  14.364  17.824  10.949  0.1205  0.2060 -0.2338
19440W        W36288   6.592  10.851  12.567  0.0150  0.0632 -0.0099
19441W        W36289   6.053   2.719   3.840  0.0046  0.4328  0.0053
19442W        W36290  16.106   1.658  14.625 -0.0528 -0.1940 -0.0629
19443W        W36291  15.615  11.110  13.776  0.0240 -0.1106 -0.3902
19444W        W36292  10.524   3.640   5.826  0.1612  0.2019  0.1160
19445W        W36293   5.198  15.785   2.686 -0.1125 -0.0437  0.1389
19446W        W36294   4.892  16.132   1.917 -0.1202 -0.0449 -0.0427
19447W        W36295  14.057  11.537  14.942  0.1934 -0.1691 -0.0709
19448W        W36296  11.390   5.258  13.933 -0.1254 -0.1050 -0.0813
19449W        W36297  11.863  11.206  11.064 -0.1202  0.0517  0.0511
19450W        W36298  14.253  12.955   0.131 -0.1438  0.5003 -0.2377
19451W        W36299   3.748   7.230   0.431  0.0555  0.1750 -0.0020
19452W        W36300  17.839   5.600  13.069  0.0494 -0.0087 -0.0534
19453W        W36301  10.352   3.625  13.830 -0.2664 -0.1059  0.0820
19454W        W36302  12.289  10.752   3.255 -0.1211  0.0132 -0.2561
19455W        W36303   0.050   6.910  11.973 -0.1180 -0.0350 -0.1519
19456W        W36304  11.461  11.096   1.588 -0.1597 -0.0649  0.2302
19457W        W36305  11.954   6.338  10.348 -0.0074  0.1387  0.0402
19458W        W36306  10.168   9.797   4.185  0.1563 -0.1209  0.5757
19459W        W36307   9.027   2.463   2.040 -0.0984  0.0913  0.0754
19460W        W36308   6.120  10.604   1.426 -0.0645 -0.1858 -0.0417
19461W        W36309   7.703   3.517   4.630 -0.0137 -0.0606  0.0132
19462W        W36310   2.957  11.580   2.981 -0.2956  0.0302  0.0652
19463W        W36311   7.857   6.917   4.630 -0.2545  0.1967 -0.2126
19464W        W36312  17.993  14.952   3.597 -0.1087  0.1610  0.1105
19465W        W36313  10.830  12.272   4.120 -0.1114  0.2100 -0.1073
19466W        W36314  15.057   9.439   1.509 -0.0166 -0.1443 -0.2258
19467W        W36315   8.742  13.703   0.306  0.1222  0.1790  0.2188
19468W        W36316  16.160  17.461   0.483 -0.1583 -0.1766 -0.0703
19469W        W36317  10.556   4.496  15.298  0.4342  0.0537  0.0204
19470W        W36318   3.869  13.484  14.280  0.0292 -0.1795 -0.1950
19471W        W36319  12.029  10.421  14.341 -0.1307  0.3337 -0.1869
19472W        W36320  15.562   2.968   4.857 -0.1049  0.2437  0.0123
19473W        W36321   0.024   4.561  10.953  0.0905 -0.1261 -0.1672
19474W        W36322   0.108  15.385   0.244  0.2749 -0.2387 -0.1684
19475W        W36323  17.056   3.769   2.634 -0.0014 -0.1330 -0.3260
19476W        W36324   2.814  13.927   5.076 -0.0541 -0.3668 -0.2219
19477W        W36325  13.925   0.905  11.455 -0.3291  0.0539  0.0380
19478W        W36326  17.192  11.868  12.356 -0.1771 -0.1304 -0.1161
19479W        W36327   0.647   8.623  13.582  0.2751  0.0952 -0.1075
19480W        W36328  12.733  13.439  12.822 -0.0513 -0.2510  0.0928
19481W        W36329   2.494   7.290  15.942  0.1965 -0.2741 -0.0279
19482W        W36330   8.121   0.860   5.187 -0.0956 -0.2036  0.0259
19483W        W36331   2.871  13.072   3.243 -0.1295 -0.3833  0.0906
19484W        W36332  13.051   2.008   4.072  0.1309 -0.0827 -0.1827
19485W        W36333  15.019  18.207   4.801  0.3135  0.0484  0.1512
19486W        W36334  11.507   6.245  14.885  0.0740  0.3152 -0.1793
19487W        W36335   3.949   4.208  15.118  0.1046  0.3792 -0.2584
19488W        W36336  16.274  17.350  13.935 -0.2913 -0.1977  0.2191
19489W        W36337  17.866  18.140   4.391 -0.1351 -0.0284 -0.0224
19490W        W36338   0.215   5.292   4.595 -0.4968  0.1441 -0.2048
19491W        W36339   0.007   8.248  14.756 -0.3061  0.1990  0.0790
19492W        W36340   7.339   0.108  12.022 -0.2396 -0.0363 -0.0556
19493W        W36341   4.826   3.238   4.085  0.0608 -0.0718 -0.3232
19494W        W36342   9.465   9.721  11.475  0.0032  0.0321  0.1701
19495W        W36343  13.311  10.213  11.521 -0.2057 -0.2632 -0.0323
19496W        W36344  15.689  12.596   5.247  0.2369  0.0406 -0.1697
19497W        W36345   1.034   4.549   0.685  0.3057 -0.0026 -0.1844
19498W        W36346   2.260  10.404  15.491 -0.0683  0.0914  0.1019
19499W        W36347  14.862  15.692   0.635 -0.0545  0.0122  0.1395
19500W        W36348   3.532   2.310  12.279  0.0440 -0.1944  0.0450
19501W        W36349  10.466  14.275   3.724  0.5181  0.6993  0.0686
19502W        W36350   8.517   4.202  12.592  0.0761 -0.3841 -0.0099
19503W        W36351  14.142   3.806  14.845 -0.3491 -0.0416 -0.1022
19504W        W36352   2.875   6.651  13.010  0.1969  0.0538 -0.0246
19505W        W36353   8.393   9.148  14.543 -0.1059 -0.1296 -0.0021
19506W        W36354  18.082  11.749   4.750  0.0369  0.1949 -0.2863
19507W        W36355  13.795   3.467   1.750 -0.0784 -0.4260  0.2587
19508W        W36356   0.136   0.489   5.511  0.1378  0.0081  0.1548
19509W        W36357  12.072   0.868   1.844 -0.1091 -0.2132 -0.1082
19510W        W36358   4.205   2.939  15.203  0.0628  0.0492  0.0348
19511W        W36359  18.178  11.848  12.486  0.1917 -0.0163  0.4634
19512W        W36360  17.213   5.741   1.961 -0.1435  0.0811  0.1315
19513W        W36361   5.784   5.384  12.086 -0.0324 -0.0852  0.1039
19514W        W36362   1.906  11.336  14.198 -0.0222 -0.1145 -0.2258
19515W        W36363   7.519   0.505  13.701 -0.2162 -0.1178  0.2721
19516W        W36364   1.881   8.249   2.107  0.3993  0.0450 -0.2089
19517W        W36365  11.405  10.393   4.825 -0.3044 -0.0703  0.2460
19518W        W36366   7.236   1.922   3.553 -0.2697  0.2601  0.0204
19519W        W36367  13.488   3.903  10.782  0.1525 -0.1641 -0.2071
19520W        W36368   1.384  13.951  13.100 -0.3378  0.0802  0.2204
19521W        W36369   7.905   4.959   3.193  0.0407 -0.4232 -0.0125
19522W        W36370   9.474  17.187   2.894 -0.1957 -0.0721  0.2308
19523W        W36371  12.432   6.347  12.899  0.1034  0.1543 -0.1988
19524W        W36372  12.239  13.242  15.537 -0.0140  0.1821 -0.0794
19525W        W36373  18.202   2.413   4.126 -0.2694  0.1927 -0.0667
19526W        W36374  14.466  10.100   3.633 -0.0153 -0.0054 -0.0176
19527W        W36375   9.369  18.043  11.771  0.5157  0.2524  0.1410
19528W        W36376   0.431   0.056   1.631  0.0938 -0.0105  0.2836
19529W        W36377   9.908   1.234  14.421 -0.2107 -0.2372 -0.0262
19530W        W36378  12.066  14.088   1.397 -0.0079 -0.4437 -0.0775
19531W        W36379   1.880   6.355   1.476 -0.0456  0.0621 -0.1256
19532W        W36380   4.731  15.153  14.685 -0.0755 -0.2332  0.1085
19533W        W36381   8.745   2.739  11.592 -0.1684  0.1716 -0.0420
19534W        W36382  14.569  10.034  12.654  0.1548  0.0646  0.2182
19535W        W36383  15.211   9.562  12.098  0.0169  0.1324  0.2146
19536W        W36384   0.259   0.741  14.390 -0.1176 -0.1253  0.0884
19537W        W36385   6.204   0.366  12.527 -0.1392  0.0255  0.0598
19538W        W36386  16.591   5.884   0.522  0.2053  0.1151  0.0897
19539W        W36387   9.030   4.681  14.263  0.3340  0.2609 -0.0406
19540W        W36388   9.293   2.383  14.907  0.1609  0.0333  0.2317
19541W        W36389   1.072   6.804   1.026 -0.0821  0.1562 -0.1536
19542W        W36390  11.894  18.066  12.458 -0.2648  0.2024  0.0451
19543W        W36391  18.001  17.914  13.673 -0.0316 -0.2567 -0.0232
19544W        W36392   2.264  10.785   0.745 -0.2924  0.1002 -0.3017
19545W        W36393   2.305  14.096   4.011 -0.1408 -0.1920 -0.1322
19546W        W36394  13.123   4.754   4.555 -0.1016  0.0381 -0.4204
19547W        W36395  17.637  10.254   0.329  0.2577 -0.0566  0.0894
19548W        W36396   5.931   3.618  15.620 -0.0439  0.0220 -0.0297
19549W        W36397   9.605  12.025  13.394  0.2679 -0.0132 -0.2861
19550W        W36398  14.972  13.814   4.403  0.1289  0.1635  0.5228
19551W        W36399   7.780   6.425  12.875  0.0285 -0.1107 -0.0233
19552W        W36400   6.108  17.212   1.794 -0.0273  0.3456 -0.3509
19553W        W36401  11.771  16.629   0.029 -0.0270 -0.1379 -0.3298
19554W        W36402   1.353  11.141  12.523  0.0475  0.1048  0.1247
19555W        W36403   9.519   4.839  14.584 -0.2819 -0.1956 -0.1954
19556W        W36404   0.449   1.660  15.203 -0.2151 -0.0659  0.2141
19557W        W36405  16.218   1.639  12.733 -0.1465  0.3023  0.1782
19558W        W36406  16.878  18.008   2.650  0.0049  0.0425  0.0992
19559W        W36407   0.551  15.316  12.024  0.0136 -0.1523 -0.0886
19560W        W36408   4.310   7.523  15.587 -0.3465  0.1233 -0.0472
19561W        W36409  11.058   3.958  13.629  0.0064 -0.3125  0.0403
19562W        W36410  16.989  13.654  15.257  0.0234 -0.2345 -0.0133
19563W        W36411  14.929   7.947   3.307 -0.2419 -0.2717  0.0092
19564W        W36412   8.196  13.943   0.144  0.0710  0.1104 -0.0314
19565W        W36413   5.007  16.692  11.479 -0.0983  0.0532 -0.1211
19566W        W36414   7.752   4.700  15.438 -0.1086 -0.1699  0.1256
19567W        W36415   2.994  17.158   4.292  0.1751 -0.0865 -0.3404
19568W        W36416   4.013   1.170  13.553  0.0443  0.0927 -0.0359
19569W        W36417   3.033   7.659   2.780 -0.3602  0.1164  0.0482
19570W        W36418   7.656   3.568  11.907 -0.2514 -0.2446 -0.2180
19571W        W36419   9.772   8.791  11.348 -0.4647 -0.0112  0.0220
19572W        W36420  16.586   3.744  10.692 -0.1676 -0.1447 -0.0589
19573W        W36421  12.845  11.478  14.959 -0.3267  0.0559  0.2062
19574W        W36422   6.030  15.351   4.481 -0.0449 -0.0797 -0.0693
19575W        W36423  11.446  13.032  11.816 -0.0450 -0.0871 -0.0269
19576W        W36424  16.064   7.979   1.170  0.1715 -0.1085 -0.2556
19577W        W36425   6.288  13.513  12.572  0.0752 -0.2916 -0.0322
19578W        W36426   8.336   5.837   2.009 -0.1512  0.2312  0.0183
19579W        W36427   7.240   2.396  14.149 -0.0535 -0.1114  0.1116
19580W        W36428   4.677   1.837  12.582 -0.3343 -0.2618 -0.0545
19581W        W36429  11.027   0.370   0.423  0.0737 -0.0460  0.1015
19582W        W36430   5.420  16.316  11.342 -0.0757 -0.2496 -0.1853
19583W        W36431   7.324  10.837   0.016  0.2547 -0.0187 -0.0661
19584W        W36432  11.068  10.931   3.482  0.0784 -0.3873 -0.2197
19585W        W36433  17.540  17.361   2.829 -0.1648  0.2322 -0.1180
19586W        W36434  10.985   9.787  14.316 -0.2135 -0.2988 -0.2335
19587W        W36435  13.652   9.472   4.353  0.1914  0.0396 -0.0722
19588W        W36436   1.698   3.682  13.517 -0.1926  0.0888 -0.2456
19589W        W36437   1.125   1.031   4.877 -0.1546 -0.2867  0.0391
19590W        W36438   6.986   2.147   0.401  0.2707 -0.0700  0.0858
19591W        W36439   2.123   7.449  13.863  0.3909  0.0294  0.1134
19592W        W36440   5.596   0.991  13.594 -0.2097 -0.1290  0.1687
19593W        W36441   1.536   4.749  11.939  0.3920  0.0181 -0.1147
19594W        W36442   7.092   6.067   3.836 -0.2813 -0.2098 -0.3078
19595W        W36443  15.149   7.584   1.577 -0.0213 -0.0310  0.3423
19596W        W36444   7.157   0.765   3.621 -0.1172  0.3281 -0.1153
19597W        W36445  11.556   6.782  11.700 -0.0075  0.1372  0.1055
19598W        W36446   9.061   9.281  11.589 -0.0904 -0.0462  0.0862
19599W        W36447  15.297  10.379  14.352 -0.0777  0.2988  0.1723
19600W        W36448  12.005  10.673   2.537 -0.1224  0.0010  0.0085
19601W        W36449   6.619  12.681   0.633  0.0515 -0.0644 -0.0050
19602W        W36450   2.093   8.042  14.391 -0.0147  0.1181  0.3028
19603W        W36451   0.039   7.135   2.708  0.0202  0.1185  0.1301
19604W        W36452  16.516  12.396   2.105 -0.0006  0.0446  0.0246
19605W        W36453  16.663   1.913  11.413 -0.3142  0.2052  0.1649
19606W        W36454   5.142  17.771   0.800  0.0148  0.1786  0.2045
19607W        W36455   5.960  16.796  14.337 -0.2733  0.0814  0.3375
19608W        W36456   0.358  13.695   3.892 -0.0790 -0.3188 -0.0406
19609W        W36457  10.308  16.398  13.603  0.0323 -0.1744  0.0700
19610W        W36458   6.455  13.976  12.348 -0.1061 -0.3691 -0.0596
19611W        W36459   8.069  12.382   2.899 -0.4001 -0.1440  0.0310
19612W        W36460  12.042   0.303  13.327 -0.0122 -0.2569 -0.0024
19613W        W36461   6.709   6.867  11.252 -0.1887 -0.1136 -0.0904
19614W        W36462   9.597   1.833  13.862 -0.2287  0.0676  0.3657
19615W        W36463   9.290   3.055   2.741 -0.0166  0.0321 -0.0074
19616W        W36464  11.469   3.845  13.414 -0.0677 -0.1512 -0.3031
19617W        W36465   5.278   6.033   3.714 -0.0046  0.1575  0.3501
19618W        W36466  10.106   6.892  14.454  0.4643 -0.1339 -0.0981
19619W        W36467  13.217   7.030  14.773  0.0288  0.0732 -0.1396
19620W        W36468  14.382   7.146   3.468  0.0620 -0.1759 -0.0525
19621W        W36469  13.319   7.641   0.908  0.2216 -0.3629  0.2310
19622W        W36470  10.405   8.686   2.566  0.0458 -0.1024 -0.2304
19623W        W36471  14.652  11.824  15.890  0.0427 -0.1235 -0.0535
19624W        W36472  17.438   4.534  14.009 -0.1159  0.0438  0.1673
19625W        W36473   9.669  10.672  15.092 -0.1349  0.0828 -0.1152
19626W        W36474   3.650   0.779  13.842 -0.1813  0.1148  0.4948
19627W        W36475  11.449   1.027   3.908 -0.0500  0.0701 -0.0196
19628W        W36476   1.566  16.974   2.926  0.2386 -0.0154 -0.1440
19629W        W36477   3.171   2.007   4.148  0.2173 -0.2356 -0.1786
19630W        W36478   2.888  12.667   1.008  0.1947  0.3196  0.1931
19631W        W36479   0.398   9.383   3.284  0.3837 -0.1598  0.1569
19632W        W36480   6.641   8.926  12.166 -0.0995 -0.1067 -0.0706
19633W        W36481   2.927   9.103  14.037 -0.1061 -0.0077  0.2730
19634W        W36482   0.959   3.669   2.375  0.3315 -0.0567 -0.2335
19635W        W36483   7.500   2.883  13.154 -0.0623 -0.2117  0.2679
19636W        W36484   4.436   7.703  14.504 -0.0440 -0.5039 -0.1257
19637W        W36485   2.070  17.876   2.885  0.0661  0.1430  0.0791
19638W        W36486   5.005   3.763   1.715  0.0015  0.2145 -0.0893
19639W        W36487   1.696   2.475   3.564  0.3119  0.0246 -0.1181
19640W        W36488   9.788   4.112   4.516  0.1032  0.1596 -0.2409
19641W        W36489   7.490   5.292  12.520  0.4391  0.0997  0.1182
19642W        W36490   3.140  13.762   5.824  0.2474 -0.2010  0.0822
19643W        W36491   0.450   8.455   0.693 -0.1024 -0.0027  0.2098
19644W        W36492  11.604  11.385   3.904  0.2670  0.1623 -0.0162
19645W        W36493  16.185  14.699   3.624 -0.1900  0.2871  0.0702
19646W        W36494   2.481   8.719  15.317  0.1026 -0.2192  0.0155
19647W        W36495  11.857   8.753  11.353 -0.0405  0.7242  0.0288
19648W        W36496  13.283   8.716   2.650 -0.1860 -0.1225  0.0759
19649W        W36497   0.755  13.609  12.767 -0.1387 -0.0953 -0.2037
19650W        W36498   5.238   3.897  11.080  0.0619  0.0537 -0.1802
19651W        W36499   5.932  13.801  13.120  0.0591 -0.2208  0.2135
19652W        W36500   9.378  14.762   4.343 -0.0206  0.0058  0.3967
19653W        W36501  16.806   3.628  13.421 -0.0913  0.0524 -0.2277
19654W        W36502   4.796   9.881   5.862 -0.2543  0.1085 -0.0945
19655W        W36503   7.236  11.916  13.727  0.0126  0.1594 -0.0463
19656W        W36504   9.096  13.474  11.813 -0.0486  0.2740  0.0667
19657W        W36505   9.606  16.005  13.154 -0.0861 -0.1295 -0.1281
19658W        W36506  10.378  11.627   1.973  0.1412  0.0906 -0.3448
19659W        W36507   8.327  12.935   2.346  0.1144 -0.1247 -0.2497
19660W        W36508  16.449  15.708   1.336 -0.1368 -0.4556 -0.2852
19661W        W36509   6.592  15.627   2.904  0.0429 -0.3413  0.0072
19662W        W36510  11.840  14.192  15.140  0.1106 -0.1373  0.0735
19663W        W36511   4.724   0.969  13.214  0.1714 -0.2295  0.0148
19664W        W36512   9.908  13.984   4.838  0.1373  0.0188  0.0698
19665W        W36513   7.062  12.181   2.949 -0.1604 -0.2072  0.5177
19666W        W36514   7.091  18.079  15.835  0.3588  0.2480  0.2752
19667W        W36515   2.586   2.294   1.779 -0.2468  0.0752  0.2610
19668W        W36516  10.158  12.656   0.249  0.1299  0.1935  0.1686
19669W        W36517  15.663   5.921   4.555  0.1505  0.0581  0.1567
19670W        W36518   0.067   9.930   2.566  0.1748  0.1269  0.3820
19671W        W36519  15.382   8.149  14.421  0.0609 -0.0996 -0.2895
19672W        W36520   6.033   4.871  14.370 -0.0501  0.2000  0.1708
19673W        W36521   2.670  11.034   1.330 -0.4357 -0.2380 -0.2656
19674W        W36522   0.714   1.235  12.016 -0.0469 -0.1101 -0.1274
19675W        W36523   1.652   9.142  12.684 -0.1519 -0.1893 -0.0697
19676W        W36524   4.267  12.847  11.006 -0.0353 -0.1864  0.0092
19677W        W36525  15.166  12.376   1.928 -0.1542  0.1988 -0.0675
19678W        W36526   9.663   9.642  15.043  0.1125 -0.1612 -0.1797
19679W        W36527  16.764  11.193   0.701  0.1639 -0.1274  0.1813
19680W        W36528   7.189  10.561  14.399 -0.0984 -0.1387 -0.2075
19681W        W36529  14.778  16.177  14.616  0.0017  0.0329 -0.3594
19682W        W36530   9.509  16.820   2.582  0.1911 -0.1018  0.0029
19683W        W36531   8.744   7.528   0.294  0.0797  0.0316 -0.2056
19684W        W36532  17.111   4.231   0.558  0.1787 -0.0645 -0.1319
19685W        W36533  16.089  18.145  11.534 -0.0695  0.0183 -0.1463
19686W        W36534  17.536  17.144  13.520  0.0542 -0.0630  0.2620
19687W        W36535   1.385   1.501  15.644  0.2406  0.2931 -0.1653
19688W        W36536   2.204  17.752   1.707  0.1821 -0.0337 -0.2324
19689W        W36537  13.229   8.127   1.831 -0.1537  0.0229  0.2195
19690W        W36538  12.374   3.206   4.714 -0.1460 -0.3381  0.0241
19691W        W36539   7.580   8.391  12.219 -0.0516  0.3219 -0.1999
19692W        W36540   9.295   1.998   1.182  0.0436 -0.3788 -0.2004
19693W        W36541  17.723   8.588   5.269  0.2242 -0.4310 -0.1706
19694W        W36542  13.340   2.460  15.720 -0.1470 -0.2544  0.0211
19695W        W36543   0.694   3.988  14.412 -0.0396 -0.1304 -0.0337
19696W        W36544   3.213   0.088   2.156  0.2023  0.2369 -0.0350
19697W        W36545  17.454   4.614   2.633  0.0219 -0.1598 -0.0513
19698W        W36546   0.747  13.933  13.921  0.2738 -0.0364 -0.0900
19699W        W36547  16.217  14.872  12.655  0.0859 -0.1790  0.0681
19700W        W36548   3.423   1.064   1.136  0.0330 -0.3262  0.1019
19701W        W36549   3.254   4.329   1.295  0.0983 -0.0586 -0.3609
19702W        W36550   7.116   2.378  11.302 -0.3635  0.0169 -0.0030
19703W        W36551   3.075   0.479   4.388  0.1133  0.0759 -0.2237
19704W        W36552  16.109  13.691   2.631  0.0007 -0.1679  0.0429
19705W        W36553   9.411   0.832  13.074 -0.1770  0.2668 -0.0627
19706W        W36554  12.240  14.885   4.438 -0.0718 -0.1764 -0.0808
19707W        W36555  15.960  16.869   2.801 -0.1957  0.2435  0.1940
19708W        W36556  17.974  13.012   0.217  0.0183  0.1187 -0.2854
19709W        W36557   1.641  13.145  14.191  0.0649 -0.3449 -0.2792
19710W        W36558  10.098   9.983   1.213  0.1448 -0.1828 -0.2005
19711W        W36559  12.597  11.344  13.202  0.2721  0.2977 -0.2513
19712W        W36560   4.703   9.704   1.157 -0.1367  0.2518  0.0979
19713W        W36561   7.324  12.976  12.220  0.1843  0.0337 -0.1725
19714W        W36562  12.471  14.978  14.053 -0.0965 -0.2367  0.1729
19715W        W36563   3.345  15.036  15.893  0.1776 -0.2340 -0.2092
19716W        W36564  17.378   1.532   2.268  0.0361 -0.0905  0.1109
19717W        W36565  11.974  16.887  13.228  0.3921 -0.2238  0.1681
19718W        W36566   6.080  17.878   0.040  0.0863 -0.3204  0.0965
19719W        W36567   3.661   4.440  15.766 -0.3419 -0.0415  0.0077
19720W        W36568   0.313  15.017  11.676  0.0927 -0.0420 -0.1370
19721W        W36569   7.393  13.335   1.380  0.0524 -0.0112  0.0664
19722W        W36570  10.508   2.567  11.157 -0.0817  0.0818  0.1173
19723W        W36571   0.538  11.914   3.090  0.0102  0.1958  0.0619
19724W        W36572  13.529  12.200   4.131 -0.0690 -0.0954  0.2181
19725W        W36573  12.535   2.417   4.635  0.2663  0.2966 -0.0109
19726W        W36574   8.244  17.829  11.382  0.0033  0.2483  0.2157
19727W        W36575  10.237  11.610  15.312  0.0033  0.0393 -0.0631
19728W        W36576  18.150   0.483  14.127  0.1541  0.0037 -0.1062
19729W        W36577  16.276   7.244  14.089  0.1564  0.0043  0.0207
19730W        W36578   5.195  15.033  13.242  0.2616  0.3790  0.2259
19731W        W36579  13.303  10.412   2.866  0.1758  0.1664  0.2759
19732W        W36580   5.793  15.417  15.995 -0.0436 -0.0855  0.1188
19733W        W36581   3.310  17.680  12.099 -0.1496  0.2019  0.0196
19734W        W36582   6.055  18.025  13.322 -0.4042 -0.1923 -0.1358
19735W        W36583   7.016  13.403  14.486 -0.1159  0.0437 -0.0941
19736W        W36584  12.323   4.830   0.572  0.0528  0.3653  0.0297
19737W        W36585   9.998  10.490   1.946  0.1174  0.0811  0.0081
19738W        W36586  13.129  11.498  11.935 -0.0673  0.0042 -0.1187
19739W        W36587  14.102  16.687  13.238 -0.3129 -0.2051 -0.3939
19740W        W36588   8.968   0.441  16.039 -0.0216  0.3929 -0.0127
19741W        W36589  16.222   5.582  15.008 -0.0154  0.1393 -0.0765
19742W        W36590   1.377   7.537  15.156 -0.2105 -0.0907 -0.0387
19743W        W36591  11.504  10.382  14.456 -0.0900 -0.0350  0.1302
19744W        W36592  12.305  14.310   1.021 -0.1982 -0.0585 -0.0231
19745W        W36593  16.081   1.934  10.677 -0.3142  0.0787  0.1432
19746W        W36594   8.893  13.977  12.327  0.2528 -0.2088  0.1567
19747W        W36595  13.855   5.719  14.592 -0.1160 -0.0177  0.0880
19748W        W36596   1.533   0.775   1.937  0.0638  0.1057 -0.1995
19749W        W36597   5.468   1.736  12.040  0.3263  0.0961 -0.4454
19750W        W36598  15.281  11.698  10.809 -0.0627 -0.0094  0.3190
19751W        W36599  13.327   2.806  15.370 -0.1077 -0.0422  0.1194
19752W        W36600   3.278   8.026  15.103  0.0589  0.1006 -0.0861
19753W        W36601  13.967   8.011   4.736  0.0984  0.1261  0.4235
19754W        W36602  14.792   3.918   0.468  0.2297 -0.2486 -0.1195
19755W        W36603  13.996  16.851   3.179 -0.0718 -0.0234 -0.0776
19756W        W36604  12.551  17.073  15.962  0.2009 -0.0755  0.2803
19757W        W36605   7.956  14.446   1.952 -0.0705 -0.1349  0.2155
19758W        W36606   6.037   1.838   3.592 -0.3565 -0.0820  0.1388
19759W        W36607  14.609  10.570   3.039  0.3426 -0.0838 -0.0495
19760W        W36608   3.120  15.454   2.102 -0.0620  0.0007  0.1878
19761W        W36609   3.993  12.287   4.506  0.3054  0.2811 -0.0248
19762W        W36610   6.008   2.112  15.700  0.1281  0.1924  0.2063
19763W        W36611  13.479  12.068  14.579  0.0288 -0.1202 -0.2076
19764W        W36612   8.105  16.771  13.323  0.2942  0.1164  0.0743
19765W        W36613  11.067  16.999  11.605 -0.1890 -0.2144  0.0345
19766W        W36614  15.939   0.140   2.913  0.0563 -0.0253  0.0229
19767W        W36615  16.344  10.065   5.276  0.1436 -0.0497  0.2747
19768W        W36616   1.371   8.640   2.735 -0.2133 -0.2402  0.2105
19769W        W36617   5.939  10.940   4.520  0.0675  0.0873  0.1595
19770W        W36618   6.478  15.359   2.019  0.3004  0.0020  0.0005
19771W        W36619   3.400  14.476   2.014  0.0969  0.2284 -0.1890
19772W        W36620   8.236   8.856   1.732  0.0033  0.0668  0.0254
19773W        W36621   3.609   6.171   0.658  0.0104  0.2203  0.1774
19774W        W36622   5.446   8.273  14.029 -0.1500  0.0632 -0.2153
19775W        W36623   9.359   2.440   0.969 -0.1742  0.0340 -0.1342
19776W        W36624   3.017   9.576   5.316  0.3439 -0.2475 -0.1946
19777W        W36625  11.785  13.773  14.921  0.1608  0.3493 -0.3006
19778W        W36626  17.172  14.258   0.769  0.2127 -0.0715 -0.0029
19779W        W36627  17.457   6.472  10.788  0.1380  0.2905  0.0869
19780W        W36628   6.199   1.188   4.126 -0.1434 -0.0766  0.0747
19781W        W36629  15.072  15.357   4.533  0.1222 -0.1352 -0.2035
19782W        W36630  18.188  16.358   2.122 -0.1303 -0.1049  0.1640
19783W        W36631   9.117  16.848  15.657  0.0037 -0.0841 -0.0321
19784W        W36632  11.215   6.955   4.475  0.3780  0.1450  0.3000
19785W        W36633   9.148   8.206   4.840  0.2167 -0.1723  0.0260
19786W        W36634  11.496   1.585  11.174 -0.0382  0.2144 -0.1963
19787W        W36635   4.449  14.783  12.496 -0.2597  0.0819 -0.0253
19788W        W36636  18.131  14.355  14.767  0.0341  0.0817  0.1805
19789W        W36637  17.973   1.617   3.648 -0.0198 -0.0138  0.2771
19790W        W36638   3.712  10.224   3.887 -0.0934  0.0830  0.1155
19791W        W36639  10.990   5.609   2.529 -0.0179 -0.0410 -0.0464
19792W        W36640  14.365   7.875   1.215  0.2467 -0.1730  0.1578
19793W        W36641   7.644  11.236  15.175  0.2283 -0.2026  0.3106
19794W        W36642   2.030  16.229  13.628  0.0508 -0.2555  0.1324
19795W        W36643   4.637  15.857  14.176 -0.2705 -0.1372 -0.1214
19796W        W36644   8.540   0.963   0.650  0.1289 -0.5041 -0.1239
19797W        W36645  16.650   0.486  12.089 -0.2575 -0.1625 -0.1230
19798W        W36646  13.938  16.426   4.947  0.0546 -0.1153 -0.0863
19799W        W36647   0.103   7.004   1.681 -0.0827  0.1648 -0.0221
19800W        W36648   3.220  12.945  12.641  0.1121  0.4345  0.1515
19801W        W36649  14.752  13.688  12.166 -0.0220 -0.2173  0.1757
19802W        W36650  11.870   6.906  14.875  0.0992 -0.0399  0.1386
19803W        W36651   1.391  16.523  11.989  0.2139 -0.3079  0.1135
19804W        W36652  12.094   1.934   1.544  0.3032 -0.0854 -0.0353
19805W        W36653   5.725   8.882  15.257 -0.0767 -0.3879 -0.0126
19806W        W36654   6.116  13.475  14.605 -0.1561  0.0645 -0.0614
19807W        W36655   8.057  10.386  11.912 -0.0908  0.0617 -0.0307
19808W        W36656   1.300  17.574   0.783  0.2226  0.1576  0.2094
19809W        W36657   8.917   1.692  15.498  0.1153 -0.1463  0.1810
19810W        W36658   6.131   9.517   3.686  0.0841 -0.2445 -0.4659
19811W        W36659   8.498   2.286   0.399  0.1908 -0.0793  0.0687
19812W        W36660   3.124   3.645  12.859  0.0324  0.1347  0.4353
19813W        W36661  16.390   9.747   0.667  0.1509  0.0167 -0.0719
19814W        W36662  15.523   3.069   1.680 -0.4002  0.0978  0.1024
19815W        W36663   9.966   2.047   4.371 -0.1663 -0.3988 -0.1764
19816W        W36664   1.545   2.628   0.974  0.0024  0.1700 -0.2414
19817W        W36665   3.709   0.882  10.559 -0.0775  0.0722  0.2521
19818W        W36666   7.789   1.215   2.740  0.0425 -0.0979 -0.1808
19819W        W36667   2.867  11.414  10.491 -0.3814  0.1025 -0.1162
19820W        W36668   7.167   2.598   4.081  0.3015  0.0007  0.2264
19821W        W36669  13.860   5.713  13.269 -0.1657  0.2906  0.0387
19822W        W36670   1.131   9.535   0.454  0.0074  0.0188  0.2679
19823W        W36671   6.736   6.991  13.456 -0.0161  0.2671  0.0164
19824W        W36672   0.690   9.008  11.270  0.3540  0.1008 -0.3538
19825W        W36673   6.843   2.918   1.806  0.2207 -0.2040  0.0062
19826W        W36674  16.893  11.250   4.053  0.1501  0.1613  0.1714
19827W        W36675   0.775   8.397  15.560  0.1457  0.0386 -0.2269
19828W        W36676   6.509  16.025   0.684 -0.3610  0.0468 -0.1652
19829W        W36677  14.737  16.366  13.877  0.1837 -0.1313 -0.2745
19830W        W36678   8.868   6.626  14.806 -0.3005  0.1085 -0.1378
19831W        W36679   0.460  17.662   3.942 -0.6720 -0.1876 -0.0901
19832W        W36680   6.006   2.103   2.384 -0.0079  0.1299 -0.3757
19833W        W36681  13.334  17.169   2.721 -0.0235  0.1483 -0.1839
19834W        W36682  14.959  15.768  11.502  0.1506 -0.1870  0.0388
19835W        W36683  10.245  14.705  10.652 -0.0379  0.0881  0.2399
19836W        W36684  17.527   6.715   1.934  0.0021 -0.1253  0.0712
19837W        W36685  11.845   7.384  11.826  0.3683 -0.2401  0.0961
19838W        W36686  10.753  11.652   1.377 -0.4130 -0.0536  0.0501
19839W        W36687  16.285   6.087  11.934  0.0121 -0.3655 -0.0989
19840W        W36688   3.437   8.827   0.524  0.2225  0.0617  0.3241
19841W        W36689   3.626  11.655   1.788 -0.2766 -0.1781  0.0279
19842W        W36690   8.962   4.980  12.464 -0.1164 -0.1268  0.1453
19843W        W36691   5.264  10.141  13.964 -0.1626  0.0863 -0.0639
19844W        W36692  16.089   0.075   1.038  0.1049 -0.1060 -0.1093
19845W        W36693   3.117  16.201  12.616 -0.2593 -0.1129  0.1396
19846W        W36694   2.980   8.271   1.495  0.1461  0.0063 -0.2176
19847W        W36695  12.570   9.939   1.863 -0.3106 -0.2084 -0.3960
19848W        W36696   3.710  18.163  15.661  0.2684 -0.0843 -0.2759
19849W        W36697   8.864   9.313   3.607 -0.0432 -0.0271 -0.0351
19850W        W36698  18.114  14.801  11.624  0.0780  0.2174 -0.1605
19851W        W36699  14.786   3.994  11.203  0.0346 -0.0072  0.1127
19852W        W36700   1.951   1.912   4.776 -0.2038  0.0032  0.1278
19853W        W36701   0.231   6.800  14.654  0.1348 -0.0308 -0.1868
19854W        W36702  11.801  15.491   9.841 -0.2566 -0.0140  0.0392
19855W        W36703  10.898   7.079  14.339 -0.2198  0.3145 -0.0272
19856W        W36704   1.884   1.572  15.037 -0.1793 -0.7089 -0.0718
19857W        W36705  14.804  17.021  13.583  0.0228 -0.1195  0.1453
19858W        W36706  14.017   9.911   3.584  0.1162 -0.0586 -0.0941
19859W        W36707  15.101   6.224  11.748  0.2146 -0.2997 -0.1678
19860W        W36708  17.751  11.977   1.525 -0.0854  0.0968 -0.0508
19861W        W36709   3.686   7.016  14.044  0.0951 -0.0616 -0.0341
19862W        W36710   5.503   3.904   3.994  0.3154  0.0336 -0.1002
19863W        W36711   9.853   2.303  13.553  0.1813 -0.2103 -0.1387
19864W        W36712  14.841   4.810   3.035 -0.1220  0.0274  0.1848
19865W        W36713   1.445  13.995   1.962 -0.0555 -0.3865  0.1388
19866W        W36714   7.714   7.227   3.936  0.2381  0.0503 -0.2634
19867W        W36715   5.834  13.335   0.262 -0.0624 -0.1111  0.0034
19868W        W36716   5.581  17.726   4.281 -0.2867 -0.2772 -0.1231
19869W        W36717   7.274   4.161  15.772  0.0015 -0.0767 -0.1342
19870W        W36718  12.397  16.835   3.550 -0.0441 -0.0100 -0.2154
19871W        W36719  15.848   8.432   0.414  0.1166  0.4977 -0.0121
19872W        W36720  13.989   6.258  11.916  0.0345 -0.0358  0.1035
19873W        W36721   5.354  16.415  14.980  0.2522  0.1364  0.1218
19874W        W36722   9.676   0.251   0.163  0.1756  0.1713  0.1605
19875W        W36723  16.839   1.416  15.066 -0.2822 -0.0570 -0.0973
19876W        W36724   6.278  10.699  15.875  0.0785  0.0465  0.0720
19877W        W36725   8.013  13.952  15.410 -0.1975 -0.1871  0.0130
19878W        W36726  16.005   8.154   4.694 -0.3087  0.1435 -0.1121
19879W        W36727  16.877   8.180  14.039  0.1930  0.0106  0.0512
19880W        W36728   5.413  11.678  12.187 -0.0577 -0.0015 -0.2393
19881W        W36729   3.289  10.590  11.651 -0.0312 -0.2594  0.1552
19882W        W36730   2.473   7.231  13.496  0.0524  0.1351  0.3821
19883W        W36731  16.259  11.139  11.136 -0.0221 -0.0231 -0.3687
19884W        W36732  18.196  14.634   2.799  0.0237 -0.1439 -0.2342
19885W        W36733   2.564   0.017   5.758  0.0473 -0.3550  0.0607
19886W        W36734   9.601   6.421  14.093 -0.0911  0.0675  0.1211
19887W        W36735   6.689  13.193   1.811  0.3487 -0.2846 -0.0801
19888W        W36736  14.585   0.201   0.057 -0.3215 -0.0890  0.1611
19889W        W36737  13.518  11.599  12.249  0.4236 -0.1525 -0.0585
19890W        W36738  13.281  15.701  14.127  0.0653  0.2838  0.1240
19891W        W36739   9.044  15.939   3.522  0.0912 -0.0165 -0.0294
19892W        W36740  16.651   7.545  11.815 -0.0850  0.2379  0.2745
19893W        W36741   8.883  14.442  14.415  0.2528 -0.0874  0.0941
19894W        W36742  11.241  17.681  13.836  0.2851  0.0081 -0.2595
19895W        W36743   4.722  14.674  14.480  0.1337  0.1979  0.1951
19896W        W36744   8.160  11.519  14.246 -0.0600 -0.0929  0.1860
19897W        W36745  16.009  16.531  15.036 -0.0539  0.1292 -0.0414
19898W        W36746   2.157  16.443   2.167  0.0595 -0.4182  0.0961
19899W        W36747  17.501  11.523   2.260  0.5054 -0.0758  0.1823
19900W        W36748  14.852   1.255   3.427 -0.1006 -0.1286  0.0572
19901W        W36749   4.534  10.579  15.950  0.0677  0.0273 -0.0280
19902W        W36750  13.303   2.793   3.112 -0.0114 -0.1516 -0.1904
19903W        W36751   7.539   5.713   3.854 -0.4515  0.0432  0.1551
19904W        W36752   1.391   0.024   3.523  0.1915 -0.0784 -0.1676
19905W        W36753   0.234   9.620   1.755  0.2409 -0.0748  0.4769
19906W        W36754  16.618   1.398   3.647 -0.1939 -0.0185  0.1923
19907W        W36755   1.339  18.143   0.446  0.0632 -0.1163 -0.2120
19908W        W36756   3.305  16.778   4.118  0.1333 -0.2095  0.1713
19909W        W36757   2.268  16.949   2.428  0.1190  0.1376  0.2108
19910W        W36758   9.984  14.456  15.550  0.2095  0.4206  0.1545
19911W        W36759   5.822   1.483   3.852  0.0323 -0.0078  0.3500
19912W        W36760   6.252   9.991  12.527 -0.3175  0.0210  0.1575
19913W        W36761   8.375   2.650   3.714 -0.0501  0.0632 -0.1461
19914W        W36762   6.672   3.463   0.853  0.2834  0.0557  0.0031
19915W        W36763  17.144   8.209  13.367  0.2977  0.1358  0.0276
19916W        W36764   6.584  11.450   5.058 -0.0033 -0.3733  0.1878
19917W        W36765  10.716   9.920   2.003 -0.2995 -0.2307 -0.0897
19918W        W36766   5.557  14.179  14.708 -0.0877 -0.2436 -0.0582
19919W        W36767  11.559  11.818   2.403 -0.0637  0.1414  0.2077
19920W        W36768   7.271  15.078   1.060 -0.1381  0.1349  0.1783
19921W        W36769  10.168   6.315   1.738  0.1750 -0.0277 -0.0956
19922W        W36770  15.458  12.745  12.597  0.0039 -0.0718 -0.4629
19923W        W36771   6.920  17.900  12.722  0.0788 -0.1234  0.1870
19924W        W36772  10.754   7.481  14.073 -0.3354  0.0383 -0.0908
19925W        W36773   8.167  16.737   2.345  0.2650 -0.4572 -0.1154
19926W        W36774  17.895   9.122  10.963  0.1448  0.0079  0.1088
19927W        W36775   4.671   0.845  15.116  0.0487  0.0881  0.1372
19928W        W36776  15.400  14.119  10.227 -0.1708  0.1060 -0.1759
19929W        W36777  12.765  11.736   2.000  0.0962 -0.1632  0.2488
19930W        W36778   8.955   3.150   3.784 -0.3193 -0.0328  0.1177
19931W        W36779   2.469   6.713   4.269 -0.2697 -0.0301 -0.0974
19932W        W36780  17.661  17.356   0.524  0.1499 -0.1732  0.0312
19933W        W36781  12.516   0.821  14.780 -0.0466 -0.0904 -0.1837
19934W        W36782  13.000   8.325  12.236 -0.0252  0.2517 -0.2088
19935W        W36783  13.776   2.117   0.801  0.2040 -0.1338  0.1462
19936W        W36784  12.131   3.894  12.821 -0.0021  0.2373  0.0983
19937W        W36785   5.308   9.603  13.316  0.1903 -0.0479  0.3769
19938W        W36786   9.394   6.402  10.099 -0.2505  0.2239 -0.1424
19939W        W36787   9.023  17.158   1.017  0.0883  0.1653  0.1878
19940W        W36788  18.189  11.682   0.845 -0.1056 -0.0089  0.0130
19941W        W36789   0.277   0.887  11.456 -0.1261 -0.0395  0.3221
19942W        W36790   8.906   5.665   1.200  0.1639 -0.1133 -0.0546
19943W        W36791  11.905  13.060   1.414  0.1000  0.3148  0.1318
19944W        W36792   7.719  12.310   4.703  0.1189 -0.2811  0.0510
19945W        W36793  12.298   7.678   4.939  0.0518  0.2938 -0.3576
19946W        W36794  15.015  13.748   2.972 -0.0394 -0.1729  0.2086
19947W        W36795   6.617  15.519  13.915  0.1566  0.0019 -0.1946
19948W        W36796   8.553   4.478  13.632  0.4136  0.0039 -0.5034
19949W        W36797  16.315  15.470   4.540 -0.0003  0.0336 -0.1841
19950W        W36798   1.485   6.907  13.269 -0.1607  0.1877  0.0674
19951W        W36799   4.066  11.870   1.060 -0.0285  0.0507 -0.1865
19952W        W36800   4.621   9.293  14.590 -0.0804  0.1874 -0.0050
19953W        W36801  13.408   8.541  16.098  0.1124 -0.1274 -0.2756
19954W        W36802   1.802  17.405  14.636  0.2999  0.0056  0.1033
19955W        W36803  18.035   4.144  12.285  0.1820 -0.1406 -0.4708
19956W        W36804  15.453   0.980   3.856  0.1167 -0.2537 -0.0308
19957W        W36805   1.366  13.197  15.291  0.1696 -0.0006 -0.2574
19958W        W36806   0.776   0.184   0.285  0.0319 -0.0775  0.1149
19959W        W36807  14.249   3.948   4.039 -0.6055  0.1442  0.1494
19960W        W36808   1.602   6.440  14.755  0.3224 -0.2721  0.1616
19961W        W36809   7.543  14.387   3.761  0.0764 -0.0609 -0.4327
19962W        W36810   9.428  17.840   6.065  0.1436  0.2244  0.1351
19963W        W36811  17.315   5.073   3.719 -0.1202 -0.2918 -0.0057
19964W        W36812   8.206  14.239  13.079  0.0758  0.1877  0.4111
19965W        W36813   4.774   2.012   1.646 -0.0758 -0.2198 -0.1440
19966W        W36814   3.857  18.119  11.350  0.0865 -0.2659 -0.0527
19967W        W36815   2.450   2.294  14.508 -0.0101 -0.0169 -0.0203
19968W        W36816   5.406   7.715  11.457  0.4212  0.0063 -0.4373
19969W        W36817  16.654  12.629  15.927  0.1231  0.1072  0.0026
19970W        W36818  13.065  14.849   3.436  0.3038 -0.2784 -0.1176
19971W        W36819  16.932  12.057   3.480  0.5622 -0.3608 -0.2197
19972W        W36820   8.923  15.670   1.481  0.0031  0.1100  0.0298
19973W        W36821   6.138  17.880   4.274  0.1147  0.1057 -0.1337
19974W        W36822  14.401  16.579  11.443 -0.0010 -0.1068  0.2212
19975W        W36823   1.082   0.338  15.271 -0.3061 -0.1678  0.1349
19976W        W36824   6.282   0.652  15.834  0.2266  0.2083  0.0698
19977W        W36825   7.368   0.761  12.821 -0.1729 -0.1739  0.0728
19978W        W36826   1.399  14.421   2.868  0.2608 -0.0600  0.0307
19979W        W36827   7.173   8.436  11.178 -0.1818  0.2659  0.3611
19980W        W36828  10.394   5.121   2.914  0.0410 -0.2515  0.0449
19981W        W36829   3.155   7.105  13.926 -0.0462  0.1147 -0.1318
19982W        W36830  15.497   3.974   5.238 -0.1558 -0.4702 -0.0780
19983W        W36831  12.847   5.508  15.001 -0.0938 -0.1306  0.0562
19984W        W36832   5.630   6.105   5.344 -0.0520  0.1009 -0.2799
19985W        W36833  12.577  12.404   1.248 -0.0093 -0.0678  0.2338
19986W        W36834  13.393  13.437   1.664  0.2525  0.0021 -0.1887
19987W        W36835   9.238   4.727   1.335  0.1488  0.2323 -0.0802
19988W        W36836   1.554   6.333   4.304  0.2243  0.0211 -0.3275
19989W        W36837   4.171  16.153  11.218 -0.3493  0.0236 -0.0904
19990W        W36838   6.943  15.507  15.769 -0.1164  0.2300 -0.1579
19991W        W36839   6.634   9.277   3.657 -0.3540  0.3084 -0.0826
19992W        W36840  11.225   0.352   1.509 -0.1146 -0.3116 -0.0282
19993W        W36841   3.639   7.887  11.041  0.0188 -0.3690  0.0198
19994W        W36842  13.087   1.619  15.032  0.1456 -0.0936 -0.0636
19995W        W36843  13.896  16.009   3.253  0.2408 -0.2038  0.0097
19996W        W36844   9.377   3.180  15.293 -0.1540 -0.0410  0.2244
19997W        W36845  15.807   2.888  10.564  0.3371 -0.1062  0.0356
19998W        W36846  14.892   3.755  14.147  0.2019  0.1145 -0.0655
19999W        W36847   2.007   8.413   4.560 -0.5137  0.0829 -0.1242
20000W        W36848  11.869   3.400  11.267  0.0529 -0.0920 -0.0874
20001W        W36849   6.171   5.944   3.598  0.0122 -0.0035 -0.1565
20002W        W36850   9.079   7.190   0.439 -0.0077  0.0383 -0.0088
20003W        W36851   4.102   5.083   3.460  0.1850 -0.1104 -0.0886
20004W        W36852   0.122  12.141   5.289  0.1147  0.0904 -0.0623
20005W        W36853   8.893  14.689   4.162 -0.1609 -0.1301 -0.0398
20006W        W36854   1.992   2.179   2.630 -0.2342  0.1394 -0.2801
20007W        W36855   2.407   9.988  15.748 -0.1386  0.1039  0.1725
20008W        W36856  13.783  17.551   3.752 -0.0227  0.1040  0.1558
20009W        W36857   1.985   2.357   5.674  0.0294 -0.2522 -0.1060
20010W        W36858  13.465  12.068   3.354 -0.2288 -0.2959 -0.1533
20011W        W36859  16.933   8.967  12.808  0.1653  0.2859  0.2266
20012W        W36860   8.641   6.515   4.344 -0.0593 -0.1218 -0.1011
20013W        W36861   9.379   2.293  13.452 -0.0337 -0.1999  0.2846
20014W        W36862   4.363   8.507  11.669 -0.1970 -0.2949  0.0404
20015W        W36863  17.166   1.248  12.266 -0.1522 -0.3515  0.0175
20016W        W36864   8.432   6.592   2.345 -0.0380 -0.0524 -0.1021
20017W        W36865  13.533  13.694   1.016 -0.1657 -0.1316 -0.0393
20018W        W36866  15.911   8.736  14.640  0.0343 -0.1846  0.2779
20019W        W36867  16.507  17.194  11.030 -0.1826 -0.0124 -0.3036
20020W        W36868   4.952  13.918   1.542  0.1321  0.1369  0.1496
20021W        W36869  15.778  14.003  12.907 -0.0227  0.2545  0.0845
20022W        W36870  14.894  12.697   4.779 -0.0394 -0.0960  0.2305
20023W        W36871   2.071  18.010   3.756  0.3047  0.3650  0.0506
20024W        W36872   9.934  14.439   1.175  0.1783  0.1477  0.0811
20025W        W36873   8.510  14.981  11.312 -0.0537  0.1801 -0.1841
20026W        W36874   1.085   4.567   3.021  0.1591 -0.1631 -0.0573
20027W        W36875  10.318  11.592   0.661 -0.0746  0.3804 -0.2447
20028W        W36876  14.537  11.057   1.669 -0.0921  0.1162 -0.1164
20029W        W36877   2.804   3.795   3.981 -0.1263 -0.3149  0.3452
20030W        W36878   0.114   4.104   3.828 -0.3195  0.2063  0.1587
20031W        W36879   1.599   3.843  12.477  0.1805  0.1876 -0.1619
20032W        W36880   0.637   5.557   0.749 -0.0606  0.1081 -0.1161
20033W        W36881  14.612  16.166  11.536 -0.1645  0.2115 -0.0390
20034W        W36882  13.528   0.046   0.888 -0.0255  0.0314 -0.2041
20035W        W36883   1.561   2.843   3.258  0.1545 -0.0407  0.2217
20036W        W36884   8.373  13.953  15.789 -0.0621 -0.0254  0.0505
20037W        W36885   4.050  10.470  10.173  0.1763 -0.1258  0.1294
20038W        W36886  16.221  16.483   1.542  0.0348 -0.0102 -0.1070
20039W        W36887  10.584  10.084   2.472 -0.0682 -0.0414 -0.0257
20040W        W36888  15.275   7.538   3.506 -0.3807  0.2376  0.2251
20041W        W36889   8.285   1.222  13.702  0.1286  0.0642 -0.1644
20042W        W36890   1.234   2.747  13.577 -0.1704 -0.1279 -0.0002
20043W        W36891   9.455  11.348   1.815 -0.2796 -0.0157  0.2879
20044W        W36892   8.122   7.380   0.218 -0.0884  0.1846 -0.1069
20045W        W36893  11.653   3.964   3.640  0.0932 -0.0853  0.0900
20046W        W36894  14.502   9.333   2.865 -0.3801 -0.2176 -0.1739
20047W        W36895  11.101   2.891  14.449 -0.5185 -0.0839  0.1333
20048W        W36896   9.626  10.324  15.493 -0.0552  0.0400  0.0688
20049W        W36897  16.411   8.495  11.271  0.0926 -0.0798  0.0287
20050W        W36898  12.537   5.826   2.458  0.1889 -0.1316  0.1808
20051W        W36899  17.803   2.846   2.540  0.2413 -0.1720 -0.0051
20052W        W36900   1.760   4.726   4.631  0.0633  0.0506 -0.3849
20053W        W36901   0.742   2.018   2.604  0.6602  0.0739  0.2546
20054W        W36902  12.388   5.595   4.216 -0.0747 -0.2033  0.1534
20055W        W36903  10.978  12.829  11.737 -0.0272  0.0496  0.0030
20056W        W36904   4.315   7.107  11.396 -0.2208  0.0780 -0.0343
20057W        W36905   2.096  15.779   3.853  0.4076  0.0645  0.1810
20058W        W36906   5.861  14.420  14.353 -0.1018 -0.0531  0.1383
20059W        W36907   5.604  16.345   4.982 -0.1553 -0.0565  0.1030
20060W        W36908   9.795   4.257  13.446  0.3147  0.0485 -0.2686
20061W        W36909   4.980   7.811  12.438  0.3665 -0.0470  0.2738
20062W        W36910   9.699  18.182  12.959 -0.3169  0.2044  0.1893
20063W        W36911   3.930  17.442  13.416 -0.1478  0.3259 -0.1033
20064W        W36912   1.056  17.350  11.771  0.1265  0.0932  0.0767
20065W        W36913   2.124   5.936   0.353  0.0173 -0.1962  0.4964
20066W        W36914   7.102   4.877  12.257 -0.3696  0.3549 -0.3236
20067W        W36915   3.091  13.274  15.718  0.0268  0.0250  0.1151
20068W        W36916  15.399  16.497   1.077  0.0646 -0.1820 -0.0120
20069W        W36917  14.860   1.758   2.478  0.1779  0.0809 -0.2523
20070W        W36918   5.038   6.098  13.748 -0.0433  0.0977  0.1307
20071W        W36919   7.302   8.445   4.468 -0.1411 -0.1750 -0.1507
20072W        W36920  17.447   8.952  12.914 -0.2527  0.2979 -0.1697
20073W        W36921   0.511  15.599  13.781 -0.1802 -0.2920 -0.3899
20074W        W36922   7.089   7.839  12.874  0.3796 -0.2080  0.0741
20075W        W36923   4.851   0.863   0.412  0.2605 -0.0495  0.1884
20076W        W36924   2.982   9.138   5.637  0.0390  0.0363 -0.0588
20077W        W36925  10.231  10.016   1.930  0.2398 -0.2493  0.2182
20078W        W36926   6.691  18.172  12.124  0.1033 -0.1848 -0.0210
20079W        W36927  13.435   5.100   0.586  0.1795 -0.0662 -0.1285
20080W        W36928   3.010  18.100  14.655 -0.2273 -0.0550  0.1414
20081W        W36929   6.311  10.661   4.728  0.2135 -0.1712  0.2157
20082W        W36930   9.167   0.325   2.588 -0.0876  0.0747  0.0777
20083W        W36931   9.679  13.765  12.637 -0.0106  0.0947 -0.3952
20084W        W36932  10.726  13.407  10.970 -0.3972 -0.0813 -0.3821
20085W        W36933   0.934  13.094   5.336  0.0851 -0.0553  0.1527
20086W        W36934  16.415   6.993   0.425 -0.1990 -0.1099 -0.2367
20087W        W36935  10.587  15.945   0.428  0.1221 -0.0115  0.3056
20088W        W36936  11.141   2.421  13.389  0.1578  0.2882  0.0211
20089W        W36937  13.868   7.250   3.589  0.0325 -0.1140 -0.1629
20090W        W36938   8.219   4.675  14.721 -0.1413  0.4958  0.0391
20091W        W36939  16.796   2.916  10.469  0.1914  0.0431  0.0725
20092W        W36940   7.180  12.562   3.348  0.2843 -0.0357  0.1491
20093W        W36941  17.493   8.092  13.084  0.0250 -0.0682  0.1131
20094W        W36942   5.674   6.621  11.500  0.0971 -0.0884 -0.1095
20095W        W36943   2.822  11.432   3.894 -0.2321 -0.2869 -0.1440
20096W        W36944   2.477  14.356   0.533  0.1290  0.1217 -0.0434
20097W        W36945  16.603   4.258  11.607  0.2588 -0.1791 -0.0705
20098W        W36946   9.679   1.203  11.662 -0.1957  0.2102 -0.0298
20099W        W36947  14.020  15.273   3.908  0.0633  0.0691  0.0301
20100W        W36948  12.190  11.675   0.735  0.3917  0.0961  0.1093
20101W        W36949  11.776  16.084   1.219 -0.0157 -0.0119 -0.3405
20102W        W36950   5.060  17.054  12.951  0.2096  0.1247  0.2295
20103W        W36951   2.977  14.293  11.140 -0.0439 -0.0713 -0.3374
20104W        W36952  16.984   9.113  13.811  0.3318  0.1024  0.1941
20105W        W36953   2.795   8.247   5.181  0.0236 -0.1283  0.1584
20106W        W36954  18.002  13.081  10.166 -0.4970  0.1634  0.0172
20107W        W36955  12.037  18.167  15.768 -0.2398  0.0054  0.0287
20108W        W36956   2.894   0.472  10.028  0.0040  0.0821 -0.1153
20109W        W36957   3.363   8.273  11.709  0.0487 -0.2073  0.1570
20110W        W36958   4.261  18.063   2.645 -0.1050  0.1516  0.2386
20111W        W36959   8.274   0.370  15.340 -0.0715  0.2708  0.1910
20112W        W36960   0.308   6.677   2.049  0.4764 -0.2425  0.0029
20113W        W36961   7.762   5.445   3.413  0.2985  0.0009 -0.0438
20114W        W36962  17.592   3.177   1.586 -0.3118 -0.2109  0.1280
20115W        W36963   3.490   3.168   4.959  0.4571 -0.3582 -0.2194
20116W        W36964   3.134   4.534  13.174  0.0319 -0.1384 -0.0002
20117W        W36965  17.702   3.107  13.337 -0.1626  0.5304  0.0741
20118W        W36966   8.414   3.182   3.970  0.0324  0.0522 -0.1952
20119W        W36967  18.076  18.163   0.577 -0.0698 -0.3682  0.0698
20120W        W36968   1.822   1.925  12.813 -0.0072 -0.1689  0.0175
20121W        W36969   8.327  14.538  15.476 -0.0146  0.0866 -0.0931
20122W        W36970  16.418   9.107   5.369 -0.1990  0.3737 -0.1901
20123W        W36971  12.612   1.659   2.953 -0.0116 -0.1722 -0.1298
20124W        W36972  17.328   4.422   1.060 -0.5122 -0.0518  0.0899
20125W        W36973   9.769  17.958   0.992 -0.0457  0.0893  0.0141
20126W        W36974   9.494   1.509   5.091 -0.0059 -0.1944  0.1115
20127W        W36975   9.687   4.497   4.123  0.1049 -0.0695 -0.3379
20128W        W36976   5.697   1.520  14.946  0.1989 -0.2239 -0.0547
20129W        W36977   6.918  15.728   3.363 -0.3252  0.0587 -0.0555
20130W        W36978  10.836  18.000   0.872 -0.1150  0.1529  0.1776
20131W        W36979   0.458   7.774   4.285  0.1900  0.1152 -0.0864
20132W        W36980  11.981   5.013  15.134  0.3046  0.3764  0.1312
20133W        W36981  10.960  15.405  11.677  0.1801 -0.0775  0.0064
20134W        W36982  10.580   9.465   1.330  0.0582 -0.0308 -0.1408
20135W        W36983  12.597   1.857   1.080  0.1015  0.1505 -0.2645
20136W        W36984   9.741   3.167  12.280  0.0833 -0.2763 -0.0779
20137W        W36985   3.666   5.180  11.421 -0.0297 -0.0776  0.0018
20138W        W36986   0.937   5.572  13.806 -0.1179 -0.3412 -0.1756
20139W        W36987   1.946   5.763  12.617  0.0787 -0.0197  0.1232
20140W        W36988   1.404   2.712  15.516  0.1922 -0.2043  0.1097
20141W        W36989  16.667  12.375   1.024  0.2567  0.0555  0.1942
20142W        W36990   1.940  13.992   2.178  0.2663 -0.0111  0.0380
20143W        W36991  17.349  12.096   3.770 -0.3287 -0.1720  0.0747
20144W        W36992  16.711   7.382   0.711  0.2193 -0.0070  0.2128
20145W        W36993   0.665  16.211   1.771 -0.1696  0.0169 -0.0073
20146W        W36994   1.355  18.091  15.878  0.0651  0.0190 -0.1601
20147W        W36995   2.927   8.430   2.012  0.2252 -0.1016  0.1982
20148W        W36996   3.056   2.825  16.123  0.3442  0.1164 -0.1730
20149W        W36997  11.585  18.023  14.701  0.2466  0.0569 -0.4147
20150W        W36998  15.323   1.530   3.577 -0.0831  0.1986  0.3260
20151W        W36999   9.008  15.420   0.279  0.0724 -0.1423  0.2875
20152W        W37000  17.645   3.747   4.482 -0.1481  0.0030  0.0736
20153W        W37001   3.636   2.333  13.086 -0.2029 -0.3879  0.1917
20154W        W37002  10.789  11.615  12.280 -0.1390  0.0728 -0.1323
20155W        W37003   0.649   9.260   0.564  0.1317  0.2078 -0.2865
20156W        W37004   0.454   9.435   0.972  0.2372 -0.1904  0.0025
20157W        W37005   8.263  12.239   3.861  0.1235 -0.2759  0.2465
20158W        W37006  11.970  16.516   1.218  0.1498 -0.0499  0.0595
20159W        W37007   5.857   3.758   0.827  0.1240  0.2073 -0.3144
20160W        W37008   7.443   5.243  14.730  0.0327 -0.0986  0.3563
20161W        W37009  12.447   4.766  12.433 -0.0958  0.5470 -0.1326
20162W        W37010  15.932  12.026  12.265 -0.0843 -0.2262  0.1231
20163W        W37011  14.170   7.864   0.738  0.2125 -0.3460 -0.0636
20164W        W37012   0.542   5.006   4.195 -0.0447 -0.4242 -0.3340
20165W        W37013   0.143   9.091   4.392  0.0560 -0.1158 -0.3412
20166W        W37014   9.057   3.124  12.741  0.0576  0.1663 -0.0128
20167W        W37015  15.013  13.003   1.281 -0.0023 -0.1031  0.1179
20168W        W37016  12.538   1.215  11.223 -0.0701  0.0687 -0.0219
20169W        W37017  17.714   2.590  13.192 -0.1185  0.0505 -0.0734
20170W        W37018  14.160   5.430   4.941  0.1611  0.0706 -0.1056
20171W        W37019   0.743   9.089  14.652  0.1753 -0.2289 -0.1847
20172W        W37020  11.444   9.914   1.803 -0.0800  0.1049  0.1716
20173W        W37021  11.409   1.659  14.462  0.0929 -0.1728 -0.3438
20174W        W37022   3.075  15.747  13.338 -0.3550  0.2259  0.3240
20175W        W37023   1.134   0.372  13.113 -0.4660 -0.6284  0.3126
20176W        W37024   1.704  17.485  11.178  0.1403  0.1177 -0.0619
20177W        W37025   6.603  13.573  12.101 -0.0459  0.1233  0.0820
20178W        W37026   7.666  10.097   1.765  0.0673 -0.4208 -0.0455
20179W        W37027   7.697  10.425  15.162  0.2419  0.1283  0.2647
20180W        W37028   7.112  11.665   1.533 -0.2550  0.0107  0.0780
20181W        W37029   3.748  15.689  14.240 -0.0379 -0.2108  0.4235
20182W        W37030  12.723  16.131  14.674 -0.1476  0.0124 -0.1479
20183W        W37031   0.544  11.967  13.451  0.5003 -0.2514 -0.0290
20184W        W37032   0.670   7.527   3.283  0.2001 -0.0701 -0.2326
20185W        W37033   0.050   5.654  12.024  0.0949 -0.0210 -0.0951
20186W        W37034   0.129  16.222  10.545 -0.0735 -0.0025  0.1654
20187W        W37035   7.205   0.096  14.542  0.2446 -0.1209 -0.2293
20188W        W37036  17.412  12.991  12.491  0.1789  0.2137 -0.1098
20189W        W37037   2.780   5.218   2.266 -0.0624  0.2353 -0.1993
20190W        W37038   6.363   7.958  10.809  0.4270 -0.2223 -0.2999
20191W        W37039   3.981   7.874  14.067  0.1595  0.1301  0.2900
20192W        W37040  17.438  17.959   4.628 -0.1338  0.3754  0.1004
20193W        W37041  13.134  15.861  13.175 -0.0870  0.0995  0.2323
20194W        W37042   2.633  14.820   0.610 -0.4281 -0.2060 -0.0894
20195W        W37043   1.971  13.333  10.029 -0.1395 -0.0335  0.1987
20196W        W37044   5.526   7.898   4.230 -0.0390 -0.0217  0.0534
20197W        W37045   2.607   6.720   4.755  0.1280  0.0368  0.0126
20198W        W37046   4.500   1.089  13.674  0.3452 -0.1932 -0.0527
20199W        W37047  16.689  17.095  14.900 -0.0734 -0.0902  0.0558
20200W        W37048  16.899   3.556  11.167  0.0360 -0.1522 -0.0651
20201W        W37049   0.700  14.404  14.730  0.0153 -0.1299 -0.5200
20202W        W37050  13.181  13.838  14.231  0.0281 -0.0487  0.1736
20203W        W37051   4.117   0.863   2.564 -0.3495 -0.0738  0.1885
20204W        W37052   6.751  10.764  14.174 -0.0538  0.1364  0.0146
20205W        W37053  16.939   6.668   6.288  0.0658 -0.0594  0.0121
20206W        W37054   2.599  10.101  13.718 -0.2636 -0.0652 -0.2826
20207W        W37055   0.460  15.757   4.893  0.1243 -0.0642  0.3495
20208W        W37056   9.422   4.730  12.504  0.2557  0.2634 -0.1663
20209W        W37057  12.927  13.663   3.080  0.1488  0.1108 -0.0611
20210W        W37058  12.251   3.360   1.220  0.2514  0.1570  0.0348
20211W        W37059  14.958   4.854   0.655 -0.0529  0.1764 -0.0724
20212W        W37060   3.114  15.171   4.454  0.2297 -0.2683  0.2371
20213W        W37061  12.598   7.141  12.728  0.0525 -0.4462  0.0205
20214W        W37062  16.227  17.817  14.746 -0.0676 -0.1057  0.1102
20215W        W37063   7.796  15.713   0.034 -0.0486  0.1297 -0.0001
20216W        W37064   4.243  17.522   0.935  0.1358 -0.1029 -0.0554
20217W        W37065   4.763   4.428   3.547  0.2452 -0.1313  0.1300
20218W        W37066   1.117   5.693  11.997 -0.0288  0.2057 -0.0889
20219W        W37067   5.396   8.347  15.155 -0.2186  0.3002  0.0872
20220W        W37068  10.620  10.260  12.427 -0.0267  0.3732  0.0437
20221W        W37069   7.498   7.923   1.087  0.4823  0.1262  0.0949
20222W        W37070   8.734   5.440  13.214  0.3560  0.1827 -0.0393
20223W        W37071   8.597  14.925   2.888  0.1819  0.0337 -0.1745
20224W        W37072   1.911   0.202   1.111  0.1124  0.2211  0.1219
20225W        W37073   5.489   9.434   4.590 -0.1709  0.0394 -0.1791
20226W        W37074   4.400   6.146   2.493  0.3298 -0.2926  0.0138
20227W        W37075   3.841  13.541   3.954  0.2847 -0.0637 -0.2557
20228W        W37076  17.163   6.975  14.308  0.2287 -0.1696  0.2076
20229W        W37077  15.271   4.290  11.820 -0.0499 -0.0433  0.3001
20230W        W37078  13.451  10.082   0.586 -0.5024  0.1204 -0.2335
20231W        W37079  15.636   7.260  12.212 -0.0361 -0.0531 -0.0499
20232W        W37080  13.799   8.890   4.136 -0.3524 -0.0039  0.3509
20233W        W37081   3.028   9.335   4.398 -0.1711  0.0772  0.0655
20234W        W37082   2.653  18.026   4.397  0.1407  0.1489  0.2946
20235W        W37083  15.372   4.013  13.711  0.0204 -0.2029 -0.0403
20236W        W37084  15.285   7.652   4.854  0.2940 -0.0734 -0.1269
20237W        W37085   8.245  11.688  12.759 -0.0535  0.1299  0.0517
20238W        W37086  12.848  17.622  11.917 -0.0754 -0.1303 -0.1249
20239W        W37087  17.227  18.156   1.635  0.0127  0.0416  0.1270
20240W        W37088  12.731  17.918   2.878 -0.2072  0.0038 -0.2488
20241W        W37089  17.696   0.819  13.252  0.1455 -0.1430  0.1092
20242W        W37090  12.824  16.625   4.491 -0.0125 -0.4883  0.0304
20243W        W37091   9.094   6.124  14.630  0.3260  0.0009  0.0239
20244W        W37092  11.266   1.254  12.418  0.1559  0.1768  0.0401
20245W        W37093   7.204  14.671   1.361 -0.2098 -0.0848  0.0870
20246W        W37094  15.675   0.707   4.231  0.0311 -0.2775 -0.0722
20247W        W37095  17.922   4.614   3.978  0.3322 -0.1347 -0.2398
20248W        W37096   0.539  11.785   3.872 -0.0735  0.0588 -0.1995
20249W        W37097  14.277   8.020   6.280  0.0046  0.2991 -0.2516
20250W        W37098   4.155   7.293  12.542 -0.0018  0.1262  0.0532
20251W        W37099   7.730   7.934  12.766 -0.0916  0.6249 -0.0915
20252W        W37100  10.569   5.581   0.457 -0.0980  0.0280  0.1220
20253W        W37101   8.516  17.317   1.130  0.1584 -0.0022  0.0582
20254W        W37102  13.499   2.120   4.221  0.1683 -0.0363 -0.0749
20255W        W37103  14.331   8.678  12.956 -0.0223  0.3740 -0.1361
20256W        W37104   6.563   4.853   4.575 -0.2675  0.1164 -0.1716
20257W        W37105   8.692   0.530  14.132 -0.0254  0.1464  0.0091
20258W        W37106   2.633  12.682   0.583 -0.0326 -0.1254  0.0839
20259W        W37107   3.810   4.597   3.091 -0.2900  0.1987  0.2668
20260W        W37108   4.165  16.839  14.565  0.1637 -0.0785 -0.0526
20261W        W37109  14.361   2.852   4.401 -0.1044  0.2134 -0.2010
20262W        W37110   3.356   6.128  11.525 -0.2817  0.0129  0.4276
20263W        W37111  14.572  10.504  15.962 -0.1428 -0.4155  0.0865
20264W        W37112   3.538   8.165   4.976  0.3651 -0.0532 -0.1505
20265W        W37113  16.064  10.062   3.627 -0.1668  0.1930  0.3106
20266W        W37114  17.342  15.069  14.839  0.1682 -0.0215  0.0627
20267W        W37115   8.571   7.969   3.756 -0.1146  0.0453 -0.3927
20268W        W37116   8.566   8.261   4.770 -0.1170 -0.0000  0.0871
20269W        W37117  12.095   7.484   2.970  0.1610  0.2416  0.0446
20270W        W37118  14.286   1.590  15.162  0.0977  0.0054 -0.2960
20271W        W37119  12.302  15.810  15.009  0.1293  0.1045  0.1615
20272W        W37120  12.185  15.454   0.805  0.0559 -0.2221 -0.0259
20273W        W37121   3.284   4.681  12.196 -0.1675  0.1794  0.2401
20274W        W37122  10.460  15.603   2.654 -0.3066 -0.3570 -0.0230
20275W        W37123   2.328   9.915  15.260 -0.4186 -0.1038  0.2261
20276W        W37124   9.175   2.104  13.031 -0.1458 -0.2189  0.0014
20277W        W37125   4.921   5.773  11.973  0.0475 -0.2488 -0.1153
20278W        W37126   3.041  14.922   3.152 -0.2031 -0.0888  0.2340
20279W        W37127  10.703   3.896   5.153  0.2404  0.0517 -0.0244
20280W        W37128   9.485   2.702   2.377  0.0242 -0.2856 -0.0278
20281W        W37129  16.317  13.488   3.898 -0.1258  0.1082 -0.1340
20282W        W37130  14.459   2.843   9.663 -0.0680 -0.0912 -0.1468
20283W        W37131  12.957   2.156  14.138  0.3138  0.4835  0.0409
20284W        W37132  17.858  15.578  12.134 -0.1738  0.0648  0.0450
20285W        W37133   7.358   7.341   0.879  0.2598  0.0626 -0.1189
20286W        W37134   7.091   7.449   4.599 -0.0299  0.1484 -0.0916
20287W        W37135   7.469   7.112  14.874 -0.1423  0.1794 -0.0252
20288W        W37136  11.166  16.620   3.477 -0.1026  0.0222  0.0083
20289W        W37137   2.079   6.859  15.497 -0.0579 -0.0100  0.0959
20290W        W37138   7.906  14.230  11.785  0.0342  0.0375  0.3765
20291W        W37139   5.780   4.780   5.052 -0.0900  0.4697 -0.0911
20292W        W37140   5.343  11.211   3.998  0.1286 -0.1949 -0.5117
20293W        W37141  13.101  14.262  13.858  0.2420 -0.0330 -0.0112
20294W        W37142   5.283  17.768   2.778  0.0015  0.1263 -0.2088
20295W        W37143  10.961   9.216  12.982 -0.0463  0.2765 -0.1274
20296W        W37144  17.192  12.007   4.624 -0.1145  0.1468  0.0356
20297W        W37145  17.387   2.675   0.167  0.1265 -0.2033  0.3123
20298W        W37146   1.813   5.461  13.939 -0.0670  0.0584  0.3600
20299W        W37147  15.451  14.890   0.062 -0.2916  0.1258 -0.0828
20300W        W37148  10.152  10.912   1.564 -0.0401 -0.0738 -0.0578
20301W        W37149   2.571   6.889  15.569 -0.1264  0.0239 -0.0722
20302W        W37150   2.075  14.568   0.820  0.0740  0.0206  0.0279
20303W        W37151  10.617   2.361   0.067 -0.0240  0.2223 -0.0025
20304W        W37152  16.603   2.402  13.688  0.0511 -0.2519 -0.1508
20305W        W37153  14.302  10.084   0.765 -0.2183  0.0408  0.0238
20306W        W37154   0.526   2.110   2.103  0.0818  0.2149 -0.1134
20307W        W37155  17.656   1.104  12.321  0.2642 -0.1236 -0.1561
20308W        W37156   8.098   7.817   1.910 -0.0019  0.1960 -0.0712
20309W        W37157  12.297   6.829  13.725 -0.1533  0.0626  0.0420
20310W        W37158  10.520  16.407   1.648  0.0311 -0.0387  0.2028
20311W        W37159  16.311   2.552  13.106  0.1660 -0.0893 -0.2097
20312W        W37160   5.695   3.628  13.566  0.0609 -0.4946 -0.0099
20313W        W37161  14.438  16.245   4.902 -0.2668 -0.1675 -0.0028
20314W        W37162   3.250   9.240  14.955 -0.3687 -0.1760 -0.1397
20315W        W37163  13.940   5.712  12.722  0.1952 -0.0475 -0.2736
20316W        W37164  16.282   2.788  10.732 -0.2278  0.0421  0.4726
20317W        W37165  13.701  15.409   0.595  0.1487 -0.1661 -0.1112
20318W        W37166   1.452  10.999   2.737  0.2713  0.0039  0.2935
20319W        W37167  17.783  17.006   4.458  0.0606  0.1498 -0.3120
20320W        W37168   1.935   7.983   4.818 -0.2524  0.2942 -0.2167
20321W        W37169   4.075  10.517  15.709  0.4045 -0.0381  0.0312
20322W        W37170  15.366   0.863   0.128 -0.0455  0.4422  0.0960
20323W        W37171   6.386   1.460  12.112  0.0849 -0.1978 -0.0748
20324W        W37172  17.305  13.944   4.744 -0.1180  0.2686  0.2291
20325W        W37173   0.009   3.155  13.003 -0.0626  0.0823 -0.3009
20326W        W37174  13.905   3.583  15.535  0.0353  0.0178  0.0173
20327W        W37175  17.191   9.453  15.502 -0.2744  0.0744 -0.0635
20328W        W37176   8.605   0.222  14.505 -0.1101  0.0736  0.1086
20329W        W37177  16.628   5.048   4.386 -0.0522 -0.1244 -0.1112
20330W        W37178   6.316   6.132   4.826  0.2417 -0.0292 -0.1261
20331W        W37179   8.928   1.249   0.201  0.1103 -0.1510 -0.3728
20332W        W37180   6.544   6.823   0.573  0.1509  0.0218  0.1672
20333W        W37181   0.619  15.034  13.844  0.2473  0.2998  0.3672
20334W        W37182  14.776   5.079   1.060  0.0415  0.0164 -0.0217
20335W        W37183   0.326   7.785  11.678  0.3274  0.2092 -0.0502
20336W        W37184  17.488  12.030  15.439  0.2122  0.0592 -0.2550
20337W        W37185   5.681   0.787   1.074  0.0532  0.2200 -0.0530
20338W        W37186  15.932   4.979  15.431  0.0655 -0.1184  0.4072
20339W        W37187  11.973  10.877  15.292  0.1457  0.1641 -0.1340
20340W        W37188   0.980  17.343  12.461 -0.3192 -0.2266 -0.0576
20341W        W37189   1.628  16.664   4.493  0.3410 -0.0435 -0.3852
20342W        W37190   8.551   4.910  13.903 -0.0637 -0.1146  0.0051
20343W        W37191   4.336  13.793   0.217  0.3366 -0.0043 -0.1844
20344W        W37192  18.129   2.502   0.592  0.2477 -0.1711 -0.0795
20345W        W37193   3.633   4.819   0.959  0.2133  0.0883  0.0350
20346W        W37194  12.536   0.741   5.630 -0.0613 -0.3251  0.1895
20347W        W37195  17.328  15.165   2.411  0.2384 -0.2218  0.2868
20348W        W37196   6.428  10.505   1.877 -0.1381  0.3399  0.1989
20349W        W37197  15.164   7.543   3.021 -0.1117 -0.2250  0.1015
20350W        W37198  17.772  14.612  11.990 -0.0426  0.1955  0.1095
20351W        W37199   2.512  11.213  11.632  0.1577  0.0029  0.0819
20352W        W37200   5.632  17.102   2.985 -0.0278  0.0916 -0.2597
20353W        W37201   5.836  13.897  11.723 -0.6166 -0.2549 -0.1296
20354W        W37202  17.973   6.863  12.378  0.2623  0.0245  0.2685
20355W        W37203   6.718  17.027  15.822 -0.1766  0.1180  0.3248
20356W        W37204   0.327   0.168  14.257 -0.0303  0.0886  0.1284
20357W        W37205  14.389   6.039   0.551  0.2760  0.0294 -0.2294
20358W        W37206   7.951   3.731   0.988 -0.1345 -0.0907 -0.3054
20359W        W37207  10.841  12.392   5.715  0.2173  0.3292  0.5142
20360W        W37208   9.803  13.448  12.281  0.1369 -0.0382 -0.2259
20361W        W37209   2.174   0.077  14.876 -0.3623 -0.1421  0.5421
20362W        W37210  15.667  13.940  14.008 -0.0885  0.0143  0.1489
20363W        W37211   0.482   7.180  14.125  0.0184  0.0336  0.1161
20364W        W37212  12.313  16.210   2.096  0.2436 -0.1828  0.2667
20365W        W37213  13.078  14.087   0.345 -0.1983 -0.0134 -0.1562
20366W        W37214  12.103   9.059  12.152  0.0724 -0.0483 -0.0194
20367W        W37215   2.524  16.725  14.768  0.0397 -0.0322 -0.0445
20368W        W37216   7.761   4.848  14.852 -0.0012  0.1245  0.2489
20369W        W37217  15.048  13.383  14.511  0.4055  0.2063  0.4301
20370W        W37218  13.118   4.459   2.219  0.1797 -0.0635  0.3170
20371W        W37219  12.900  16.043   5.142  0.1369  0.0078  0.1547
20372W        W37220  16.015   9.751   4.914 -0.4442 -0.1267 -0.2533
20373W        W37221  11.363  10.966  16.021  0.0671 -0.0649  0.2322
20374W        W37222  11.296  15.881   2.979  0.1328  0.4659 -0.1463
20375W        W37223   2.214  10.986  13.474  0.0051 -0.1827  0.0633
20376W        W37224   3.085  16.874   1.919 -0.0653 -0.0204 -0.1572
20377W        W37225   8.575   3.171  15.657  0.1165 -0.1964 -0.0453
20378W        W37226  13.603   5.975  14.215  0.2487 -0.0079  0.5779
20379W        W37227  17.507   5.509   3.551  0.3046 -0.2048  0.4227
20380W        W37228   8.082  17.631  10.217 -0.1096  0.0576 -0.1394
20381W        W37229  13.630  16.016  12.830 -0.0947 -0.1861 -0.3367
20382W        W37230   7.784  17.868   2.121 -0.0789 -0.1598  0.0436
20383W        W37231  11.782  10.983  11.612 -0.1291 -0.0914 -0.0228
20384W        W37232  17.560  17.382  15.434  0.0639 -0.0321 -0.0290
20385W        W37233  13.153   6.675  14.394  0.0938  0.0182  0.0925
20386W        W37234  15.884  15.779   4.589 -0.1326 -0.0811  0.0419
20387W        W37235  15.816   5.770   0.017  0.1527 -0.1416 -0.0605
20388W        W37236   8.363  11.634   3.088 -0.1705 -0.2502 -0.1498
20389W        W37237  10.871  14.107   0.752  0.1620 -0.2243 -0.1574
20390W        W37238   5.094  17.275  13.456 -0.0929 -0.0924 -0.1468
20391W        W37239   5.075   5.526  11.449  0.0173 -0.1259  0.1689
20392W        W37240  14.816  15.671   2.045  0.2772 -0.0111  0.1326
20393W        W37241  11.645   1.687   5.378 -0.0240  0.2596 -0.2484
20394W        W37242  10.090  15.141   4.983 -0.2363 -0.0366  0.0191
20395W        W37243   1.145  11.224   4.270 -0.0530 -0.1192 -0.1880
20396W        W37244   6.933   3.136   1.322  0.2703 -0.1061 -0.2049
20397W        W37245   0.649   0.272  15.836 -0.0415 -0.0487  0.0482
20398W        W37246  10.368  11.702  11.908  0.0666 -0.1510  0.1457
20399W        W37247  16.606   7.185   3.255 -0.0532 -0.0434 -0.0496
20400W        W37248   2.261  17.674   5.124 -0.1652 -0.0441  0.0149
20401W        W37249   2.595   6.434  10.770  0.4941 -0.2138  0.1923
20402W        W37250   7.591   1.042  11.878  0.1888  0.1293  0.1654
20403W        W37251  14.315  15.767  12.475  0.0144 -0.2283  0.0266
20404W        W37252   8.552  12.268  15.003  0.0357  0.1567 -0.0039
20405W        W37253   5.249   9.337  11.394  0.0102 -0.1315  0.1818
20406W        W37254   3.062   0.576  15.381 -0.3874 -0.0391 -0.2958
20407W        W37255  11.935   3.199   0.692 -0.0958  0.0605 -0.1940
20408W        W37256   1.535   9.137   4.698  0.2613 -0.3130 -0.3691
20409W        W37257   7.785  17.287  14.372  0.4226 -0.0140 -0.1024
20410W        W37258   3.043   4.014   5.154 -0.0846  0.0861 -0.0420
20411W        W37259   1.152   3.827   1.484 -0.2185 -0.1920  0.1627
20412W        W37260  14.578  14.677   4.902  0.2433 -0.0954 -0.0504
20413W        W37261  13.949   7.200   2.609  0.1495 -0.0886  0.3077
20414W        W37262   6.817   8.791   4.428 -0.2657 -0.1192  0.0171
20415W        W37263  16.168   4.274   0.365 -0.2768  0.2456  0.2433
20416W        W37264  12.806   8.642  12.540 -0.1537  0.1937 -0.2907
20417W        W37265   1.348   2.555   0.239 -0.1083 -0.0954 -0.0105
20418W        W37266   5.672   3.152  12.308 -0.0842 -0.2416  0.1199
20419W        W37267   7.429   4.764   1.943 -0.0124 -0.1400 -0.0002
20420W        W37268  10.573   1.932  15.891  0.0674  0.2904 -0.2821
20421W        W37269   7.036  14.672  15.900  0.1015 -0.1486  0.1450
20422W        W37270   1.006   7.285  16.109  0.3233 -0.0422 -0.4078
20423W        W37271  12.100   0.558   2.452 -0.3226 -0.0077 -0.2027
20424W        W37272   7.487  11.262   5.236  0.0072 -0.3166  0.0100
20425W        W37273  17.397  13.324  11.603  0.1211 -0.1691 -0.0985
20426W        W37274  14.350   4.959   5.017 -0.3164  0.0958 -0.2044
20427W        W37275   1.251   7.397  12.752  0.0139  0.1804 -0.0664
20428W        W37276   3.450  17.787   3.994 -0.1642 -0.2405  0.0022
20429W        W37277  11.800   3.377  13.218 -0.2072 -0.0818  0.0895
20430W        W37278  12.605   0.150   4.456 -0.3323 -0.0600 -0.0789
20431W        W37279   8.084  14.054  13.832 -0.2993  0.0755 -0.2946
20432W        W37280  12.081  14.346   1.816  0.0461 -0.1045 -0.1468
20433W        W37281  16.678   0.116   3.963  0.0355 -0.1679  0.1102
20434W        W37282   3.476   7.250   4.137 -0.3952  0.2643  0.1417
20435W        W37283   2.834   7.899   3.175 -0.1565 -0.1214  0.2738
20436W        W37284   4.103   7.694   3.904 -0.3092 -0.2819  0.1404
20437W        W37285   6.607   9.692   6.167  0.2290 -0.3125  0.0284
20438W        W37286  10.232   5.129  12.051  0.0775  0.1374  0.1320
20439W        W37287  10.939   3.269   3.310 -0.3040 -0.2597 -0.1337
20440W        W37288  13.141   3.853  12.617 -0.1258  0.2862 -0.0077
20441W        W37289   5.555  15.515   3.741  0.0754  0.1837 -0.1358
20442W        W37290   2.746  11.758  15.926  0.2781  0.1382  0.1847
20443W        W37291   3.630  10.543  13.030 -0.2199  0.1988 -0.1725
20444W        W37292   8.433  16.450  12.672 -0.0815 -0.0692 -0.0148
20445W        W37293   6.766   1.526  15.513  0.1477 -0.0842 -0.0672
20446W        W37294  11.066   3.837   0.411  0.1642 -0.0870  0.2460
20447W        W37295  11.533   0.641  15.621  0.0072 -0.2005 -0.0093
20448W        W37296  17.204   2.448   1.243 -0.1271  0.0249 -0.0193
20449W        W37297  14.762   1.187  13.222  0.2415  0.1620 -0.0996
20450W        W37298   5.884  16.419  11.130  0.1195 -0.0704  0.0609
20451W        W37299  14.408   1.975  16.090 -0.3856  0.1491  0.0624
20452W        W37300  18.131   0.019   3.378 -0.1932 -0.4298 -0.1691
20453W        W37301  15.182   2.293   3.558  0.1018 -0.1599 -0.0846
20454W        W37302  13.506   0.384  11.717  0.0652  0.2304  0.0158
20455W        W37303  17.850   9.409  14.791 -0.0937 -0.1692  0.1548
20456W        W37304   0.931   6.627  11.560  0.0969 -0.1277 -0.1585
20457W        W37305   1.416   3.405   4.555 -0.2081 -0.3029  0.2311
20458W        W37306  16.070   6.713   2.364 -0.0458  0.1526  0.1585
20459W        W37307   1.520   7.377  12.322 -0.1083 -0.0553  0.1245
20460W        W37308   9.253  17.283   4.743 -0.2695  0.2397  0.1389
20461W        W37309  13.095   3.783   2.963  0.0512 -0.0182  0.0779
20462W        W37310  16.183   6.331  14.599 -0.1052 -0.1882 -0.0300
20463W        W37311   3.126  16.966  15.280 -0.0572 -0.0629 -0.3458
20464W        W37312  13.550   0.570  13.446  0.2331 -0.0971  0.0518
20465W        W37313  12.716  10.878   2.641 -0.0537  0.2140  0.2246
20466W        W37314  13.726   2.761   3.808  0.3609  0.0513 -0.1097
20467W        W37315  15.972  13.609   0.684 -0.1538 -0.2976 -0.1510
20468W        W37316   4.240   1.986  15.128 -0.3013 -0.2461 -0.1032
20469W        W37317  13.625  11.270   2.290  0.0465  0.0736  0.1658
20470W        W37318   0.436   8.659  12.305 -0.2923 -0.1115 -0.1216
20471W        W37319   0.134  16.274   0.175 -0.0333 -0.3761  0.3284
20472W        W37320   3.291  10.654   2.131 -0.0055 -0.0015 -0.0015
20473W        W37321  14.343   8.594   5.390  0.2266 -0.0918 -0.3994
20474W        W37322  12.918   0.146  13.109 -0.2351 -0.2873 -0.1961
20475W        W37323  12.368  16.659   0.153  0.2209  0.0981  0.0426
20476W        W37324   4.179  14.796  13.450 -0.0237  0.2333  0.2472
20477W        W37325   1.092   9.671   2.867  0.1634  0.1207  0.0547
20478W        W37326  13.416   3.910  14.596  0.0066  0.2798 -0.0104
20479W        W37327   2.811   4.245  12.942  0.1390  0.1657 -0.0381
20480W        W37328   9.229   3.647   0.161  0.0763 -0.2871  0.2151
20481W        W37329   3.460   8.442   0.055  0.0630 -0.0205 -0.1143
20482W        W37330  17.013  17.704  14.002  0.0327 -0.0265 -0.0290
20483W        W37331   3.629  16.624   2.601  0.3654 -0.0712  0.1064
20484W        W37332   1.217   2.347   2.650 -0.0069  0.1278 -0.3197
20485W        W37333  11.435   9.167   2.036 -0.0784 -0.2421 -0.0300
20486W        W37334  11.746  17.551  10.246 -0.0944 -0.0018 -0.1722
20487W        W37335   9.651   8.997   4.527 -0.0433  0.2998 -0.1409
20488W        W37336   5.535  16.069   0.702 -0.0556  0.1566  0.0628
20489W        W37337   6.175  11.433  14.164 -0.1787 -0.0311  0.3024
20490W        W37338   4.513  13.016   4.265 -0.0800 -0.1099  0.2679
20491W        W37339  10.431  14.198  13.635  0.0916  0.1226  0.2423
20492W        W37340  16.562   0.269   4.891 -0.2094 -0.1371  0.1672
20493W        W37341  13.832   2.558  16.051 -0.1768  0.3488  0.2474
20494W        W37342  11.461   3.862  13.942 -0.4579  0.1469 -0.1730
20495W        W37343   5.095   1.695   3.786  0.0410  0.0630  0.3198
20496W        W37344   3.097  17.162   3.747 -0.0688  0.3286 -0.3764
20497W        W37345  14.680  10.659   0.836  0.1155  0.2035 -0.3209
20498W        W37346   3.967   6.498  13.120  0.3940  0.1322 -0.0670
20499W        W37347  10.151  12.440   4.091  0.4009  0.3500  0.0230
20500W        W37348   1.132  15.630  13.791 -0.1935 -0.0636 -0.1093
20501W        W37349   2.203   1.544   4.205 -0.3061  0.1384 -0.1756
20502W        W37350   6.896  10.101  12.270 -0.1752  0.3172  0.2086
20503W        W37351   7.181  10.403  15.026  0.6688  0.2650  0.2335
20504W        W37352   5.557   2.429   5.431  0.3382  0.3061 -0.0380
20505W        W37353  14.582  14.303   0.407 -0.1683  0.0841  0.2368
20506W        W37354  16.007   8.905  15.830 -0.0509 -0.0967  0.0857
20507W        W37355   9.308   3.451   4.039 -0.2736  0.0058 -0.1409
20508W        W37356   5.425   7.610  12.221 -0.0413  0.0822  0.1496
20509W        W37357  17.976  13.222  12.888 -0.0142 -0.0039 -0.2748
20510W        W37358  10.967  16.950   4.375  0.3405 -0.0832 -0.1040
20511W        W37359   5.263   1.584  14.147 -0.0011  0.0476  0.0454
20512W        W37360  14.513   8.952  15.532 -0.1232 -0.4525  0.0572
20513W        W37361   1.392  11.589  15.490 -0.3991  0.0716 -0.0541
20514W        W37362   0.726   9.213   2.817  0.0332 -0.2593 -0.1056
20515W        W37363   2.902   8.262  11.492 -0.0163  0.2010  0.0493
20516W        W37364   3.640  15.795   1.424 -0.3141 -0.1543  0.0021
20517W        W37365  12.765   4.912  11.050 -0.0874 -0.0526 -0.0686
20518W        W37366  11.106  14.929   0.141 -0.2005  0.1762 -0.0774
20519W        W37367   3.911   1.064   3.123 -0.1683  0.0159 -0.3089
20520W        W37368  15.889   6.112   2.006  0.1028  0.0906  0.3193
20521W        W37369   8.191   0.428  12.151 -0.3246 -0.0170  0.0867
20522W        W37370   6.030  10.516   2.416  0.0307  0.3825  0.1065
20523W        W37371   0.001  12.392  10.694 -0.1118  0.4156  0.0286
20524W        W37372   4.675   8.469   2.635 -0.1303  0.0496  0.0545
20525W        W37373   8.809   3.029  16.114 -0.0659 -0.0120 -0.4575
20526W        W37374   8.170  11.688   1.424  0.0918  0.1517 -0.0611
20527W        W37375  10.131  14.137   2.936  0.0588 -0.3481  0.0843
20528W        W37376   3.202  18.002   5.128 -0.0835  0.0637  0.1836
20529W        W37377   9.626  12.195  12.131 -0.1069 -0.1652 -0.0520
20530W        W37378   7.302   8.865   1.204  0.1889 -0.1627  0.1810
20531W        W37379  10.188  14.853   1.651 -0.1848 -0.4409  0.2960
20532W        W37380  14.375  16.569   1.841 -0.2318 -0.1687 -0.2282
20533W        W37381   2.618   1.230   4.137  0.1657  0.0127  0.2685
20534W        W37382   9.071  12.864   0.333  0.1108 -0.2594 -0.2902
20535W        W37383   6.041   3.847   3.106  0.2866  0.1336 -0.3886
20536W        W37384   8.573   0.937  12.151  0.1259 -0.2683 -0.2325
20537W        W37385   2.525   8.505   1.557 -0.1816  0.0501 -0.0949
20538W        W37386  17.024  13.200  13.869 -0.0867  0.1804  0.0577
20539W        W37387   3.436   5.180  10.545 -0.2270  0.0025  0.0148
20540W        W37388  17.097   4.270   2.743 -0.0832 -0.1032  0.6647
20541W        W37389  16.657  12.133  11.539  0.2936 -0.1711  0.1180
20542W        W37390  11.056   0.407   5.442  0.2190 -0.1229 -0.0350
20543W        W37391   7.192  15.510   1.347  0.2355  0.1235  0.1846
20544W        W37392   1.266  13.434   4.016  0.2079 -0.0638 -0.2158
20545W        W37393   2.117  11.574   5.558 -0.1177 -0.3601 -0.1446
20546W        W37394  17.929   6.392   1.118  0.3059  0.3045  0.1773
20547W        W37395  10.456  13.257   4.859 -0.0028 -0.2890  0.2435
20548W        W37396   2.031   4.734  15.107 -0.0325  0.1288  0.1949
20549W        W37397   0.574  15.090  15.864  0.2069 -0.0450  0.0391
20550W        W37398   6.765   4.161   3.184 -0.1243 -0.1956 -0.3511
20551W        W37399   5.766   6.659  14.216  0.1237  0.0148  0.0465
20552W        W37400  11.885  15.662  11.805 -0.2012 -0.2410  0.0638
20553W        W37401  13.666   3.070   3.257 -0.0718  0.1035 -0.2280
20554W        W37402  17.078   7.735  13.146 -0.1090  0.0194 -0.0861
20555W        W37403   5.288   5.690  12.309  0.0528  0.1874 -0.4171
20556W        W37404  18.209  18.162   9.763  0.1227 -0.1047  0.2518
20557W        W37405  13.185  10.547  13.679  0.0380  0.0039 -0.0170
20558W        W37406  15.957   1.313  15.022  0.2681 -0.3221 -0.0328
20559W        W37407  11.342   3.379   5.109 -0.1314 -0.0492  0.0295
20560W        W37408   5.457   7.357   5.576  0.1163  0.3178 -0.0384
20561W        W37409   4.841  16.317  15.072 -0.2970 -0.0898 -0.2237
20562W        W37410   6.307  14.268   1.588 -0.0932 -0.1114  0.2914
20563W        W37411   8.422  11.318   2.331  0.0124 -0.1381 -0.2729
20564W        W37412   9.827   4.377  14.722  0.0018  0.2489  0.3427
20565W        W37413  15.325   5.482  11.058  0.0059  0.0542  0.0349
20566W        W37414   0.600  16.551  11.564 -0.2190 -0.1488 -0.0981
20567W        W37415  10.605   6.872   4.900  0.0888 -0.0562  0.6753
20568W        W37416  17.475   9.319  12.043 -0.1716  0.0264 -0.0473
20569W        W37417   8.770   1.991  14.184  0.1424  0.1537 -0.0365
20570W        W37418   6.490   7.362   4.812  0.1633  0.2203  0.1161
20571W        W37419   0.997  15.053   1.365 -0.0037  0.0241 -0.0616
20572W        W37420   4.478  10.330  13.412  0.1817 -0.1865 -0.1537
20573W        W37421   2.086  17.070  13.110  0.0460 -0.0670  0.2716
20574W        W37422  17.726   1.097  15.880 -0.4219 -0.2416 -0.1257
20575W        W37423   3.984  12.762  15.445 -0.0944  0.2081  0.0551
20576W        W37424  14.476   7.668  13.245 -0.3852 -0.0425  0.1419
20577W        W37425   3.369   8.921   0.034  0.0201 -0.3062 -0.2002
20578W        W37426   0.119  14.401   2.250 -0.0613 -0.1347  0.0191
20579W        W37427  16.960   9.509   2.004 -0.2543 -0.1111  0.1260
20580W        W37428  16.395   8.005   4.366 -0.0109 -0.0794 -0.3063
20581W        W37429  13.166   7.981  14.434  0.2690  0.5446  0.0987
20582W        W37430  13.410  12.962   1.533  0.2188  0.1044 -0.2804
20583W        W37431  10.843   4.874  13.418  0.0270 -0.0517  0.3000
20584W        W37432   3.745   9.769   1.426  0.2157  0.0950  0.0187
20585W        W37433  16.770   2.102   5.197 -0.1527  0.1388  0.3152
20586W        W37434   4.002  17.772   2.314 -0.1236 -0.1589  0.1013
20587W        W37435   1.138  15.371  12.973 -0.0324 -0.0571  0.0790
20588W        W37436  18.127  12.903   1.718 -0.0506 -0.0607  0.0067
20589W        W37437   9.848   7.827  15.119  0.1456  0.0010 -0.0199
20590W        W37438   3.693   6.958   0.878 -0.0716 -0.1726  0.1218
20591W        W37439   6.071   6.338   5.278  0.0041 -0.0554  0.0791
20592W        W37440   7.641  17.759  12.291 -0.1399 -0.0373 -0.0269
20593W        W37441   8.484  18.128   1.677 -0.1045  0.1786 -0.0063
20594W        W37442  15.939  13.502  12.286  0.1487 -0.1618  0.0422
20595W        W37443   7.484  13.978  11.699 -0.0278  0.2344  0.1523
20596W        W37444  10.058   5.148   5.002  0.1674  0.0951 -0.3383
20597W        W37445   6.510   7.775  14.519 -0.4494  0.0461 -0.0339
20598W        W37446  14.466   0.417   9.970 -0.0569 -0.1897  0.0733
20599W        W37447   0.700  10.850  14.387 -0.0411 -0.2394  0.2117
20600W        W37448  14.480   4.948  13.316 -0.2582 -0.1082  0.1424
20601W        W37449   0.968   0.928  11.185  0.1046 -0.0328 -0.1386
20602W        W37450   1.246   2.565   3.671 -0.0553  0.0824 -0.2262
20603W        W37451  18.210  15.380  15.277 -0.1592 -0.1691  0.3807
20604W        W37452  14.383  11.302   2.530 -0.0790  0.2697 -0.0839
20605W        W37453  16.846   6.218   5.074 -0.3271 -0.1810  0.0338
20606W        W37454   5.998  11.591  14.885 -0.0276 -0.0868  0.1569
20607W        W37455  12.547   6.063   4.334 -0.3660 -0.2892 -0.0472
20608W        W37456   0.643   4.434   2.948  0.2814  0.1165  0.0290
20609W        W37457  16.349   0.509   2.745 -0.1888 -0.3579 -0.0637
20610W        W37458  10.189   0.370  15.506  0.1579 -0.2123 -0.0832
20611W        W37459   9.536  16.509  14.540  0.0095 -0.0180  0.0769
20612W        W37460  13.070  12.415   1.331  0.0458 -0.3653 -0.0590
20613W        W37461  14.545   3.054  12.796 -0.1998  0.2638 -0.2505
20614W        W37462   9.961  11.492   2.929 -0.0435  0.0758 -0.0484
20615W        W37463  13.924  10.036  15.256  0.1829  0.0282  0.0596
20616W        W37464  15.327   6.566  13.322 -0.1224  0.2527  0.0220
20617W        W37465  10.209  13.759   5.373  0.0402  0.1080  0.4517
20618W        W37466  13.032  15.108  14.247  0.0398  0.0799 -0.5000
20619W        W37467   6.909  18.205   4.729  0.1357 -0.0219  0.2269
20620W        W37468   3.117   9.033  12.096  0.1903 -0.2855  0.2036
20621W        W37469   2.017  16.136  10.900 -0.0758 -0.1203  0.0650
20622W        W37470  12.563   4.612  15.933 -0.1333 -0.0614 -0.0484
20623W        W37471  13.688   7.613   0.500  0.3028 -0.1445 -0.2060
20624W        W37472   8.505  16.682   4.457 -0.0236  0.0273 -0.2113
20625W        W37473   2.063   3.241   4.148 -0.0690 -0.1464  0.1325
20626W        W37474  17.483   0.926  14.568 -0.0809  0.1430 -0.3609
20627W        W37475   3.730  12.353   1.216  0.0556 -0.1219  0.2836
20628W        W37476  11.799  13.319   0.999  0.1691 -0.0639 -0.0505
20629W        W37477   2.425   4.041   3.586 -0.0378 -0.0463 -0.1412
20630W        W37478  13.877  11.269   4.026 -0.1083 -0.0669 -0.0620
20631W        W37479   9.174  17.547  14.993 -0.0108  0.4685 -0.2097
20632W        W37480   0.874   8.884  12.473 -0.1091 -0.1132 -0.1093
20633W        W37481  13.974   0.072   2.695 -0.1872  0.1035  0.0318
20634W        W37482   9.505  17.279  15.724  0.0644  0.2529  0.0834
20635W        W37483   4.269   0.755  15.586  0.1029 -0.1018  0.2968
20636W        W37484   9.810   9.459  13.888 -0.1112  0.0616  0.3616
20637W        W37485  12.127   2.890   5.066 -0.1975 -0.3339 -0.1516
20638W        W37486   3.568  17.006   0.463 -0.1878 -0.0177  0.1582
20639W        W37487  10.106  13.643  12.907  0.0063  0.1542 -0.0716
20640W        W37488  11.853  12.046   0.402  0.0706 -0.1911 -0.2970
20641W        W37489  10.891   9.187  14.705  0.1656 -0.1192 -0.1015
20642W        W37490  16.384  15.089  14.342 -0.6197 -0.2903  0.0241
20643W        W37491   5.888  14.572   3.589  0.5373  0.1129 -0.4246
20644W        W37492  17.234  12.342  12.073 -0.2499 -0.0390  0.0217
20645W        W37493  13.535   7.496  14.689 -0.0407  0.1337 -0.0746
20646W        W37494  16.117   5.082   5.604  0.0608  0.2990 -0.1546
20647W        W37495   4.948   2.077  15.801 -0.1356 -0.2461 -0.1534
20648W        W37496   0.530  14.256   3.921 -0.2811  0.1636 -0.1135
20649W        W37497   4.830  17.025  13.825  0.1005  0.3090  0.0207
20650W        W37498   6.745  14.670  15.475  0.2247  0.1059 -0.1437
20651W        W37499  14.212  11.042   4.403 -0.0109 -0.1817 -0.3888
20652W        W37500  17.676  13.192   2.438  0.1198 -0.0774 -0.0043
20653W        W37501  12.524   9.021   2.165  0.1770 -0.2633 -0.1262
20654W        W37502   8.750   1.256   2.661 -0.2327 -0.1116  0.0564
20655W        W37503   6.467  14.417   3.694 -0.3353 -0.0752  0.3057
20656W        W37504   7.408  15.630  15.779 -0.2504 -0.5123 -0.2068
20657W        W37505   4.782   1.920  15.249 -0.0229 -0.0459  0.2923
20658W        W37506  16.399   8.971   0.780 -0.0225  0.1147  0.2656
20659W        W37507   6.370  15.559   4.780  0.1258 -0.1835 -0.1520
20660W        W37508   9.215   3.641  12.909 -0.1206 -0.2486  0.2990
20661W        W37509   5.273  12.592  12.511  0.1741 -0.0749  0.1682
20662W        W37510   1.291  11.942  16.052 -0.0192  0.1076 -0.1437
20663W        W37511  16.189   6.697   3.607  0.1693 -0.0620 -0.1221
20664W        W37512   8.170   4.132   0.830 -0.2266  0.3144 -0.2495
20665W        W37513  13.252   5.623   4.269  0.1537 -0.0480 -0.0502
20666W        W37514  16.504   7.288   5.114 -0.0341 -0.0751 -0.1825
20667W        W37515   3.146  14.524   5.955  0.0918 -0.3411  0.4101
20668W        W37516  12.646   3.864  15.407 -0.3758 -0.0365  0.1086
20669W        W37517   3.168   0.383   1.733 -0.0374  0.0815  0.2218
20670W        W37518  18.091  12.710  11.045  0.1549 -0.0806  0.0800
20671W        W37519   2.296   6.663  11.062  0.0594 -0.1661 -0.1174
20672W        W37520  17.845  17.167  11.410 -0.1862  0.1573  0.1120
20673W        W37521  15.107   7.088   1.856 -0.1073 -0.0849  0.1733
20674W        W37522   2.246   1.195   0.949  0.2138 -0.0995  0.0807
20675W        W37523  13.908   0.608   4.420  0.2908  0.2701  0.0932
20676W        W37524   1.524   1.272  15.231  0.0455 -0.0112  0.2658
20677W        W37525  15.408   0.056   0.626 -0.2828 -0.1232 -0.0932
20678W        W37526   2.873   4.548   4.588 -0.4103  0.0092 -0.0593
20679W        W37527  18.081   2.554  12.362  0.0912 -0.1334 -0.1762
20680W        W37528   4.348   7.477   2.912  0.1653  0.0865  0.1914
20681W        W37529   1.074   8.057   1.740 -0.0637  0.3646  0.0920
20682W        W37530   8.763  11.128   0.585  0.0832  0.0507  0.0757
20683W        W37531  10.605   5.555  12.750  0.3132  0.0019  0.1817
20684W        W37532  12.050  15.503   4.938 -0.0717  0.1394 -0.3784
20685W        W37533   5.192   7.153  14.963  0.2484  0.0444  0.1611
20686W        W37534   4.838   5.630   6.042 -0.1213 -0.0770 -0.0336
20687W        W37535  11.733  10.118   0.245 -0.2794  0.5796 -0.1071
20688W        W37536   4.400  17.771  14.104 -0.0629 -0.3284  0.1090
20689W        W37537  16.377  14.460   1.012  0.2571 -0.1135  0.2269
20690W        W37538  11.022  15.563   2.614 -0.0636 -0.2408  0.0148
20691W        W37539  13.583   4.684   0.741 -0.0388 -0.1359  0.0303
20692W        W37540   6.536  16.185   3.224 -0.0817  0.3075 -0.0883
20693W        W37541  14.947   2.649   4.428  0.0941  0.4061 -0.0090
20694W        W37542  15.270   2.475  12.914 -0.2624  0.0325  0.1572
20695W        W37543   8.481   5.699   3.984  0.1023  0.1119 -0.2157
20696W        W37544   8.180  12.753  14.839 -0.0318 -0.3296 -0.1719
20697W        W37545  16.647  16.559  15.021 -0.2175 -0.1221 -0.2186
20698W        W37546  12.314  10.263   1.546  0.0180  0.0772 -0.0697
20699W        W37547   4.224   9.240   4.154 -0.1853 -0.0993 -0.0246
20700W        W37548  13.665   4.730  13.540 -0.1822 -0.1153 -0.2272
20701W        W37549   9.906   7.796   2.840  0.2624  0.2898  0.0993
20702W        W37550  13.011  12.890  11.727  0.0378  0.1206 -0.0466
20703W        W37551  11.496  10.415  12.015 -0.1375  0.1928 -0.0897
20704W        W37552   9.678   1.314  11.163  0.1930 -0.4432 -0.1028
20705W        W37553   5.711  17.724  12.787  0.0519  0.2730 -0.1555
20706W        W37554  15.896   5.473  12.891 -0.3055 -0.0825  0.1197
20707W        W37555   9.246   3.503  12.387  0.0567 -0.1777 -0.2272
20708W        W37556  12.545   6.121   0.770  0.2052  0.2807 -0.1858
20709W        W37557  10.288   4.251   0.014  0.1878  0.3471  0.0317
20710W        W37558   2.038   2.564   1.683  0.0914  0.0098 -0.1964
20711W        W37559   2.037   1.709  12.113  0.0402 -0.2358 -0.2223
20712W        W37560   8.413  11.366   0.941 -0.0336 -0.2889  0.1595
20713W        W37561  10.956   0.860  12.634  0.0667  0.0581 -0.2142
20714W        W37562  13.185   1.877   3.112  0.0791  0.0388 -0.0681
20715W        W37563  14.608   5.490   2.415  0.0903  0.1999 -0.0671
20716W        W37564   2.850  13.170  12.429  0.2097 -0.1201  0.0299
20717W        W37565   1.410  17.427   2.664  0.0033 -0.2953 -0.0417
20718W        W37566   1.585   8.308  12.703 -0.0409  0.0787  0.2727
20719W        W37567   9.050   0.959   0.828  0.0497 -0.2447  0.1271
20720W        W37568  12.021  15.909  12.367 -0.2025 -0.0642 -0.1935
20721W        W37569  13.328   9.744   3.479  0.2492  0.1491 -0.2857
20722W        W37570   0.185   1.965   9.911  0.1923 -0.1362  0.0710
20723W        W37571  12.766   2.833   2.652  0.1490 -0.1760  0.2029
20724W        W37572   9.117   9.997  12.157  0.2884 -0.1282  0.2857
20725W        W37573  10.671   1.695   2.608  0.0137 -0.0160  0.0334
20726W        W37574   8.919  15.481   2.921  0.0889 -0.1910 -0.0900
20727W        W37575  14.972  13.423  15.079  0.0000 -0.0575 -0.1089
20728W        W37576  12.050  17.225  12.851  0.0656 -0.2241  0.0178
20729W        W37577  17.006   5.529  15.000 -0.1828 -0.1404  0.0087
20730W        W37578   5.918  12.792   1.706  0.1336 -0.1332  0.0591
20731W        W37579  12.936   8.313  10.483 -0.0900 -0.2725  0.3232
20732W        W37580  11.719   4.991  14.339  0.1001 -0.0168 -0.1145
20733W        W37581   9.724  13.224  15.756 -0.2827  0.2016 -0.1435
20734W        W37582   2.720   7.475   1.483 -0.1506 -0.2623 -0.2612
20735W        W37583  10.768  12.662   0.237 -0.0640  0.3092  0.1140
20736W        W37584   1.379   1.857   2.949  0.2415 -0.0043  0.0659
20737W        W37585   3.489   4.350  14.031 -0.1391  0.1039  0.4537
20738W        W37586   5.143  14.336  13.066 -0.1976 -0.0351 -0.1536
20739W        W37587   5.248  11.827  12.948  0.3245 -0.2754 -0.1529
20740W        W37588  17.716  12.433  11.284 -0.0571  0.1185 -0.0926
20741W        W37589   8.243   4.874   4.952  0.2253 -0.0386 -0.2180
20742W        W37590   9.973  10.201  15.044  0.2216  0.0477  0.1101
20743W        W37591   6.457  17.721  11.373 -0.0048 -0.2035  0.0088
20744W        W37592  13.021   8.680  13.950  0.2359 -0.2169 -0.2964
20745W        W37593  11.071  10.689   4.009  0.2049 -0.2288 -0.1987
20746W        W37594   9.730  13.391   5.434 -0.3141  0.2074 -0.3039
20747W        W37595  17.012  16.062   4.424 -0.1648  0.2561  0.0462
20748W        W37596   4.738   2.621   0.209  0.1123  0.2517  0.1219
20749W        W37597   8.059   7.961   1.104  0.0079 -0.1813  0.3317
20750W        W37598   1.758  13.977  11.189  0.0212  0.1571 -0.3253
20751W        W37599   1.997  13.445  12.283 -0.1313  0.1037 -0.2431
20752W        W37600   9.295   1.982  11.794  0.2215 -0.0242  0.0597
20753W        W37601   1.899  10.386   4.611  0.1548  0.2887  0.2842
20754W        W37602  13.125  14.830  12.560 -0.0408  0.0204  0.3544
20755W        W37603  14.235   8.174  13.769 -0.3216 -0.0830 -0.1351
20756W        W37604  14.841  13.825   1.797 -0.0270 -0.0122 -0.0948
20757W        W37605   1.527   9.910   1.886  0.2474 -0.4970 -0.0996
20758W        W37606  12.041   3.531  11.960  0.1440 -0.1572 -0.0703
20759W        W37607  11.799   9.591  12.625  0.0824 -0.1777 -0.0712
20760W        W37608  17.135   1.813  15.289  0.2767  0.2401  0.2846
20761W        W37609   1.100   6.093   1.685 -0.0335  0.2019 -0.4060
20762W        W37610   0.250   7.375   4.453  0.3081  0.1230  0.4397
20763W        W37611   4.442  15.399   4.780  0.0475  0.2214 -0.1702
20764W        W37612  17.810   1.253   2.448 -0.2290 -0.0908  0.0508
20765W        W37613  13.408   0.657   4.120  0.0843  0.1967  0.0637
20766W        W37614  14.659  17.032  11.706 -0.0443 -0.0294  0.1531
20767W        W37615  15.653  10.610   1.217 -0.2282 -0.5022 -0.1688
20768W        W37616   8.217   7.321  13.832  0.0867 -0.1076 -0.2787
20769W        W37617   6.208   0.844  14.838 -0.0352 -0.0761  0.0447
20770W        W37618  11.387  16.115   1.613  0.0367  0.1660 -0.1190
20771W        W37619   9.199   4.164  15.428  0.0609 -0.1104 -0.1798
20772W        W37620   1.075   9.657  13.750 -0.2247  0.2006 -0.0117
20773W        W37621  17.396  13.295  15.321 -0.0664  0.1351  0.0356
20774W        W37622  17.236   0.914  12.708  0.1731 -0.0719 -0.1455
20775W        W37623   2.647   6.603   6.181 -0.0032 -0.0676  0.1311
20776W        W37624   2.891  11.416  11.825  0.0069  0.1886 -0.1116
20777W        W37625  15.900  14.235   0.161  0.0155 -0.0677 -0.1782
20778W        W37626   6.240  17.345  14.123  0.2491 -0.2389 -0.1470
20779W        W37627   5.003   3.443   3.326  0.0750  0.4795  0.0704
20780W        W37628  15.458   3.306  13.445  0.1897  0.1241  0.0347
20781W        W37629  16.381   3.767   0.333  0.4453  0.0730  0.0942
20782W        W37630   5.254   6.998   3.780  0.1888  0.0556 -0.2167
20783W        W37631  18.133   5.129  14.183 -0.1965  0.0220  0.1202
20784W        W37632  11.665  10.445  12.520 -0.1186 -0.2276  0.3921
20785W        W37633  15.523   1.186  15.274  0.1103  0.3226 -0.2273
20786W        W37634   4.779  16.792   1.933  0.2542 -0.0539 -0.0839
20787W        W37635   2.284   7.490   4.272  0.1648 -0.1691 -0.2139
20788W        W37636  11.186   7.145  15.914 -0.0235  0.0603  0.3323
20789W        W37637  17.714   9.610  11.088  0.1868  0.0176 -0.1204
20790W        W37638   6.836   1.984  13.108 -0.1869  0.1916 -0.0709
20791W        W37639   5.369   2.418   4.301  0.0395 -0.0400  0.1229
20792W        W37640  12.234  15.942   3.913  0.2171 -0.0103 -0.1864
20793W        W37641   2.469   9.326   3.251 -0.3860 -0.0058  0.2733
20794W        W37642  15.830   8.715   3.489  0.0427  0.1098  0.2386
20795W        W37643   9.822  14.561   5.650 -0.3239  0.1058  0.0884
20796W        W37644  11.375   1.198  15.301  0.2005 -0.0425 -0.1287
20797W        W37645   9.071   8.620   2.238 -0.1702 -0.2238 -0.0775
20798W        W37646  13.561   4.217   2.032  0.0648 -0.0644  0.0431
20799W        W37647  17.440  16.123   4.228 -0.1815 -0.0460 -0.0385
20800W        W37648   7.964   7.351   3.407  0.2642  0.0416 -0.0165
20801W        W37649   1.838  17.822   4.894  0.5752 -0.1140 -0.1700
20802W        W37650   6.053   0.437  13.333 -0.0303  0.0626 -0.0190
20803W        W37651  11.502   2.899   4.509 -0.3604  0.1014  0.0680
20804W        W37652   8.777   8.216   2.382  0.0303  0.3210 -0.0666
20805W        W37653  10.109   6.434  14.342 -0.1138  0.2197 -0.0917
20806W        W37654  13.937  15.073  15.765 -0.0368 -0.0966  0.2687
20807W        W37655   3.468   2.035   1.630 -0.3009  0.1531 -0.2753
20808W        W37656   1.195   7.281   2.289 -0.3643 -0.0504  0.0505
20809W        W37657   3.763   6.233   4.516  0.3524 -0.0352 -0.0245
20810W        W37658  14.030   1.688  14.761  0.0947  0.1225 -0.1457
20811W        W37659   2.977  13.186   0.235 -0.4009  0.2844 -0.1262
20812W        W37660  17.566   7.941  14.097  0.1531  0.0023  0.0115
20813W        W37661  12.780  17.344  13.819 -0.0807  0.0947  0.0917
20814W        W37662  13.845  11.359  12.564 -0.3630  0.0802 -0.2495
20815W        W37663  15.528   9.534   1.201  0.0620 -0.0508 -0.1254
20816W        W37664  15.288   1.735  14.057  0.1350 -0.1020  0.0172
20817W        W37665   1.715   0.069   0.118  0.2105  0.0304 -0.1271
20818W        W37666  10.245   1.978   1.108 -0.0391  0.2351 -0.2052
20819W        W37667  10.909  11.646   4.168 -0.0815  0.1861  0.2620
20820W        W37668  15.542   0.372  14.843  0.2065  0.0208  0.0006
20821W        W37669   1.129  14.139  12.107 -0.2358  0.1025 -0.1660
20822W        W37670   1.477   0.911  11.303  0.1213 -0.0780 -0.0895
20823W        W37671  16.699  14.844   2.488  0.0596  0.1733 -0.1331
20824W        W37672   7.908   2.242  10.500 -0.0436 -0.3921 -0.2275
20825W        W37673   6.878   7.157   3.667 -0.1304  0.0810 -0.1839
20826W        W37674  17.474   0.759  11.302 -0.1049 -0.0005 -0.1451
20827W        W37675  14.185   8.808  15.046 -0.0481  0.0097  0.2616
20828W        W37676   5.293   4.721  11.831  0.1899 -0.2219 -0.2569
20829W        W37677   6.180  12.408  15.480 -0.1901 -0.2835 -0.0407
20830W        W37678   1.255   4.035  13.851 -0.2006  0.0481 -0.2844
20831W        W37679  14.201  11.233  15.328 -0.1039 -0.0630 -0.0896
20832W        W37680   0.918   0.268  14.661 -0.2793  0.3346 -0.1454
20833W        W37681   8.776   9.805  12.729 -0.0726  0.1979  0.1105
20834W        W37682   6.815   2.180  11.661 -0.2500 -0.0051  0.1053
20835W        W37683   2.307   7.091   2.488 -0.0881  0.3284 -0.1598
20836W        W37684   7.576   6.623   3.124  0.2742 -0.3026  0.1937
20837W        W37685  11.075   5.684   5.419  0.3067  0.1437 -0.1050
20838W        W37686   0.796   6.664  15.176 -0.3177 -0.1896 -0.0888
20839W        W37687  10.307  10.732  11.454  0.0918  0.1866  0.0987
20840W        W37688  11.152  11.339  15.294 -0.4068  0.0965 -0.4936
20841W        W37689   6.553   5.650   5.910 -0.2640 -0.0508 -0.1160
20842W        W37690   0.471  12.017  12.058 -0.2005  0.0201  0.1221
20843W        W37691   9.249  16.862  13.164  0.2500  0.1763 -0.0997
20844W        W37692   1.833  16.628  11.753 -0.1741  0.0360 -0.1869
20845W        W37693   4.125   0.384  12.599  0.0811 -0.0512  0.2406
20846W        W37694   2.660  14.055  12.449 -0.0936  0.1141 -0.0643
20847W        W37695   3.404  14.788   0.228 -0.1683 -0.0637  0.0069
20848W        W37696  13.096  13.695   5.403  0.1137  0.3047 -0.2226
20849W        W37697   7.606   4.152  12.622  0.0941  0.0804  0.1360
20850W        W37698  13.716   0.723  14.907 -0.2354  0.0167  0.1441
20851W        W37699  14.941   6.018   3.943  0.1661 -0.0523 -0.0149
20852W        W37700   8.571   2.382   4.106 -0.0904  0.4578 -0.0587
20853W        W37701  14.941  17.450  11.669 -0.0547 -0.1533 -0.0879
20854W        W37702  11.429  16.549   1.301  0.0835 -0.1093  0.1806
20855W        W37703   6.262  12.850  11.286  0.0597 -0.1058 -0.1646
20856W        W37704  16.392   9.759  12.629 -0.2068 -0.1323 -0.2189
20857W        W37705  18.103   9.489   0.007  0.0836  0.1894 -0.0861
20858W        W37706   8.934   2.113   4.391  0.0344  0.2483 -0.2626
20859W        W37707  17.359   4.607   4.023 -0.0527 -0.2308 -0.0247
20860W        W37708  12.301  14.737   0.223  0.0338  0.0405 -0.0222
20861W        W37709  14.117   0.006   2.024 -0.1028  0.2621 -0.0179
20862W        W37710   6.744   1.215  10.792 -0.2421 -0.2073 -0.0248
20863W        W37711  13.623  18.002  12.919  0.0445  0.1145 -0.1744
20864W        W37712   7.585   1.853  15.797 -0.0928  0.0337 -0.1482
20865W        W37713  16.998   7.564   2.348 -0.2792  0.3144  0.0079
20866W        W37714  13.582  11.218  13.355  0.1779  0.2496 -0.1636
20867W        W37715   5.766   1.416   4.431  0.0607 -0.2438  0.1170
20868W        W37716   8.463  13.774  12.056 -0.0902 -0.1270  0.1081
20869W        W37717   7.030   5.210  14.389  0.2817 -0.1177 -0.1238
20870W        W37718   3.362   2.098   1.085  0.0043 -0.2418 -0.1403
20871W        W37719   8.288   8.570  13.429  0.0043  0.0376  0.1107
20872W        W37720   3.976   3.023   2.408 -0.3327 -0.1450 -0.0799
20873W        W37721   9.295   5.911  10.559  0.0097  0.0075  0.0590
20874W        W37722   6.314   2.224  13.872 -0.1763  0.0246  0.0037
20875W        W37723   0.498  11.546  15.007  0.0218  0.1095 -0.2921
20876W        W37724  14.749   4.262  14.377  0.2212  0.2256 -0.2073
20877W        W37725   6.564   1.434   4.868 -0.0009 -0.0532  0.0996
20878W        W37726   3.238  10.340   3.903  0.0867  0.2949 -0.0568
20879W        W37727  18.136   4.211  15.897 -0.0647 -0.1544  0.1925
20880W        W37728   4.189   6.079  13.888  0.0279  0.2755  0.0097
20881W        W37729  12.613  15.446  15.621 -0.3452 -0.0075 -0.1928
20882W        W37730  11.360  10.225  15.265 -0.0706 -0.2422  0.0432
20883W        W37731   4.382  17.794   3.733 -0.0458  0.3784 -0.2675
20884W        W37732  17.181   1.321   3.211  0.2271 -0.0514 -0.1483
20885W        W37733   3.942   5.578   1.728  0.2287 -0.1501 -0.0085
20886W        W37734   2.009   1.596  11.633  0.1572  0.1136 -0.1835
20887W        W37735   3.782   1.111   2.191  0.0417 -0.0304  0.1162
20888W        W37736   7.774   3.319   2.074  0.0519 -0.1804 -0.0582
20889W        W37737   0.845   5.536   4.137 -0.0696  0.0114  0.2681
20890W        W37738   7.355  17.390   2.533 -0.0615  0.2107  0.1361
20891W        W37739   9.540   8.354   2.550 -0.2857 -0.0177  0.3997
20892W        W37740   3.143  17.875  10.786 -0.1316  0.3378 -0.2604
20893W        W37741  12.808   0.843  11.995  0.1209 -0.2559 -0.1065
20894W        W37742  10.810  16.944  14.137  0.1911  0.1602  0.1065
20895W        W37743  13.336  10.207   4.823  0.1134  0.1198  0.1274
20896W        W37744   3.473  17.152   3.023  0.2250 -0.3340  0.2984
20897W        W37745   1.473   6.636  13.887  0.1504 -0.1768 -0.1078
20898W        W37746   5.965  13.124   3.325 -0.0731 -0.0707 -0.4315
20899W        W37747  17.342   6.551   3.222  0.1586  0.0357 -0.0246
20900W        W37748  15.922   7.927  15.351  0.0831  0.0143 -0.3902
20901W        W37749  14.506   5.755  15.952  0.1145  0.0014  0.2293
20902W        W37750  14.895   2.545   5.331  0.0633  0.0390  0.0897
20903W        W37751   8.212   8.146  14.087  0.2543  0.1406 -0.0346
20904W        W37752  14.767   3.116   2.529 -0.0183 -0.0628  0.1970
20905W        W37753  12.194  13.697   1.134  0.1971  0.3559  0.1719
20906W        W37754   0.688   4.275  12.608  0.2205 -0.3649 -0.0496
20907W        W37755   1.330   3.865  14.910 -0.0668 -0.5680 -0.2372
20908W        W37756  11.308   5.944   1.575  0.2453 -0.2742  0.1298
20909W        W37757  16.627   6.984  14.421  0.1428  0.1422 -0.0632
20910W        W37758   5.538   0.173   0.124  0.0012 -0.0703 -0.0968
20911W        W37759   2.592  17.344   2.317 -0.0138  0.1275  0.1326
20912W        W37760   1.790   0.808   1.066 -0.2086  0.1612  0.5351
20913W        W37761   0.366  15.226  11.139  0.0018 -0.1574  0.0883
20914W        W37762  18.006   8.118  15.875  0.0784  0.2418  0.3204
20915W        W37763  15.066   9.433   2.478  0.0781  0.0212 -0.0976
20916W        W37764   5.792   3.145  15.491  0.1335 -0.1438  0.2527
20917W        W37765   8.227   9.601   0.456 -0.1605 -0.0155 -0.0496
20918W        W37766   5.960   7.673  14.558 -0.2264 -0.2814  0.0051
20919W        W37767  13.424   7.499  11.686  0.0666  0.1173  0.1539
20920W        W37768  17.907   6.126   4.932 -0.1394  0.0031 -0.0920
20921W        W37769   6.188  11.128   5.631  0.0743  0.2858 -0.0627
20922W        W37770  16.039  14.110  12.420  0.0723 -0.2140 -0.0437
20923W        W37771  16.663  11.816   1.805 -0.0692 -0.0168 -0.2033
20924W        W37772   1.710   6.589   2.662 -0.0582 -0.1325  0.0590
20925W        W37773   9.340  17.988  14.502  0.1944  0.0482  0.0494
20926W        W37774   4.725   7.734  14.111 -0.1001  0.2312 -0.3777
20927W        W37775   3.402  17.427   4.714  0.0625  0.0432  0.1052
20928W        W37776   4.949   4.029  13.277 -0.0937 -0.2300 -0.0542
20929W        W37777   7.868  11.518   2.209  0.1701 -0.0194 -0.0722
20930W        W37778   9.104   4.757  14.805 -0.0816  0.1675 -0.2058
20931W        W37779  13.544  12.235   1.337 -0.1999 -0.0622 -0.3774
20932W        W37780   8.655   4.145  11.600  0.1760 -0.1256 -0.1755
20933W        W37781  15.141   5.489   4.121 -0.1409  0.1946 -0.1456
20934W        W37782   8.935  15.891  13.782  0.0650  0.0542 -0.3111
20935W        W37783   6.061   7.395  12.973 -0.0341 -0.0817  0.1865
20936W        W37784   8.846   8.034  12.838  0.0406 -0.0443 -0.2293
20937W        W37785   0.482   3.326   2.148  0.1269 -0.0022 -0.0808
20938W        W37786  10.816   8.918  15.767 -0.1262  0.1418  0.1330
20939W        W37787   4.116  10.617  12.305  0.0118  0.0142  0.1593
20940W        W37788   1.215  15.552   0.793  0.1537 -0.0345  0.0839
20941W        W37789   8.674  15.641   3.312  0.0731  0.1448 -0.0708
20942W        W37790  14.877   1.195   1.918  0.1519  0.5115  0.0144
20943W        W37791   0.846  13.136   1.881  0.1546 -0.2315  0.0318
20944W        W37792  12.532   8.229   3.748  0.2936 -0.0715 -0.1928
20945W        W37793   8.451  18.017  12.942  0.0623  0.2508  0.1146
20946W        W37794  13.173  16.248  12.815 -0.1000 -0.0250 -0.1665
20947W        W37795   2.699   5.636  15.639  0.1229 -0.1560  0.5037
20948W        W37796  16.118  10.016   3.084  0.1454 -0.2382  0.1635
20949W        W37797  17.406  15.284  14.152  0.2461  0.3308  0.1267
20950W        W37798  15.529  17.091   2.546  0.0636 -0.1212  0.3757
20951W        W37799  14.558   6.428   2.495 -0.1084 -0.2162 -0.2507
20952W        W37800  18.182  13.417  14.964  0.2484 -0.0318 -0.0758
20953W        W37801  17.720   8.038   5.243 -0.0624  0.1435 -0.1599
20954W        W37802   6.150   6.231   0.225 -0.1184  0.1881 -0.1037
20955W        W37803   4.730  16.901   4.039 -0.2172  0.2530 -0.0972
20956W        W37804   0.140   9.904  14.399  0.3443 -0.1753 -0.0729
20957W        W37805   1.136  14.859  12.855 -0.2299 -0.0540 -0.4091
20958W        W37806   0.058   7.363  13.384 -0.0093  0.2669  0.0683
20959W        W37807  14.279  17.547  12.261 -0.0763  0.2158 -0.0955
20960W        W37808   2.205   1.222   3.777  0.4999 -0.0221 -0.1703
20961W        W37809   5.439   8.501   1.980 -0.0107  0.1073  0.1492
20962W        W37810  12.153   7.942   3.413  0.0919  0.0882 -0.3760
20963W        W37811  13.469   4.857  15.645  0.1305  0.2047  0.1255
20964W        W37812   0.897   5.222   1.221 -0.3128  0.0772 -0.0720
20965W        W37813   0.368  15.271   0.783  0.0143 -0.2973  0.1669
20966W        W37814  10.265  16.936  14.004 -0.2301 -0.1145 -0.1582
20967W        W37815   8.461  10.069   4.449  0.0960  0.3749 -0.2960
20968W        W37816   8.822  11.305  15.104  0.1176 -0.2794  0.0238
20969W        W37817  14.529  10.733   2.093 -0.0300  0.1675 -0.1715
20970W        W37818   0.386   2.093  10.629 -0.1405  0.0334 -0.4615
20971W        W37819   0.425   4.008  13.246 -0.0689  0.2127  0.0672
20972W        W37820   5.559   6.414   2.405 -0.2126 -0.1658 -0.0039
20973W        W37821  13.812   7.329   1.721 -0.2090 -0.1622  0.2620
20974W        W37822   3.487  11.727  13.417 -0.0150  0.0084 -0.2621
20975W        W37823   3.680   7.619  12.375  0.1093  0.1096 -0.0026
20976W        W37824   4.739  10.878   1.195 -0.0436 -0.0617  0.1041
20977W        W37825  17.309  15.159  12.664  0.2715 -0.3879  0.3010
20978W        W37826  12.863   8.892  14.843  0.1413 -0.0442 -0.0070
20979W        W37827  10.828   9.421   0.849 -0.1475  0.2173  0.2677
20980W        W37828  16.608   1.724   1.994  0.3663  0.1983 -0.0221
20981W        W37829   4.960   8.991  11.080  0.1823  0.1349  0.1804
20982W        W37830  11.487  13.537  11.642  0.0309  0.4029  0.0334
20983W        W37831  15.055  12.282   4.532  0.3838 -0.2890  0.1374
20984W        W37832   9.185   9.316  15.319  0.0069  0.1595 -0.0484
20985W        W37833   1.543  14.627  12.411  0.0080 -0.2274 -0.2362
20986W        W37834   7.880  11.680   0.147 -0.0712 -0.1179  0.0379
20987W        W37835   8.030  10.667  12.658 -0.1517  0.0100  0.2253
20988W        W37836   6.204  11.705  15.359 -0.3601 -0.0129  0.0191
20989W        W37837  16.067   1.654  14.078 -0.0117  0.1101  0.0056
20990W        W37838  17.981   4.027   4.139  0.2013 -0.1799  0.0460
20991W        W37839   0.442   1.152  13.138  0.0959 -0.1268 -0.3516
20992W        W37840  17.405   6.492  14.386 -0.3620  0.0198  0.1607
20993W        W37841   9.824   9.361  11.511 -0.1589  0.0473  0.1337
20994W        W37842  10.092   4.716   4.700 -0.1947 -0.0197  0.0126
20995W        W37843   3.421   4.293  14.735  0.1853  0.1079  0.2082
20996W        W37844   2.447  11.363  13.318 -0.2001  0.3375 -0.0003
20997W        W37845   4.185   3.393  11.644  0.2037 -0.1497  0.0527
20998W        W37846   9.468   6.343  12.175  0.0679  0.2299 -0.1708
20999W        W37847  12.786   6.249  13.261 -0.0054 -0.0367  0.0990
21000W        W37848   3.608  14.840  10.473  0.1134 -0.3246 -0.0337
21001W        W37849  12.164   6.154  16.044  0.0454  0.0544  0.0406
21002W        W37850   7.248  13.166   3.733  0.1582 -0.3109 -0.1137
21003W        W37851  15.931   2.108  12.894  0.0163  0.0969  0.0975
21004W        W37852   5.791  13.241   1.458 -0.2049  0.5484 -0.1598
21005W        W37853  15.715  16.578  14.599  0.0683 -0.1266 -0.1664
21006W        W37854   5.080  11.897  14.235 -0.1824 -0.2614  0.1552
21007W        W37855   7.542  10.457   2.557  0.2016  0.0903 -0.3802
21008W        W37856   0.721  14.676   1.661  0.0238 -0.1823  0.0085
21009W        W37857  14.443   7.502  14.742 -0.1162 -0.3430  0.0952
21010W        W37858   1.807  14.134   1.630  0.0966 -0.0997  0.0567
21011W        W37859   6.415   0.211   2.635  0.0923 -0.0982  0.2569
21012W        W37860   0.690   1.622   2.076  0.2773  0.2012 -0.3447
21013W        W37861  12.843   7.538   2.513 -0.0720 -0.1290 -0.0828
21014W        W37862  12.374  15.595  12.583  0.1724 -0.0702 -0.1681
21015W        W37863  16.821   3.404  10.180  0.1175  0.0958  0.0075
21016W        W37864   9.490   2.347  10.374  0.5019 -0.2398 -0.3685
21017W        W37865   6.869   4.987  15.412 -0.3550  0.0556 -0.1309
21018W        W37866   2.002   2.120   5.235  0.3195 -0.1075 -0.0360
21019W        W37867   0.954   3.716   4.052  0.2864  0.1830 -0.0019
21020W        W37868  10.008  15.105   3.553 -0.0730 -0.1183  0.2114
21021W        W37869   5.470   4.042  12.682  0.3859 -0.1807 -0.1604
21022W        W37870  12.381  15.834   1.703  0.0976  0.3408 -0.0184
21023W        W37871   0.824   8.914  15.151  0.1446 -0.0941  0.0383
21024W        W37872   9.640  14.843   0.203 -0.0000 -0.0558 -0.2398
21025W        W37873  17.142  15.861   3.887  0.1107  0.0912 -0.0811
21026W        W37874   2.763   8.571   1.118 -0.1400  0.2161  0.2493
21027W        W37875   8.559  13.909  15.302 -0.0413  0.0497  0.1972
21028W        W37876  14.650   8.964  16.118 -0.3075  0.0765 -0.2464
21029W        W37877  10.470   0.218   0.613  0.1203  0.3622  0.1272
21030W        W37878   9.748  18.140   2.749 -0.4691  0.0908 -0.1529
21031W        W37879   9.432  16.062  11.717 -0.0993 -0.0509  0.2049
21032W        W37880  16.466   9.738   5.583 -0.0092  0.2664 -0.1103
21033W        W37881  13.000  14.285   2.121 -0.1477  0.0622 -0.0636
21034W        W37882   2.977  18.031   4.037 -0.1911  0.0907 -0.0863
21035W        W37883  12.295  12.242   2.977  0.1652  0.1470  0.3223
21036W        W37884  14.843   6.232   5.162 -0.3065 -0.1164  0.0054
21037W        W37885  12.890  16.243  13.281 -0.2341  0.2277 -0.2230
21038W        W37886   3.597   4.944  12.532  0.3515  0.4003  0.1038
21039W        W37887   0.762   2.012   1.685 -0.0059 -0.1346 -0.0973
21040W        W37888  13.831   3.382   0.381  0.0277 -0.0889 -0.1028
21041W        W37889   7.318   2.260  11.770 -0.2581  0.0182  0.0225
21042W        W37890  16.385  13.288  12.520  0.0725  0.3446 -0.0187
21043W        W37891  12.373  10.695  11.599  0.2944 -0.0889 -0.0465
21044W        W37892   1.647  13.608  11.484 -0.0645 -0.1766 -0.1779
21045W        W37893   4.108   2.619  11.027 -0.0355 -0.0903  0.5194
21046W        W37894  13.339  12.891   4.104  0.2974  0.2009  0.0731
21047W        W37895  15.315   6.989  13.048  0.2429  0.2047 -0.3724
21048W        W37896   4.978  12.694   4.264  0.2119 -0.0131  0.0413
21049W        W37897   6.391  15.938  14.158  0.0349 -0.4033 -0.1426
21050W        W37898   0.144   9.906   0.111 -0.0145 -0.0391 -0.0766
21051W        W37899   6.381  12.788  13.690  0.1163 -0.3700 -0.0873
21052W        W37900   3.942   6.981  12.970 -0.2278 -0.1367 -0.3629
21053W        W37901  15.380   8.221   1.567  0.1085 -0.2678  0.0421
21054W        W37902  15.679   6.455  13.651  0.1117  0.0732 -0.3394
21055W        W37903  15.018  12.840  15.015 -0.3359  0.0884 -0.1164
21056W        W37904   7.804   8.891  11.751 -0.0505 -0.1223 -0.3600
21057W        W37905  11.164   4.894  12.146  0.2045 -0.0367  0.0278
21058W        W37906   7.098   3.108  13.473 -0.2627  0.1387  0.1433
21059W        W37907   5.990  12.476   2.170  0.0839 -0.2511  0.2020
21060W        W37908  10.938   6.681   0.304  0.1325  0.1167 -0.1479
21061W        W37909   6.653   2.564  11.256  0.2602 -0.1063 -0.1457
21062W        W37910   9.455   9.708   0.655  0.1311  0.0880  0.0648
21063W        W37911   8.480   3.639  11.383  0.0775  0.3969 -0.2430
21064W        W37912  16.914  10.004   3.261  0.2558 -0.0392 -0.0223
21065W        W37913   4.173  13.856   4.282 -0.1186 -0.2856 -0.1302
21066W        W37914  13.156  12.133  13.739  0.3737 -0.0683 -0.1244
21067W        W37915  12.801  15.701  12.819 -0.1149  0.0260 -0.1266
21068W        W37916  15.285   0.716   4.581 -0.3365 -0.2479 -0.0510
21069W        W37917   7.022   2.499   3.160 -0.2824  0.1815 -0.1165
21070W        W37918   1.944   5.292   3.705  0.0690  0.0794  0.3487
21071W        W37919  14.080   1.504  16.073 -0.3943 -0.0733  0.3069
21072W        W37920   9.646   1.691   4.344  0.0710  0.2069 -0.3241
21073W        W37921   2.905   7.512  13.204 -0.0036  0.2084 -0.3331
21074W        W37922  12.488  17.612   1.644 -0.0286  0.2771 -0.2109
21075W        W37923   7.096   5.516   2.864 -0.1950 -0.2079  0.1416
21076W        W37924   7.988   2.795  13.508  0.0562 -0.0191  0.2004
21077W        W37925  18.096  18.213  12.304 -0.1838 -0.0749  0.0073
21078W        W37926   0.747   1.181  11.536 -0.2502  0.2383  0.0559
21079W        W37927   5.436   7.887  14.413 -0.1348 -0.1214  0.0239
21080W        W37928  11.902  14.058  12.890 -0.5390  0.1130  0.0145
21081W        W37929   5.483  11.662   3.746  0.1283 -0.0152 -0.1231
21082W        W37930   2.063  15.380  16.031  0.1149 -0.0176  0.1792
21083W        W37931  11.043  10.715   1.624 -0.1356  0.0194  0.2182
21084W        W37932  13.862  11.347  11.334  0.1926 -0.2566 -0.0081
21085W        W37933  11.550   2.316   1.232 -0.3301  0.1801 -0.1763
21086W        W37934   9.015   7.675   4.026  0.0296 -0.2086  0.2346
21087W        W37935   2.678   6.373   2.060  0.0722 -0.1378  0.0837
21088W        W37936  10.048  17.088  10.252  0.0145 -0.0445 -0.0922
21089W        W37937  15.779   7.586   2.473 -0.3728 -0.1617 -0.2938
21090W        W37938  13.774  13.711   4.259 -0.1710 -0.0507 -0.2590
21091W        W37939  15.504  15.825  10.242  0.3002  0.1554 -0.2436
21092W        W37940   0.231   2.989   1.082  0.1221  0.0102  0.1499
21093W        W37941   7.457  10.311   0.830  0.0318 -0.1323 -0.3367
21094W        W37942  13.257  11.977  12.922  0.0030 -0.1788  0.1108
21095W        W37943  13.747   3.037  13.739  0.1081  0.3920 -0.0263
21096W        W37944   4.887   3.969  11.423 -0.0539  0.0159  0.0607
21097W        W37945   6.158   9.597  15.549  0.1121  0.0694  0.1067
21098W        W37946  17.170   7.671  11.785 -0.2962 -0.3592  0.1414
21099W        W37947   0.681  10.772  11.879 -0.1214 -0.1694  0.1093
21100W        W37948   7.747  13.856   1.266  0.1147 -0.0945  0.0366
21101W        W37949  12.745  12.694  14.920 -0.0685  0.0539  0.0405
21102W        W37950   3.986   1.224  15.771  0.2663  0.1778  0.1429
21103W        W37951  12.377   8.397   4.213  0.0698 -0.0297  0.1510
21104W        W37952   5.532   1.883   5.564 -0.4171 -0.1515 -0.0228
21105W        W37953  10.695   5.084  11.412 -0.1965 -0.0603 -0.2177
21106W        W37954  15.333  10.354   1.507  0.1034  0.1737  0.1088
21107W        W37955  15.518   6.883  12.570 -0.1448 -0.0509 -0.0153
21108W        W37956  10.544   0.997  11.926  0.1323 -0.1942 -0.1470
21109W        W37957   1.944   9.328   0.261  0.1300 -0.0680  0.3043
21110W        W37958  14.920  16.266   4.084  0.1972 -0.1125 -0.1827
21111W        W37959  11.938   7.581   4.580 -0.1426  0.1880  0.2302
21112W        W37960  17.451   6.206   5.149 -0.0749 -0.0326 -0.0632
21113W        W37961  18.129  13.897   3.979 -0.2665  0.1674 -0.2581
21114W        W37962   2.093  10.357   1.249  0.0627  0.0275  0.0309
21115W        W37963   7.922   1.260   4.881 -0.0141 -0.0640  0.1878
21116W        W37964  11.097   4.780  15.442 -0.1238 -0.0044  0.0481
21117W        W37965   1.380  15.551  14.224 -0.2658 -0.4637 -0.0323
21118W        W37966  10.163   7.132   1.990  0.2026 -0.0599 -0.3992
21119W        W37967  11.028   1.513  15.345  0.1014 -0.0228  0.0050
21120W        W37968  17.542   8.904  11.558 -0.0836  0.2571  0.2364
21121W        W37969   7.105  13.909   5.163  0.1460  0.0348 -0.4672
21122W        W37970   1.821  10.327  12.275 -0.1463 -0.1955  0.0572
21123W        W37971   9.003   6.223  11.893  0.0081 -0.2325 -0.2625
21124W        W37972   8.007   4.788  16.111 -0.0690  0.3298  0.0692
21125W        W37973  17.690  11.954   4.373 -0.2176 -0.2639  0.1433
21126W        W37974  10.109  13.594   3.291  0.2277  0.0597  0.0889
21127W        W37975  11.195   2.371   2.087 -0.1836 -0.0305 -0.2623
21128W        W37976  11.383   4.224  12.857  0.0469 -0.0826  0.1663
21129W        W37977   3.309   2.277  12.698 -0.0619  0.1321  0.2177
21130W        W37978  13.084   0.630  14.800 -0.0902  0.1569 -0.1256
21131W        W37979  15.650  13.185  14.402  0.0504  0.2974 -0.1881
21132W        W37980   0.726   8.740   1.718 -0.3243  0.0075  0.1639
21133W        W37981   2.314  18.001   3.310 -0.2029 -0.1874 -0.0292
21134W        W37982   3.298  14.762  11.884  0.1445 -0.0160  0.1049
21135W        W37983   8.526   5.358   5.004 -0.0556  0.1454  0.1077
21136W        W37984  12.775   5.497   5.018  0.0524 -0.0165 -0.1485
21137W        W37985   1.454  14.791   3.883  0.0222  0.2704 -0.0214
21138W        W37986   1.995  12.363   2.101  0.0471  0.0203 -0.1332
21139W        W37987  11.831   4.609   1.746 -0.5104  0.0293  0.0414
21140W        W37988   8.946   2.195  15.850  0.0585  0.3275  0.1046
21141W        W37989  14.009   8.397  12.340 -0.0295 -0.3397  0.2693
21142W        W37990   2.446  11.947   5.859  0.4087 -0.1272  0.2100
21143W        W37991   3.617   2.455   4.995 -0.2517  0.1919  0.0766
21144W        W37992   1.201  12.707   2.048 -0.0040 -0.0382 -0.0060
21145W        W37993   8.503   3.330  14.081 -0.0067 -0.3276 -0.0730
21146W        W37994  11.959   1.365  11.203  0.2583 -0.1960 -0.0986
21147W        W37995   0.932  12.359   2.270 -0.3023  0.0940  0.2489
21148W        W37996   7.304   4.165   0.498 -0.1087 -0.1306  0.1552
21149W        W37997   2.743  12.777  12.941 -0.1114 -0.0115  0.2955
21150W        W37998  17.109   8.216   2.027 -0.0400 -0.0803 -0.1395
21151W        W37999   2.336   9.505   1.178  0.0255 -0.1991  0.0881
21152W        W38000   9.792   5.605  14.052 -0.1711  0.1510  0.4523
21153W        W38001  14.109  17.638  12.866  0.1227 -0.0064  0.3247
21154W        W38002  10.635  12.911  12.209 -0.1337  0.2004 -0.1039
21155W        W38003   6.294  10.720   0.242 -0.2677 -0.3008  0.0529
21156W        W38004  12.794  13.549  10.039 -0.3764 -0.1175 -0.1178
21157W        W38005  15.665  13.070   5.329 -0.4702  0.1302  0.0684
21158W        W38006  15.625   9.868  13.597  0.0266  0.2031  0.2036
21159W        W38007  13.365   2.028  16.048 -0.1522 -0.4359  0.1655
21160W        W38008  12.911   7.076  14.312 -0.0992  0.0227 -0.3868
21161W        W38009  10.031  12.952  13.174  0.1324  0.2443 -0.3084
21162W        W38010   4.772  10.045   4.484  0.2744  0.3037  0.0200
21163W        W38011  11.930   1.006   3.764  0.0109 -0.0606 -0.0318
21164W        W38012   9.861  15.371   5.364  0.0609 -0.0480  0.2332
21165W        W38013  13.340   9.024  14.833 -0.1563 -0.3917 -0.1061
21166W        W38014   5.198   3.699   4.986 -0.2230  0.2087  0.3107
21167W        W38015  17.148   4.961   1.241 -0.1889  0.3171  0.1379
21168W        W38016   4.689   7.098   5.008 -0.1546 -0.3035  0.0105
21169W        W38017   7.540  14.945   3.278 -0.0565  0.0576  0.0030
21170W        W38018   8.462   0.456  16.094 -0.2023  0.2986 -0.0544
21171W        W38019  10.421  10.842  13.512  0.1745 -0.0710 -0.0432
21172W        W38020   5.592   4.126   3.082 -0.0013 -0.1391 -0.0789
21173W        W38021   9.046   5.881  13.420  0.1468  0.1226  0.1138
21174W        W38022  12.382   6.336  13.447 -0.0499 -0.0920 -0.2652
21175W        W38023   0.400   2.924  16.052  0.0450  0.0701  0.2481
21176W        W38024   5.390  14.964   0.862 -0.0694 -0.2310 -0.0872
21177W        W38025  18.121   1.284  14.652  0.2394  0.0057 -0.0684
21178W        W38026   4.259   9.581  15.951  0.2663  0.0376  0.0925
21179W        W38027   1.298  14.981   2.863 -0.0411 -0.3242 -0.2058
21180W        W38028   2.451   1.542  11.896  0.2034  0.2749  0.1334
21181W        W38029  15.044  14.296  13.347 -0.1388  0.0522  0.0350
21182W        W38030  18.113   5.056  12.418 -0.0045  0.1609  0.1477
21183W        W38031  17.970  11.327  13.351  0.0332  0.1175  0.1968
21184W        W38032  11.786  14.102   3.830 -0.0058 -0.1508 -0.0017
21185W        W38033   8.475   1.949  12.093  0.1378  0.2220 -0.0679
21186W        W38034  14.731   3.122  13.958  0.1178  0.0374 -0.0130
21187W        W38035   3.114   9.319  12.722  0.2303  0.0830  0.0091
21188W        W38036   6.523   6.056  15.321 -0.0653  0.1269  0.1525
21189W        W38037   8.588   6.261  14.703  0.0966  0.2229  0.1366
21190W        W38038  16.152   0.392  10.969 -0.0220 -0.0747  0.2215
21191W        W38039  16.627   9.642  12.059 -0.2261 -0.1849 -0.1951
21192W        W38040  12.357  11.081  13.623 -0.0219  0.1205  0.4092
21193W        W38041  17.044   5.771   5.283  0.0082  0.0708  0.1076
21194W        W38042   5.981  15.395   1.928  0.0135 -0.3379  0.2137
21195W        W38043   8.781  14.662   2.449 -0.1364  0.2156  0.2623
21196W        W38044   8.587  17.480  16.013 -0.2133  0.2302  0.2438
21197W        W38045  16.556  11.820   2.256 -0.0359  0.1822 -0.0544
21198W        W38046  13.022  16.494   2.051  0.0475 -0.0481  0.1180
21199W        W38047   2.097   9.020  15.381  0.0475 -0.0510 -0.0190
21200W        W38048   3.390  12.720   1.337  0.2301 -0.0218  0.1498
21201W        W38049   5.511  14.659  11.973  0.0415 -0.0403  0.3752
21202W        W38050   5.193   2.310   2.426 -0.3851  0.2177 -0.2310
21203W        W38051  11.290   4.327  13.924 -0.2563  0.1699 -0.2161
21204W        W38052  17.792  11.411   4.394  0.0635 -0.1559  0.2634
21205W        W38053   1.108   7.767  14.569 -0.1265 -0.1929  0.1842
21206W        W38054  12.752  16.784   3.965  0.0024  0.0745 -0.2333
21207W        W38055  10.939  13.608   1.425  0.0607 -0.1651 -0.1811
21208W        W38056   3.849   0.304  16.116  0.0213 -0.0700 -0.0136
21209W        W38057  15.827   2.671   1.877 -0.1333  0.1659 -0.4066
21210W        W38058   6.325   6.128  11.549 -0.1004 -0.1391 -0.0838
21211W        W38059   5.929  17.136  12.769  0.0452 -0.0219 -0.1343
21212W        W38060   6.591  16.048  15.266  0.1869  0.2363 -0.2461
21213W        W38061   8.276  16.117   4.430 -0.1787  0.1866  0.0867
21214W        W38062   1.273  17.958  14.108  0.3032 -0.2885  0.3562
21215W        W38063   3.356  10.379   0.172 -0.0385  0.0453  0.4481
21216W        W38064  17.847  10.621  12.071 -0.3404 -0.0172  0.0278
21217W        W38065   7.131   1.092  11.705 -0.1174 -0.3503  0.2459
21218W        W38066   9.782   7.255  13.674 -0.1504 -0.0619 -0.0508
21219W        W38067   3.219  17.238  13.495 -0.2944 -0.0406 -0.0768
21220W        W38068   7.468  14.790  14.336  0.0155  0.1142  0.1860
21221W        W38069   6.539   9.886   5.027 -0.2326 -0.2837  0.0846
21222W        W38070  13.965  17.891  14.504 -0.1814 -0.0884  0.3971
21223W        W38071  10.345  14.752  14.389 -0.0679 -0.1641  0.1263
21224W        W38072  15.919   5.226  13.557  0.2517 -0.1267  0.0204
21225W        W38073   9.894   0.623  13.842  0.0532 -0.0475  0.4454
21226W        W38074   0.149   4.734   2.818  0.0557 -0.0937 -0.1862
21227W        W38075   2.819  11.791   0.607  0.1199  0.2436  0.1504
21228W        W38076   3.799  16.197  14.476  0.0899  0.3429 -0.0937
21229W        W38077   9.393  10.772  15.559  0.2073  0.0603  0.2346
21230W        W38078   7.369  16.566   4.130 -0.0111  0.3305  0.3963
21231W        W38079  16.806  16.686  15.489 -0.1681 -0.0481 -0.2703
21232W        W38080   2.368  10.398   4.844  0.4407 -0.2734  0.0548
21233W        W38081  14.793   3.216   0.303  0.3058  0.0517  0.0319
21234W        W38082   8.893   5.315  11.097  0.1004  0.0789 -0.0142
21235W        W38083   5.892   7.197   4.164  0.1631  0.0776 -0.0416
21236W        W38084   2.934   6.530  15.314 -0.2073  0.1023 -0.0615
21237W        W38085  17.575   6.473   4.135  0.2820  0.1016  0.0230
21238W        W38086   4.982  12.006   0.020 -0.2044 -0.0225  0.2162
21239W        W38087   2.304  15.134   4.274  0.0563 -0.2142 -0.1558
21240W        W38088   6.092   2.955  12.032  0.1152 -0.2616  0.0439
21241W        W38089   1.604   1.229  12.913 -0.1257 -0.0120  0.0238
21242W        W38090   1.613   9.508  14.593 -0.2318 -0.1337 -0.0519
21243W        W38091  15.463  10.145  10.816 -0.2760 -0.0997 -0.2027
21244W        W38092   5.211   5.363  15.746 -0.0070  0.0310 -0.0204
21245W        W38093   6.352  14.650  15.830 -0.1046 -0.0391 -0.1989
21246W        W38094   3.631  17.565   0.258  0.1524  0.1691  0.0395
21247W        W38095   1.312  11.296   3.733  0.2268 -0.1175 -0.1699
21248W        W38096   7.987   9.594  11.090 -0.1758  0.0866  0.0100
21249W        W38097   6.288   7.544  14.079 -0.0868 -0.0784 -0.0433
21250W        W38098  13.300   9.425   2.548 -0.0701 -0.0109  0.2342
21251W        W38099  13.254  11.271   0.036 -0.0859  0.0151  0.0048
21252W        W38100   9.223   7.689   2.964  0.1030 -0.3525  0.1537
21253W        W38101  16.712  11.315  11.240 -0.3733 -0.1476  0.2923
21254W        W38102  10.083   8.172  14.097  0.1989  0.1832  0.1345
21255W        W38103  15.059  13.542   2.264 -0.0241  0.0456  0.2549
21256W        W38104  16.700  16.401   1.329  0.0908  0.1407 -0.0500
21257W        W38105  16.481   2.925  16.037 -0.0557  0.1576  0.0941
21258W        W38106  14.713   1.117   3.925  0.2400 -0.2198  0.2293
21259W        W38107   8.912   9.291  13.350 -0.1071 -0.0506 -0.0949
21260W        W38108   5.509   8.502  13.548 -0.1739 -0.1915  0.0646
21261W        W38109  11.899   7.475  13.230 -0.1327 -0.1676 -0.1308
21262W        W38110  18.179   5.826   3.063 -0.2802 -0.0092 -0.0589
21263W        W38111   9.202   7.115   2.286 -0.0186  0.1191  0.1154
21264W        W38112   8.533   0.232   1.069  0.2090 -0.1900 -0.0549
21265W        W38113  11.718   1.917  14.697 -0.1040  0.1401  0.3438
21266W        W38114  13.472  11.213  11.618 -0.2653  0.2016  0.2995
21267W        W38115   5.675   4.384   4.056 -0.0199 -0.0462  0.0839
21268W        W38116   6.474  14.182  14.576  0.0075  0.2573  0.1265
21269W        W38117   8.785   8.998   0.394 -0.1475  0.1582  0.2030
21270W        W38118   2.356  12.228  15.036  0.2815 -0.0772  0.0286
21271W        W38119  14.719  17.179   4.727 -0.0610 -0.0072  0.2330
21272W        W38120   7.641   3.768  15.136  0.4874  0.0470  0.1788
21273W        W38121   5.737  12.590  12.881  0.1099 -0.3878 -0.1541
21274W        W38122   2.936   6.214  10.330  0.1316  0.2006  0.1031
21275W        W38123  13.498  15.664  11.340 -0.0153 -0.1880 -0.2709
21276W        W38124   6.845   7.549  14.216 -0.1069 -0.1477 -0.3368
21277W        W38125  10.116  15.986  12.284  0.0450  0.1465 -0.2386
21278W        W38126  14.583   3.788  14.571 -0.1248 -0.1492 -0.3061
21279W        W38127  16.513  15.079   1.253 -0.4408  0.2680  0.1725
21280W        W38128   8.293   3.613   5.480  0.0711 -0.1859 -0.0413
21281W        W38129  15.132   9.373  14.206 -0.0637 -0.0243 -0.1659
21282W        W38130   8.868  15.425  13.937 -0.0607 -0.2077  0.0252
21283W        W38131   8.957  14.753  15.581 -0.0720  0.0248 -0.0599
21284W        W38132   6.453  17.557  10.175  0.0199 -0.0891  0.1316
21285W        W38133   7.218  15.282   4.752 -0.0650 -0.1731 -0.3795
21286W        W38134  14.082   2.916  12.822 -0.0371  0.1841  0.0673
21287W        W38135  12.401  12.918   1.442 -0.0512  0.0825 -0.1078
21288W        W38136   5.408  12.587  13.547 -0.1514 -0.2232  0.0348
21289W        W38137  14.835  10.149  14.148 -0.0031  0.0171  0.1707
21290W        W38138   1.445  11.582   1.427  0.0894 -0.1047  0.0989
21291W        W38139   3.502  15.284  11.893 -0.1295 -0.0214 -0.2361
21292W        W38140   1.375  15.187  13.719  0.1427  0.1697  0.1793
21293W        W38141   7.981  10.880  15.468 -0.0873  0.2202 -0.0563
21294W        W38142   1.295  17.575  13.635 -0.1643  0.0187  0.0242
21295W        W38143   3.207   2.727   3.472  0.3147  0.0853  0.0185
21296W        W38144   6.012   2.358   1.936  0.3057 -0.0593  0.2747
21297W        W38145   7.437  10.579  15.744  0.3203 -0.2951 -0.1296
21298W        W38146   1.636  14.503   1.246 -0.1625  0.0825 -0.0748
21299W        W38147  10.809   7.898   2.200 -0.2851 -0.0270 -0.0094
21300W        W38148   6.052   8.741   0.584 -0.0820  0.0432  0.0429
21301W        W38149  12.529   6.896  15.728  0.3187  0.0169  0.0054
21302W        W38150   6.484   4.793   2.102  0.1837  0.2592 -0.0821
21303W        W38151  17.994  13.237  11.942  0.0781 -0.2715  0.2338
21304W        W38152   8.748   7.544  14.873 -0.0459  0.0732  0.2734
21305W        W38153  16.612   4.325  14.099 -0.0666 -0.1648  0.2012
21306W        W38154   7.641   5.818  16.025 -0.0010 -0.2895 -0.3890
21307W        W38155   3.693   9.929  15.250 -0.1539 -0.1061  0.0987
21308W        W38156   3.124  11.859  13.846 -0.0209  0.1633 -0.0457
21309W        W38157  16.922  16.887   1.173 -0.1899  0.2237  0.0824
21310W        W38158   6.393   5.206   4.271  0.4927  0.1280  0.0462
21311W        W38159   0.950   0.225   4.513  0.2470  0.1972 -0.2076
21312W        W38160   9.593  12.211   5.068 -0.2508 -0.2344  0.0631
21313W        W38161   2.135   3.263  15.297  0.1656  0.2629 -0.2457
21314W        W38162   7.572   2.790   3.880 -0.3535  0.0886 -0.2873
21315W        W38163  12.566   7.712  12.887  0.0945 -0.0499 -0.2026
21316W        W38164   1.141   2.970  11.349  0.1445 -0.1219 -0.1346
21317W        W38165   0.270   8.156  12.958  0.1730 -0.0510 -0.0992
21318W        W38166   7.183   8.803  14.282 -0.0754  0.0839  0.1001
21319W        W38167  17.314  13.642  15.691 -0.2716 -0.0511  0.0682
21320W        W38168  14.628   8.265   5.103  0.0857  0.3677  0.3158
21321W        W38169  11.880  14.209  15.646 -0.1713  0.4500 -0.0051
21322W        W38170   8.265   9.941  12.653 -0.1459  0.1662  0.0481
21323W        W38171  14.182  15.041   4.845 -0.0597  0.1610  0.2887
21324W        W38172   7.674  11.662  15.770  0.0070 -0.2537  0.0637
21325W        W38173   8.682  11.640   1.370  0.2166 -0.1791  0.2170
21326W        W38174   5.828  15.517  10.874 -0.1515 -0.1401  0.1990
21327W        W38175   7.278   6.697   0.988  0.1231 -0.0695  0.0280
21328W        W38176  12.770  10.985  12.127  0.0318  0.3304  0.1526
21329W        W38177  15.411  14.995   0.953  0.1009  0.2188  0.2113
21330W        W38178  14.886  13.176   4.989 -0.0449  0.3454 -0.2317
21331W        W38179  14.229   3.170  13.852 -0.0600  0.2981 -0.5341
21332W        W38180   5.870   8.633   2.153  0.0483 -0.0739  0.0492
21333W        W38181  17.027   4.035  13.702 -0.0769 -0.5064 -0.1849
21334W        W38182  10.991  15.265   4.583  0.1080  0.2014 -0.1059
21335W        W38183  11.220  10.226   2.736  0.1001 -0.1791 -0.0162
21336W        W38184   1.476  15.581  13.372  0.3071  0.1130  0.0805
21337W        W38185   3.828  17.473   4.385  0.1404 -0.0028 -0.1431
21338W        W38186   7.879  15.569  11.640 -0.1915  0.1912 -0.2272
21339W        W38187  13.436  14.318  11.810 -0.5115 -0.0041 -0.0071
21340W        W38188  10.873  11.131   0.025 -0.1078 -0.1360  0.0935
21341W        W38189   5.432  10.070  14.450  0.1100 -0.1586 -0.0467
21342W        W38190  14.613   7.922   0.313 -0.1352 -0.1604 -0.3186
21343W        W38191  11.882   5.716  10.894 -0.0086 -0.0458 -0.0502
21344W        W38192   8.849   9.416   1.643  0.0429 -0.1821 -0.2920
21345W        W38193  17.203   4.996   2.292  0.2361  0.1251 -0.2665
21346W        W38194   9.508  15.948  14.649  0.0086  0.0559 -0.1788
21347W        W38195   8.865  13.333  16.090 -0.0668 -0.1534 -0.1609
21348W        W38196   8.993  16.168  15.551  0.0388  0.0376 -0.0521
21349W        W38197   7.597  10.996   4.034  0.0261  0.1030  0.0557
21350W        W38198   3.887   9.523  10.774 -0.0636 -0.0195  0.0260
21351W        W38199   6.676   2.370   0.845 -0.2760 -0.1524  0.2492
21352W        W38200   7.791   0.470   2.874  0.1592 -0.1647 -0.0312
21353W        W38201   0.583   0.399  15.362  0.2600 -0.0112 -0.3605
21354W        W38202  10.793   8.538  14.737 -0.3883  0.2341  0.2564
21355W        W38203  16.513   1.493  13.164 -0.1140 -0.1436 -0.2225
21356W        W38204   0.486  11.992  15.859 -0.0856 -0.2207  0.0313
21357W        W38205  15.933   9.520   0.513  0.1917 -0.0328 -0.1583
21358W        W38206   2.607  11.175  12.265  0.4927  0.0705  0.0438
21359W        W38207   8.330   0.123  13.363 -0.0590 -0.0600  0.3235
21360W        W38208  16.191   8.824   1.180  0.0528 -0.0022  0.2824
21361W        W38209  14.647  10.669  12.864  0.2337 -0.2498  0.2336
21362W        W38210   3.170  13.722   2.611  0.0836 -0.0001 -0.1227
21363W        W38211  14.603  16.952  10.741 -0.2788  0.0510 -0.1223
21364W        W38212  10.199  15.482  12.375 -0.2472 -0.1849 -0.3708
21365W        W38213   4.739  16.814   0.306 -0.2287 -0.1735 -0.1266
21366W        W38214  17.078   3.322   1.821 -0.2094 -0.2430  0.0953
21367W        W38215  16.140   6.946   3.208 -0.0953  0.2692  0.2255
21368W        W38216   1.324   5.333   3.259  0.0403  0.0931 -0.3171
21369W        W38217  11.042   8.127   1.748  0.1128 -0.1955 -0.0487
21370W        W38218   8.449  15.877  13.996 -0.2528  0.1004 -0.1319
21371W        W38219  16.573   6.764  11.306  0.1090 -0.0835  0.1116
21372W        W38220  14.957  10.798   1.328  0.0782  0.3161 -0.2079
21373W        W38221   3.432  10.737  14.186 -0.0061 -0.1085 -0.2165
21374W        W38222   5.864   3.141   3.887 -0.0371 -0.0711 -0.2191
21375W        W38223   6.974   6.021   1.776  0.1113 -0.4180 -0.2638
21376W        W38224   2.274   3.501  11.625  0.2380  0.0171 -0.1935
21377W        W38225   2.147  12.983   0.566 -0.2500 -0.3297 -0.1418
21378W        W38226  14.111   9.148  13.580 -0.0604 -0.2668  0.0593
21379W        W38227   3.144  10.870   2.692  0.0112  0.1001  0.0665
21380W        W38228   7.387  10.466   1.880  0.2569  0.0722 -0.4063
21381W        W38229  13.065   4.850   4.025 -0.0678 -0.0395 -0.0175
21382W        W38230  12.040   3.217  13.669 -0.1342 -0.0474  0.2000
21383W        W38231   7.221   5.199  13.485  0.0998  0.1679  0.0803
21384W        W38232  12.037  14.304   2.367 -0.1222 -0.2683  0.2781
21385W        W38233   8.375   0.743   3.941 -0.2228  0.0561 -0.0691
21386W        W38234   1.719   6.332  12.313  0.1098  0.3780 -0.0569
21387W        W38235   4.949   5.859   4.665  0.2674 -0.0622  0.1832
21388W        W38236   2.797  12.664  11.904  0.2273 -0.0164  0.1462
21389W        W38237   0.835   2.953  10.861 -0.0340  0.1854 -0.1240
21390W        W38238  16.297  18.083   3.204 -0.2460  0.3549 -0.0612
21391W        W38239   9.199  11.584  15.283 -0.0825  0.0650 -0.0334
21392W        W38240   3.402   6.480   0.143 -0.0992  0.1181 -0.1920
21393W        W38241   7.007   2.883   3.601 -0.1890 -0.0736  0.1643
21394W        W38242  11.982   8.348   0.967  0.4058 -0.0823  0.2645
21395W        W38243  16.915   3.469  11.861 -0.0641 -0.0591  0.1278
21396W        W38244  10.722  10.566  14.930  0.1605  0.1075  0.0117
21397W        W38245   5.412   5.622   5.421 -0.0662  0.1786 -0.2285
21398W        W38246   1.262   2.118  13.514 -0.0623 -0.0180  0.2168
21399W        W38247  16.912   9.907  11.659 -0.1895 -0.3046 -0.0090
21400W        W38248  14.329   0.403   2.956  0.1174  0.0792  0.1722
21401W        W38249   8.845  16.500   3.153 -0.0355  0.1891 -0.0355
21402W        W38250  16.219  14.845   1.666 -0.2222 -0.0792 -0.2055
21403W        W38251   2.292   9.314  11.883  0.0940  0.1900 -0.2108
21404W        W38252   0.220  13.468  11.838  0.2241 -0.1126  0.1299
21405W        W38253   6.485   1.931  12.038  0.3800 -0.0124 -0.0096
21406W        W38254  16.689  17.553   1.144  0.2128 -0.1619  0.1783
21407W        W38255   7.069  11.238   0.411  0.0349  0.0229 -0.0448
21408W        W38256   5.528  10.540   5.399 -0.0475  0.2869  0.4458
21409W        W38257  13.103  10.082   3.889  0.0367  0.0199  0.1919
21410W        W38258  17.619  11.963   1.982  0.0564 -0.1638  0.0436
21411W        W38259   1.058  10.866  11.371  0.2561 -0.4258  0.5310
21412W        W38260   8.216   0.414   5.427  0.1592  0.1311 -0.0920
21413W        W38261   9.380  11.186   3.465  0.1514  0.0588 -0.2223
21414W        W38262   2.553   1.683  13.940 -0.2038  0.0112 -0.1921
21415W        W38263   7.515  12.138  12.570 -0.1638  0.0664 -0.0609
21416W        W38264  18.177   1.104   1.852  0.1117  0.0272  0.1742
21417W        W38265  10.093  15.045  14.768 -0.4016  0.2596  0.0186
21418W        W38266   8.342   0.207   2.037 -0.0533 -0.2889 -0.1885
21419W        W38267  12.245   8.164  11.595  0.0983  0.1060  0.1490
21420W        W38268  10.606   5.093  13.010 -0.1039 -0.0890  0.0315
21421W        W38269  16.436   6.235   2.531 -0.1993 -0.2209  0.2251
21422W        W38270  12.618   1.340   1.586 -0.0003  0.0530 -0.1115
21423W        W38271   2.389  17.816   2.524  0.1135 -0.3147  0.0609
21424W        W38272  14.199   6.208   0.019 -0.0451  0.1700 -0.2268
21425W        W38273   6.945   6.573   0.654 -0.5307 -0.1485 -0.1188
21426W        W38274   0.796   5.026   0.698  0.4699 -0.0888  0.0086
21427W        W38275   1.258   4.689   3.603  0.1092  0.3130  0.1021
21428W        W38276   3.682  12.392   2.227  0.0408  0.2326  0.0143
21429W        W38277  17.247   9.559   0.687  0.1080 -0.0159 -0.0511
21430W        W38278  16.039  11.681  14.131  0.2437 -0.3240  0.2162
21431W        W38279   1.731   8.015   3.016  0.0106 -0.3904 -0.0023
21432W        W38280  10.544   4.506   2.659 -0.1331 -0.1726 -0.1523
21433W        W38281   6.510   6.330   0.548 -0.0655 -0.1666  0.0148
21434W        W38282  11.657   5.206  14.869 -0.1606  0.0652  0.0658
21435W        W38283   5.966   6.537  13.222  0.1339  0.0630  0.4429
21436W        W38284  13.369   5.191   2.206 -0.1884  0.4052  0.2000
21437W        W38285  13.155   1.801  12.688 -0.0740  0.1429  0.2623
21438W        W38286   5.493   8.893  14.386 -0.0867  0.0504  0.4010
21439W        W38287  15.149  11.632  15.499  0.1528 -0.1348  0.3037
21440W        W38288   7.779   1.423   1.036 -0.1125  0.0150 -0.1739
21441W        W38289   7.956   7.125   0.703 -0.1852  0.1785 -0.2285
21442W        W38290   1.127  17.209   2.274 -0.3721 -0.0037 -0.0821
21443W        W38291   6.409  13.894  10.902 -0.1497 -0.2984 -0.1690
21444W        W38292  12.254  10.517  15.991 -0.1328 -0.3282 -0.0625
21445W        W38293  11.385  11.778   0.026 -0.0460 -0.1516  0.1305
21446W        W38294  14.422   9.021   1.676  0.0561 -0.1274 -0.2123
21447W        W38295   0.726   8.758  10.751 -0.1940  0.2536  0.0405
21448W        W38296  13.835  14.277  15.160 -0.0481 -0.2263 -0.0293
21449W        W38297  16.042   6.898  12.333 -0.1059 -0.4494 -0.0515
21450W        W38298  16.219  10.532  15.514  0.1985  0.0562 -0.2249
21451W        W38299  15.546   3.634   1.466 -0.2739 -0.0843  0.0265
21452W        W38300  18.004   0.803  11.318 -0.0634 -0.0688 -0.2776
21453W        W38301   0.841  12.897  13.566 -0.2671  0.0226  0.1405
21454W        W38302   4.673   5.805  13.760  0.0434  0.0855  0.0152
21455W        W38303   2.605  18.128  15.019 -0.2856 -0.0340 -0.0451
21456W        W38304   0.620  15.214   1.716 -0.2503  0.1443 -0.6124
21457W        W38305  12.764  14.584   0.162  0.3525  0.1586  0.0409
21458W        W38306   5.094   8.720   0.980  0.0702 -0.0072 -0.1644
21459W        W38307  16.924  11.964  12.788  0.1093 -0.0666  0.3307
21460W        W38308   3.920  13.204   0.096 -0.1000  0.2968  0.0559
21461W        W38309   6.974  11.195  11.108  0.2911  0.2169 -0.2769
21462W        W38310  11.103   3.495  13.450  0.1328  0.2117 -0.0698
21463W        W38311  16.405   1.461   1.100 -0.0048 -0.0831 -0.1729
21464W        W38312  11.433   7.178  12.071  0.1203  0.1712  0.3242
21465W        W38313  12.263  13.132   0.992  0.1204  0.0245 -0.3133
21466W        W38314  11.750   7.395  14.094 -0.0594 -0.0646  0.1881
21467W        W38315  13.166   7.109   4.290 -0.1032  0.1188 -0.1579
21468W        W38316   8.857  15.578  12.011  0.1412 -0.0178 -0.1846
21469W        W38317   0.386   9.776  12.798  0.1520 -0.1443 -0.3152
21470W        W38318  14.779   7.591   3.649 -0.4927 -0.1708  0.2090
21471W        W38319  11.920   7.794   2.435 -0.0342 -0.1782 -0.1920
21472W        W38320   8.271   3.243  13.642  0.1089  0.0726 -0.1054
21473W        W38321  15.582  13.634  15.313 -0.0187  0.0267 -0.2742
21474W        W38322   0.837   3.665   1.813 -0.0686 -0.0662  0.2828
21475W        W38323   8.224   3.197  11.325 -0.0555  0.0286 -0.0569
21476W        W38324  14.918   9.934   5.688  0.0183 -0.0577 -0.1852
21477W        W38325  17.756  16.013  13.606 -0.0661  0.2235 -0.1266
21478W        W38326   7.483   3.719   1.976 -0.0147  0.3805 -0.1411
21479W        W38327   3.099   8.807  11.631  0.1567  0.1006 -0.0249
21480W        W38328   6.919   7.998   5.442 -0.2817  0.0707 -0.1464
21481W        W38329  11.412   6.165  15.431  0.0092 -0.2281 -0.0794
21482W        W38330   3.587  14.454  10.838  0.1671  0.1686 -0.0108
21483W        W38331  13.404   5.292  11.606 -0.1113  0.0011 -0.1994
21484W        W38332   3.366  13.930  11.437  0.3508  0.3390  0.2818
21485W        W38333  14.993   4.297  13.873  0.2139  0.3339  0.1844
21486W        W38334   2.616   7.701  15.144 -0.1115 -0.0392  0.3375
21487W        W38335  17.373  13.906  10.924  0.3166 -0.2378 -0.0642
21488W        W38336  10.614   7.849  15.161  0.1310  0.1617  0.3010
21489W        W38337   4.239   2.359  13.402 -0.1499  0.0253 -0.1069
21490W        W38338   9.918   4.155  12.186 -0.2681  0.3130 -0.3115
21491W        W38339  18.155   5.987  15.072  0.1691 -0.2288  0.0727
21492W        W38340   3.547  14.925  14.743 -0.1487 -0.1188  0.2995
21493W        W38341  13.549  14.531  13.561 -0.0197  0.0909 -0.1229
21494W        W38342   1.495   3.206  13.538 -0.0221  0.0120  0.1022
21495W        W38343   0.170  13.122   4.800  0.0747 -0.1595  0.1182
21496W        W38344   6.914  11.549  14.570 -0.0296 -0.2821 -0.2277
21497W        W38345  13.851   5.464   1.335 -0.1145  0.0145  0.3619
21498W        W38346   7.708  13.855   0.441  0.2995  0.2111  0.0885
21499W        W38347   6.667  14.802  13.498 -0.2192 -0.2426 -0.1531
21500W        W38348  17.754   5.135   3.831 -0.0612 -0.2528 -0.1104
21501W        W38349  11.709  16.170  14.754 -0.0552 -0.0900  0.2611
21502W        W38350   3.172   2.811   4.973 -0.0040  0.0404  0.0697
21503W        W38351  13.407   5.849  12.405  0.2095 -0.0389  0.0711
21504W        W38352  10.526  16.258  14.455 -0.1115  0.1684 -0.1654
21505W        W38353   8.628  17.511  14.662  0.2280 -0.1446 -0.0680
21506W        W38354   1.145   5.799   0.046  0.2542 -0.0573  0.3269
21507W        W38355   9.868  14.439   5.123 -0.1188 -0.3447  0.0806
21508W        W38356  15.579  12.511  15.784 -0.1382  0.1280  0.0609
21509W        W38357  12.030   1.684  15.185 -0.2339 -0.4555 -0.0052
21510W        W38358   5.694   7.771   2.348  0.1365  0.0838 -0.1418
21511W        W38359   1.645   5.787   4.427  0.0761  0.0867 -0.1046
21512W        W38360   1.404  14.985  11.966 -0.0531 -0.0805  0.2511
21513W        W38361   9.167   7.327   1.385  0.3284  0.3000  0.0034
21514W        W38362   3.937   3.802  11.825 -0.3346  0.2069  0.0740
21515W        W38363   0.126   9.061   5.939  0.2966  0.4402 -0.0433
21516W        W38364  10.700  15.156  15.974  0.1170  0.3434  0.0873
21517W        W38365   1.277   0.248  11.732  0.3463  0.1066 -0.1669
21518W        W38366  13.565  14.366  15.976 -0.1467  0.2515  0.0207
21519W        W38367   8.641  17.485   4.139 -0.0193 -0.0677  0.3933
21520W        W38368   1.028   4.443  15.313  0.0809  0.1039 -0.0529
21521W        W38369   9.145  17.109   1.869  0.0110  0.0185 -0.2280
21522W        W38370   6.926  12.386  14.027 -0.2719  0.0942  0.2161
21523W        W38371   0.477   2.492  15.546 -0.2792  0.3367 -0.0618
21524W        W38372   4.250  17.789   0.501 -0.0342 -0.2594 -0.1195
21525W        W38373  17.769  18.029   1.625  0.3211  0.1375 -0.2801
21526W        W38374  12.683   6.554   2.207 -0.0585 -0.1782  0.3435
21527W        W38375  11.491   8.694   1.200 -0.0415 -0.0758 -0.0364
21528W        W38376  16.783   2.143   4.314  0.2127 -0.0610  0.0770
21529W        W38377   3.116  15.092   2.709 -0.0526 -0.1067  0.0191
21530W        W38378  13.024  17.784   4.128  0.2162 -0.1790  0.0492
21531W        W38379   6.928  13.061  15.335 -0.1159 -0.4137 -0.0190
21532W        W38380   5.017  13.545  13.542  0.3846 -0.0473  0.1151
21533W        W38381  15.483   6.260   0.253  0.3180  0.0212  0.2954
21534W        W38382   9.369  12.834   1.105 -0.1137 -0.1015 -0.0625
21535W        W38383   7.581  14.137   4.884  0.1683  0.2643 -0.0288
21536W        W38384   9.369   4.680  13.517  0.0031  0.2632  0.1625
21537W        W38385   4.997   8.584  14.256 -0.1378  0.1522 -0.3291
21538W        W38386  15.599   1.586  12.416  0.3953  0.0649  0.1168
21539W        W38387  17.352  12.432  15.740 -0.2587 -0.1017 -0.1831
21540W        W38388   1.950   6.131  14.494 -0.1513  0.0243  0.1582
21541W        W38389   4.062  11.787  12.182  0.2252 -0.1910 -0.1567
21542W        W38390   7.412  16.553  15.028 -0.1319  0.0190  0.2280
21543W        W38391   7.028   1.862   1.126  0.0072  0.2144  0.1396
21544W        W38392  11.932   9.557   0.184  0.0676  0.0599 -0.1684
21545W        W38393  14.526  10.740  11.524  0.0602 -0.1784 -0.1518
21546W        W38394  16.616  11.742   5.064  0.0660 -0.0288 -0.2015
21547W        W38395  10.605  12.739  10.055 -0.0824  0.0953 -0.1243
21548W        W38396  18.170  13.424  10.585 -0.2377 -0.1810 -0.1115
21549W        W38397  16.054   9.112  13.375 -0.2637  0.1393  0.2069
21550W        W38398  11.244   8.571  15.328 -0.0764 -0.1544  0.2099
21551W        W38399   4.578   1.940   3.136  0.0213  0.1712  0.2593
21552W        W38400   1.245   6.385  14.353  0.3016 -0.0618  0.3392
21553W        W38401   6.453   0.851  14.409 -0.2003 -0.1073 -0.1190
21554W        W38402  15.901   2.465  14.715  0.2430 -0.3826  0.4145
21555W        W38403   4.732  14.309   5.090  0.3909  0.0571  0.1305
21556W        W38404  17.856   8.379  11.632 -0.2817  0.1167  0.1276
21557W        W38405   7.091  16.527  14.116  0.1948  0.0262 -0.1554
21558W        W38406   4.201   3.775  15.177 -0.2622  0.1450  0.0916
21559W        W38407  15.243  15.313  12.220 -0.1452 -0.1667  0.0783
21560W        W38408  13.499   7.343   1.242 -0.1629 -0.1060 -0.2170
21561W        W38409  11.123  15.691   4.836 -0.0810 -0.1634  0.0932
21562W        W38410  11.559  14.760  13.090  0.1443  0.1333  0.1393
21563W        W38411  17.224  14.012  11.484 -0.1520 -0.1103 -0.3323
21564W        W38412   7.976   3.586  13.898 -0.0249 -0.1142 -0.0956
21565W        W38413   7.473   6.073   4.824 -0.4866 -0.3418 -0.0242
21566W        W38414   3.056   1.732   1.335 -0.2227  0.1549 -0.0439
21567W        W38415   6.033   9.644   1.199 -0.1052 -0.1511  0.1619
21568W        W38416   8.868   2.677  12.496 -0.4165 -0.1689  0.1069
21569W        W38417  11.758   0.181   4.811  0.3595  0.1154 -0.1947
21570W        W38418  16.095  14.525  10.274 -0.2767  0.2287 -0.0895
21571W        W38419  11.372   6.965  12.660  0.2350 -0.2127  0.0024
21572W        W38420   4.652   1.309   5.240 -0.0304  0.0918 -0.0530
21573W        W38421   8.998   1.682  12.688  0.0534 -0.1671 -0.1233
21574W        W38422   6.337   5.580  11.678  0.3642  0.0824 -0.3236
21575W        W38423   3.071   0.245   3.107 -0.3457 -0.0206 -0.0093
21576W        W38424   5.058  15.443  13.501 -0.3245  0.1512  0.0840
21577W        W38425  15.526   7.164   2.185 -0.0067 -0.0049  0.1130
21578W        W38426   6.797   4.189  14.157 -0.0438 -0.2239  0.1322
21579W        W38427  16.669  11.490  10.369  0.3269 -0.1333  0.0623
21580W        W38428   7.097  11.269  15.066 -0.2047 -0.1357  0.2898
21581W        W38429   4.460  10.855  15.530 -0.1961  0.0172  0.0556
21582W        W38430  17.784   3.803   2.149 -0.3155 -0.0456 -0.0754
21583W        W38431  18.077  15.628  13.705 -0.3557 -0.2400 -0.1198
21584W        W38432  17.782   5.971   4.348 -0.0196  0.0766  0.2337
21585W        W38433  10.627   0.785  15.830 -0.1311  0.2049  0.0223
21586W        W38434  14.212  15.314   2.567 -0.1306  0.2244  0.1786
21587W        W38435  13.875   4.694   1.110 -0.1203  0.3169 -0.1758
21588W        W38436   2.419   9.640  13.479 -0.1529  0.1889  0.0620
21589W        W38437   0.742   7.434   2.232  0.1982  0.1066  0.3311
21590W        W38438  15.115   3.200  12.222 -0.0555 -0.1544 -0.0616
21591W        W38439   7.565  16.190  13.086 -0.0246 -0.0057 -0.0235
21592W        W38440   7.165   1.080   0.461  0.2260  0.2504  0.1659
21593W        W38441  12.653   9.916  12.993  0.2227  0.0407  0.0076
21594W        W38442   1.778   8.334   2.609 -0.0272 -0.2680  0.2678
21595W        W38443   2.099   1.721  13.690 -0.3336 -0.2112 -0.0213
21596W        W38444   8.968  12.920   0.846  0.3158 -0.2224 -0.0472
21597W        W38445   2.182  15.829  14.028 -0.0881 -0.2090  0.1642
21598W        W38446   2.901  12.213  13.233 -0.1518  0.0265  0.0488
21599W        W38447  14.881   4.546   2.076 -0.1945  0.0791 -0.1135
21600W        W38448  16.107   1.796   5.652  0.2662  0.0071 -0.1873
21601W        W38449  17.546   8.178   1.102  0.0271 -0.1603  0.0641
21602W        W38450  10.463   6.711  12.394 -0.0968 -0.0218  0.1083
21603W        W38451   0.930   8.480  15.103 -0.0550  0.1567  0.2915
21604W        W38452   4.903  16.841  15.308  0.0020 -0.0480  0.0899
21605W        W38453   7.401   1.807   4.451  0.1335 -0.0076 -0.0972
21606W        W38454  11.473   0.732  14.636  0.1602 -0.2517  0.1455
21607W        W38455   8.596   6.662   3.197 -0.0217  0.2445 -0.0851
21608W        W38456  14.946   0.301   2.479 -0.0638  0.1407 -0.1203
21609W        W38457   0.326  13.763  16.031 -0.4397  0.2159  0.1677
21610W        W38458   9.178   2.949  11.491 -0.2945 -0.1200 -0.0101
21611W        W38459   6.127  14.869   9.709  0.0120  0.1983 -0.0177
21612W        W38460  12.499   4.270  15.091  0.1033  0.1158 -0.4457
21613W        W38461   2.068   6.452  15.722  0.1275 -0.0789 -0.3444
21614W        W38462   8.947  13.358   2.522 -0.1526  0.1332  0.0677
21615W        W38463  10.257   5.735  13.691 -0.2382  0.2403  0.0585
21616W        W38464   6.122   4.717  14.880 -0.0540 -0.1084 -0.0155
21617W        W38465  14.400  16.982  14.923 -0.2300 -0.0121 -0.2704
21618W        W38466  11.582   6.688  15.164  0.1037 -0.1169  0.1796
21619W        W38467   3.378   1.214   2.001  0.1887 -0.2295  0.2195
21620W        W38468  17.230  14.850  13.902  0.0351  0.0936  0.0132
21621W        W38469   8.719  14.201  14.814  0.3932  0.0247 -0.2352
21622W        W38470  16.883   7.202   1.978  0.1326 -0.1221 -0.1924
21623W        W38471   7.156  14.300  11.251 -0.0986 -0.1188  0.1686
21624W        W38472  12.970   3.464   3.883  0.3672  0.0867 -0.0860
21625W        W38473   4.347  11.013   0.922 -0.2060  0.3298 -0.1581
21626W        W38474   2.330   7.516  14.734 -0.2122  0.0577 -0.1684
21627W        W38475   1.107   8.898  14.217  0.1063 -0.1034 -0.1993
21628W        W38476   1.423  13.631   0.292 -0.2153  0.1469  0.0785
21629W        W38477   9.870  12.684   4.431  0.2302 -0.1570  0.1556
21630W        W38478  12.251   8.041   4.533 -0.1869  0.1986  0.0025
21631W        W38479  13.258   1.701  11.396  0.1109  0.1911  0.0678
21632W        W38480   6.739   6.791  12.123 -0.2274 -0.0215  0.1932
21633W        W38481   8.670  10.035   1.190 -0.1291 -0.3687  0.1316
21634W        W38482   4.661  11.401   1.661 -0.2477  0.0206 -0.1177
21635W        W38483   7.213   4.044  15.200  0.0802  0.0996 -0.1912
21636W        W38484  13.926  12.900  11.555 -0.0936  0.1481  0.3052
21637W        W38485  11.565  14.336   2.535 -0.2060 -0.1690 -0.2920
21638W        W38486  14.048   4.012   3.222  0.2752  0.1590  0.2304
21639W        W38487  13.066  13.804  12.331 -0.0123 -0.1380 -0.0775
21640W        W38488   3.733   0.886  12.313 -0.0572 -0.0909 -0.0115
21641W        W38489   0.575   4.557  15.129  0.3431 -0.1398 -0.2072
21642W        W38490  12.573  18.043  13.902 -0.1220  0.1469  0.0347
21643W        W38491   2.764   0.357  12.839  0.2729 -0.0227 -0.0538
21644W        W38492  15.758  18.099  14.497  0.2791  0.0299 -0.1273
21645W        W38493   9.419  15.263  13.369  0.1171  0.1825  0.3613
21646W        W38494   8.743  17.586   2.216 -0.1036 -0.1376 -0.1084
21647W        W38495   0.013  11.941   1.860 -0.2607  0.0003 -0.1946
21648W        W38496   1.431  16.645  11.395 -0.2830 -0.1796 -0.0023
21649W        W38497  17.103  11.602   4.949 -0.1829  0.3542 -0.3578
21650W        W38498  15.834   0.849  14.960  0.0749 -0.3701  0.2389
21651W        W38499   8.866   0.223   1.539 -0.0753 -0.1477 -0.1760
21652W        W38500  14.734   6.363   3.626 -0.1256  0.1439 -0.0453
21653W        W38501   1.123  13.689  10.030  0.0330  0.1942  0.1521
21654W        W38502   5.932   6.287  11.898 -0.2129  0.0447 -0.2837
21655W        W38503   4.254   5.392  16.119 -0.3431 -0.1621  0.1201
21656W        W38504  16.192  15.188  10.808  0.1865  0.0942 -0.1043
21657W        W38505  11.519  18.167   3.910  0.0241  0.0962  0.0487
21658W        W38506   3.657  16.295  11.290  0.0497  0.1713 -0.0196
21659W        W38507   2.848   1.008   3.101  0.0621  0.1424 -0.0154
21660W        W38508  15.618  15.613  14.597  0.4513 -0.0222 -0.0967
21661W        W38509   3.219   7.078  13.026  0.0022 -0.2116 -0.1196
21662W        W38510   6.802  10.072  11.754  0.0286  0.0882  0.0884
21663W        W38511  12.115  12.278  13.971  0.1252 -0.3452  0.0552
21664W        W38512  13.205   9.225   0.340  0.1881 -0.4007  0.1940
21665W        W38513  13.630  17.952   2.828 -0.2419 -0.1028  0.0762
21666W        W38514  13.110   9.436   5.239 -0.3259 -0.0230 -0.0304
21667W        W38515  10.168  18.042   3.546 -0.1103  0.4501 -0.2999
21668W        W38516  10.275  13.506  10.581  0.0224  0.0978  0.2339
21669W        W38517  10.163   7.913  11.665 -0.0531  0.0828  0.2895
21670W        W38518  12.868  15.458   2.986  0.1480  0.0537 -0.0040
21671W        W38519   3.580   3.451  12.881 -0.4143  0.0339  0.0401
21672W        W38520  12.675  15.456   1.690 -0.1843 -0.2426  0.0201
21673W        W38521   0.354   0.720  15.838 -0.1053  0.2253  0.0600
21674W        W38522   8.027   0.007  15.130 -0.1917 -0.1328 -0.0727
21675W        W38523  14.085   2.769  13.373  0.0634 -0.2253  0.0225
21676W        W38524  14.475   5.956  15.295 -0.1898  0.0894 -0.3420
21677W        W38525  17.739  15.985   3.357  0.2493 -0.4657 -0.0376
21678W        W38526  12.475  10.453   2.232  0.2375 -0.0383 -0.1460
21679W        W38527  13.120   9.933   2.632 -0.0523 -0.0375  0.0000
21680W        W38528   9.634   3.944   1.459 -0.3274 -0.0433 -0.0737
21681W        W38529   8.766  13.419   3.054  0.2435  0.0996 -0.1242
21682W        W38530   5.676  12.022   2.385  0.2599 -0.2964  0.2791
21683W        W38531  17.161   2.378   3.069  0.1252 -0.2588  0.1027
21684W        W38532   2.826   0.985  13.494 -0.0627 -0.2510 -0.0930
21685W        W38533   6.906   6.541  12.693 -0.0573 -0.4980  0.0329
21686W        W38534   1.975   5.534  12.155  0.2101  0.2050  0.3760
21687W        W38535   7.771   8.062   2.281  0.0318 -0.0634 -0.0378
21688W        W38536   9.112  14.477  14.864 -0.5030  0.3161  0.2025
21689W        W38537   2.037  15.461   2.016  0.0323  0.2106 -0.1117
21690W        W38538  13.429  11.700   1.753  0.0148  0.3468  0.2734
21691W        W38539   4.136  13.910  12.571 -0.4003  0.1558  0.1585
21692W        W38540   5.138  11.063   0.792 -0.0718 -0.2650 -0.1043
21693W        W38541  15.265   0.672  14.055 -0.1532 -0.0804  0.0196
21694W        W38542  15.116   7.002  12.098 -0.2465  0.3825  0.4959
21695W        W38543   8.955   6.422   1.727 -0.1352 -0.1812 -0.0885
21696W        W38544   4.940   9.088   0.471  0.0210  0.2295 -0.1014
21697W        W38545  13.507   9.839  13.287  0.3413 -0.0562  0.3870
21698W        W38546   3.316  15.062  13.242 -0.2550 -0.2515 -0.0001
21699W        W38547   6.607   7.667  13.161  0.0908 -0.2409  0.0990
21700W        W38548   9.215   1.334   2.533  0.0269 -0.0167 -0.1604
21701W        W38549   7.720   2.397   6.081 -0.0596  0.0844 -0.0084
21702W        W38550   1.602   7.929  14.800 -0.0353 -0.0588  0.0911
21703W        W38551   0.073  14.197  14.302  0.1014 -0.2098  0.2670
21704W        W38552   4.508  16.806  14.222  0.1588  0.0874 -0.1286
21705W        W38553  11.392  16.884  14.445  0.0578  0.2927  0.0409
21706W        W38554   0.762   1.312  15.558 -0.0946  0.2321 -0.2153
21707W        W38555   7.036  13.641  12.379 -0.3038 -0.2885  0.2653
21708W        W38556  15.126  16.726  13.854 -0.3033  0.2204  0.0986
21709W        W38557   0.667  10.044  14.411  0.2046  0.0115 -0.2341
21710W        W38558  17.812   0.110  14.394  0.1826 -0.2613 -0.1576
21711W        W38559  14.312   0.779   2.446  0.3432  0.3847  0.1256
21712W        W38560   9.770   3.025   4.085 -0.0744 -0.1706 -0.2265
21713W        W38561  13.107  16.319   0.525  0.2030  0.0305 -0.1667
21714W        W38562  11.207   3.930   5.108 -0.1467  0.0931  0.0652
21715W        W38563  13.117   8.125   3.186 -0.0152 -0.1408 -0.3084
21716W        W38564  13.381   4.384  10.972  0.0985 -0.0827 -0.0252
21717W        W38565   2.015  14.184   4.582  0.1255  0.0820  0.0101
21718W        W38566   2.732  14.808   4.325 -0.1151 -0.0927  0.0776
21719W        W38567   1.858   0.349  12.393 -0.3110  0.0734 -0.1983
21720W        W38568  12.002   2.476  14.011 -0.1692  0.1291  0.2591
21721W        W38569   6.435   6.372  12.314 -0.2668  0.0464 -0.2697
21722W        W38570   3.593  11.106   2.480 -0.1989 -0.3187  0.0822
21723W        W38571   7.469   8.690   4.909  0.1256 -0.0757  0.0137
21724W        W38572   7.648  12.612   5.106 -0.1242 -0.3086  0.4801
21725W        W38573  11.607   0.949  11.448  0.0717  0.0115  0.1762
21726W        W38574  13.251   6.543   4.918  0.1632  0.0557  0.0732
21727W        W38575  10.367  13.879  15.588 -0.0004  0.0217 -0.0007
21728W        W38576   6.942  11.838  10.959  0.2712  0.1668  0.2007
21729W        W38577   2.123   4.419   3.388  0.3034  0.0209 -0.3894
21730W        W38578   1.166   5.667  10.217 -0.1392 -0.5054  0.3421
21731W        W38579   3.200   9.529   2.877  0.1916  0.2816 -0.0272
21732W        W38580   5.119   5.124   1.609 -0.0790  0.1436 -0.2775
21733W        W38581  12.893  14.747  13.967 -0.1186 -0.2130 -0.1935
21734W        W38582  12.745  14.058   3.569 -0.0759  0.2871  0.2242
21735W        W38583   4.834   4.762   2.622 -0.2524  0.2540 -0.1803
21736W        W38584  15.685   3.854   2.423 -0.0257  0.3668  0.2279
21737W        W38585   3.117   5.259   3.497  0.4070 -0.1216  0.1654
21738W        W38586  16.147   3.402   0.115  0.1262 -0.1429 -0.0983
21739W        W38587   7.181   3.559   2.858  0.0058  0.1927  0.0217
21740W        W38588  13.322  11.604   3.221 -0.3728  0.0930 -0.3182
21741W        W38589  17.907  15.141  14.035 -0.1515  0.2916  0.2002
21742W        W38590   8.802  13.432  14.729 -0.0701 -0.1283 -0.2153
21743W        W38591  18.072  16.344  13.483 -0.0210  0.1745  0.1878
21744W        W38592   9.255   9.804   2.938  0.0939 -0.3024  0.1455
21745W        W38593  10.225   5.465   5.573 -0.0397  0.0778  0.0443
21746W        W38594  15.162  16.104   3.584  0.1465  0.1397 -0.0284
21747W        W38595   8.926   3.597  11.576 -0.0633  0.2000  0.2478
21748W        W38596  10.127  16.483   0.215 -0.0879 -0.2366 -0.2335
21749W        W38597  16.248  14.452  12.010  0.2808 -0.1646  0.1486
21750W        W38598  13.987  16.206  12.577 -0.5540 -0.2163  0.0869
21751W        W38599  13.013  11.908   4.219  0.0777 -0.0231 -0.1729
21752W        W38600   0.603   3.840  12.833  0.2479 -0.3031 -0.1178
21753W        W38601   6.317   7.695  15.718 -0.0095  0.1318  0.4002
21754W        W38602   5.994   3.885  13.197  0.2735  0.0176 -0.0056
21755W        W38603  14.718   5.845   3.416 -0.1519 -0.3284 -0.0526
21756W        W38604  13.356   9.884   4.398  0.2585  0.1699 -0.0928
21757W        W38605   9.992   3.611   0.704  0.0281  0.0708  0.1975
21758W        W38606   7.514  10.357  12.854  0.1488 -0.0328 -0.0651
21759W        W38607  10.222   5.235   3.339  0.4060 -0.3738  0.0249
21760W        W38608  14.428  12.111  10.452 -0.2744  0.0657 -0.3169
21761W        W38609   3.108  12.286  11.931 -0.1785  0.1301 -0.1228
21762W        W38610  16.759   9.524   1.562 -0.3233 -0.1417  0.0914
21763W        W38611   4.575   2.584   5.991  0.1616 -0.1208 -0.0493
21764W        W38612  13.226  13.338  15.131  0.3422  0.0905 -0.0853
21765W        W38613  17.299   9.868  12.739 -0.1833 -0.1464 -0.1909
21766W        W38614  12.724   9.098   5.304  0.0612  0.0054 -0.0150
21767W        W38615  15.253  11.852   1.793  0.2176 -0.1696 -0.0557
21768W        W38616  14.239   5.861   2.861 -0.2464 -0.1417 -0.3854
21769W        W38617   4.482   5.555  11.976 -0.1118 -0.2606  0.6272
21770W        W38618   6.447  13.931  11.629 -0.3843 -0.1091 -0.0639
21771W        W38619  15.925  13.909   4.576  0.0850 -0.1444  0.1800
21772W        W38620  15.562   0.212  10.858 -0.0168 -0.2540 -0.4648
21773W        W38621   1.612   1.511  14.115  0.0766  0.2346 -0.0966
21774W        W38622  10.606   0.516   1.519 -0.0448  0.2560  0.1629
21775W        W38623   2.494  15.940  13.593 -0.1159  0.0626 -0.0143
21776W        W38624  16.565  13.515   1.537  0.2562 -0.0015  0.0167
21777W        W38625   7.978   4.447   2.318 -0.3720 -0.0259  0.2219
21778W        W38626   1.876  17.931  13.952 -0.0401  0.3089  0.2431
21779W        W38627  17.412  13.384   0.951  0.1227 -0.1283  0.2066
21780W        W38628   8.832   1.154  10.951  0.0898  0.1148  0.2280
21781W        W38629   9.576   7.975   0.438  0.1784 -0.0640 -0.0943
21782W        W38630   4.045  14.144  16.031  0.4314  0.0471 -0.1820
21783W        W38631   5.272   1.413  13.616 -0.2016  0.0611 -0.1195
21784W        W38632  17.462   9.788  14.635  0.1913 -0.0741 -0.0040
21785W        W38633  12.629   1.136   3.173  0.1800 -0.1366  0.1025
21786W        W38634   3.172  15.811   3.621 -0.1724  0.2414 -0.1021
21787W        W38635   0.720  14.468  12.672 -0.2965 -0.4273  0.0973
21788W        W38636   7.773  14.794   2.828  0.0074 -0.0080 -0.2260
21789W        W38637   6.659  10.240   1.525  0.3790 -0.0298  0.1882
21790W        W38638   3.431  17.047  12.013  0.1937 -0.0193 -0.2488
21791W        W38639  16.298  12.369   4.196  0.4001  0.1685 -0.0899
21792W        W38640  15.363   3.711   0.081  0.0284  0.0812  0.1522
21793W        W38641   5.593   6.782   4.114 -0.0140 -0.0749  0.1707
21794W        W38642  16.225   4.609  13.288  0.0271  0.1437 -0.0516
21795W        W38643   9.050  11.461   5.224  0.1189 -0.0607 -0.3597
21796W        W38644  15.817  13.628  13.624 -0.1382  0.2332 -0.0683
21797W        W38645   8.885  12.128  11.967  0.2951 -0.0108 -0.0709
21798W        W38646   6.191   8.715  12.116 -0.0545 -0.1681  0.1372
21799W        W38647   2.950   7.080   3.688  0.2778  0.0158  0.1807
21800W        W38648  14.290   1.299   2.656 -0.0721 -0.4167 -0.1024
21801W        W38649  13.835   7.646   2.546  0.2260 -0.0640 -0.3117
21802W        W38650  17.151   0.539  15.247  0.4937  0.2662  0.0798
21803W        W38651  11.657   7.882  13.981 -0.1760  0.1976  0.2252
21804W        W38652   2.245   3.076   5.278  0.0372 -0.0275 -0.2868
21805W        W38653   0.008   9.294   5.150 -0.2186  0.0941 -0.0859
21806W        W38654   7.872  13.186   0.683 -0.2089  0.4256  0.1734
21807W        W38655  14.860   7.872  13.465  0.0534  0.0208 -0.1978
21808W        W38656   1.662   6.146  15.501 -0.0983 -0.2614 -0.1643
21809W        W38657   1.678  15.553   0.842 -0.2095 -0.1017  0.0759
21810W        W38658   8.851  11.848   4.200 -0.0684  0.0597  0.3849
21811W        W38659   1.311  10.388   1.963 -0.0688 -0.0637 -0.2187
21812W        W38660  16.310  13.190   1.829  0.3703 -0.1601  0.0040
21813W        W38661   8.458  11.925  12.153 -0.0655  0.2254 -0.2326
21814W        W38662   9.496   5.640   3.695 -0.0990 -0.1954 -0.0733
21815W        W38663  13.606  10.919   5.832 -0.0935 -0.1416  0.0114
21816W        W38664   1.014   5.923  15.650 -0.0968 -0.0119  0.2145
21817W        W38665   3.733  18.061  14.595 -0.0288  0.1568 -0.2019
21818W        W38666   8.428  10.007   2.728  0.0502 -0.3817 -0.2124
21819W        W38667  16.323  10.505   3.133  0.1481 -0.0889  0.0477
21820W        W38668   0.317  12.408   0.079 -0.3759  0.2536  0.0938
21821W        W38669   9.275  13.893   1.116  0.2064 -0.2032 -0.1491
21822W        W38670   8.812  10.352   3.871  0.2464 -0.3497 -0.1243
21823W        W38671  10.352   5.195  14.804  0.1150  0.3028 -0.3590
21824W        W38672   6.719  16.521  13.025 -0.0762 -0.0824 -0.1760
21825W        W38673   0.904  11.083  15.977 -0.0704  0.4542 -0.1017
21826W        W38674   3.508  15.221  14.250  0.0157  0.1813  0.0935
21827W        W38675   0.487  15.873   9.800  0.1147  0.0296 -0.1175
21828W        W38676  10.895  14.205  14.643 -0.3325 -0.1505 -0.1848
21829W        W38677  13.713   8.861   5.467 -0.1406  0.1703 -0.1853
21830W        W38678   7.961  14.847  14.420 -0.0655 -0.4989  0.0971
21831W        W38679   0.216  16.720   3.788 -0.4348 -0.4280 -0.0723
21832W        W38680  16.191   1.315   3.307  0.0369 -0.2806 -0.1277
21833W        W38681   2.598   1.545   3.738  0.2688  0.0411  0.0923
21834W        W38682   2.227   2.144   0.930  0.0078 -0.0220 -0.2200
21835W        W38683  17.469  11.949  11.139  0.0358  0.0265  0.0429
21836W        W38684  15.590  12.850   1.729  0.1632 -0.1659 -0.5104
21837W        W38685  12.497  11.916  13.778 -0.1004 -0.0768  0.0495
21838W        W38686  12.258   6.904   2.326  0.3114 -0.2576 -0.0812
21839W        W38687  12.654  16.235  12.833 -0.2766 -0.1192  0.3117
21840W        W38688  14.273   9.806  15.573 -0.0009 -0.0169 -0.0543
21841W        W38689   4.965   0.283   1.262 -0.1820 -0.0246  0.0374
21842W        W38690   1.825  15.193  13.341  0.1066  0.3726 -0.0918
21843W        W38691  14.776  11.887  13.392  0.2098 -0.0343 -0.4036
21844W        W38692   1.743   2.859   2.198 -0.0185 -0.2474 -0.0393
21845W        W38693   7.855  16.582   2.790  0.1340 -0.0023 -0.0655
21846W        W38694   3.072  17.105  12.341  0.3618  0.0953  0.0228
21847W        W38695  17.728   2.627  15.916 -0.1043  0.0408 -0.0965
21848W        W38696   6.375   5.110  11.268 -0.4864  0.2378  0.1889
21849W        W38697  17.850  15.511   4.420 -0.2524 -0.0723  0.2765
21850W        W38698  10.099   5.129  12.976 -0.2695  0.1303  0.0871
21851W        W38699  13.794  17.126  13.372 -0.0092 -0.1888  0.0927
21852W        W38700   5.564  10.482  14.747  0.0116  0.0152  0.0990
21853W        W38701  10.326   4.481   6.103 -0.1274 -0.0775 -0.1242
21854W        W38702  13.981  17.169  12.023  0.0261  0.1391 -0.1238
21855W        W38703   8.428  17.992  15.355 -0.1609 -0.0571  0.3589
21856W        W38704  12.582  15.606  16.082  0.0947 -0.0156 -0.1313
21857W        W38705   0.403   2.931  12.491 -0.0765  0.0694 -0.1216
21858W        W38706  14.789   0.012  15.069 -0.0189  0.1734 -0.1552
21859W        W38707   7.000   4.625   1.725 -0.0008  0.3045 -0.1505
21860W        W38708  13.134   6.848   2.271  0.0444 -0.1571 -0.0402
21861W        W38709  14.901  14.017   2.341 -0.0786 -0.4086  0.0855
21862W        W38710   6.097   2.689   0.970 -0.0842  0.3103  0.0728
21863W        W38711   5.659   2.446   4.893 -0.0424 -0.0954  0.1344
21864W        W38712   1.382   7.300  11.020  0.2533 -0.1094  0.1655
21865W        W38713  15.284  12.862   0.262 -0.1290 -0.0796  0.0658
21866W        W38714   2.250   8.824  11.136  0.0008 -0.1488 -0.1422
21867W        W38715   3.837  10.483   3.495 -0.2140  0.0823  0.1084
21868W        W38716  15.759   6.826   5.161 -0.2664 -0.0523 -0.3007
21869W        W38717  12.310   1.277   4.073 -0.1443 -0.1133 -0.1224
21870W        W38718   1.306   8.287  14.784 -0.1432  0.0480 -0.2614
21871W        W38719   7.026   3.201  10.810  0.1063  0.0457  0.2062
21872W        W38720   3.932  11.572   5.527 -0.1514 -0.1261  0.1311
21873W        W38721   4.745  10.703   3.364 -0.1879  0.1598 -0.0426
21874W        W38722  10.290  18.036   2.476  0.1942  0.1154 -0.0499
21875W        W38723   5.450  10.701   4.018  0.0228  0.0391  0.0033
21876W        W38724   1.686   3.166   2.672  0.0807 -0.1833  0.0941
21877W        W38725   9.175   2.502   3.344 -0.1803 -0.0170 -0.0486
21878W        W38726  13.968  11.575  13.249  0.0118 -0.0206 -0.0120
21879W        W38727   6.018   4.264  14.383  0.2857  0.3626 -0.1166
21880W        W38728  13.944  11.506   2.516 -0.2160 -0.2348  0.3461
21881W        W38729   7.358   5.291   2.003 -0.3949  0.1439 -0.3393
21882W        W38730  17.902   2.002   1.669  0.4394  0.0484  0.2943
21883W        W38731   1.024   1.821   3.505 -0.0546 -0.2258 -0.1096
21884W        W38732  12.635   9.240   4.842 -0.0235  0.2455 -0.0707
21885W        W38733  14.518  17.697   2.628 -0.1090 -0.0689 -0.0994
21886W        W38734  12.879   5.207   2.328 -0.0968  0.1847  0.0471
21887W        W38735   3.325   1.319  13.187 -0.3656 -0.0097  0.2229
21888W        W38736   1.973  11.508   0.042  0.2107  0.0565 -0.0704
21889W        W38737  13.277  10.140  12.003  0.0126 -0.0793  0.0699
21890W        W38738   7.476  10.966   2.717  0.0181  0.1886  0.1593
21891W        W38739  14.696  14.816   0.267 -0.2357  0.1713  0.0772
21892W        W38740   9.110  14.478   2.767 -0.3302 -0.1891  0.2819
21893W        W38741   9.626   2.143   3.123 -0.0701  0.0749  0.2596
21894W        W38742  16.413   2.056   2.472  0.0315 -0.0869 -0.1350
21895W        W38743   2.421   4.539   2.547 -0.0639 -0.1141 -0.1923
21896W        W38744   6.425  12.460  11.760 -0.0546 -0.1051  0.1736
21897W        W38745  11.052  13.465  13.998 -0.1254  0.2864 -0.0437
21898W        W38746   4.935   2.500   4.565  0.0810 -0.2712  0.2572
21899W        W38747   5.966   1.401  13.340  0.2041 -0.1548 -0.1991
21900W        W38748   9.237   7.228  16.017  0.1541  0.2851  0.1444
21901W        W38749   6.386   5.839   0.829 -0.0999  0.3141  0.2122
21902W        W38750   9.479  17.240   0.131 -0.2367  0.2739 -0.1185
21903W        W38751   7.634  14.470  12.213 -0.0402 -0.2210 -0.1963
21904W        W38752  12.803  15.916  14.066 -0.1728 -0.1924  0.1486
21905W        W38753   9.709   2.069  14.759 -0.0678  0.1826  0.2662
21906W        W38754   3.955  17.282  12.927  0.0134 -0.2331  0.0132
21907W        W38755   0.089  16.700  16.071  0.0875  0.1538 -0.0479
21908W        W38756  11.554   9.468  15.685  0.0143  0.0465 -0.1975
21909W        W38757  11.432   9.776   4.691 -0.1840 -0.1348  0.0821
21910W        W38758   5.233   0.896   2.620 -0.2437 -0.2128 -0.0343
21911W        W38759  14.713   5.285   4.338 -0.3445 -0.3126  0.1233
21912W        W38760   6.492  12.989   0.243 -0.1434  0.1580  0.5004
21913W        W38761   5.975   4.458  15.319  0.0762  0.0335 -0.1648
21914W        W38762   3.963  11.467   3.766 -0.3840  0.0715 -0.1928
21915W        W38763   7.704  12.701  15.127  0.0705 -0.0740 -0.0165
21916W        W38764  15.174   5.574  15.903  0.2968 -0.2009 -0.3052
21917W        W38765  14.238   5.072   2.344 -0.1609  0.3322 -0.2858
21918W        W38766   7.810   5.127  11.486 -0.0473 -0.0612  0.0157
21919W        W38767   9.749   2.947   2.026  0.2957  0.0476 -0.4216
21920W        W38768   9.387   7.315   0.951 -0.1448 -0.2496 -0.3037
21921W        W38769   6.765  16.433  15.953  0.0327 -0.3435 -0.2540
21922W        W38770  11.004  10.580  14.415  0.0712  0.0818 -0.0811
21923W        W38771   7.233   4.727   0.458 -0.0294 -0.0391 -0.6023
21924W        W38772   9.250  17.959  13.121 -0.0387  0.2779 -0.1596
21925W        W38773  10.094   8.811   2.986  0.2340 -0.0974  0.1229
21926W        W38774  15.549   3.719  14.937 -0.1462  0.2011  0.0356
21927W        W38775   5.761   6.684  15.147 -0.0317  0.0474 -0.0332
21928W        W38776   3.801   9.781  13.479  0.0902 -0.3967 -0.1202
21929W        W38777   1.051   7.913  11.687 -0.1401 -0.0140  0.3377
21930W        W38778   2.891   2.485   0.523 -0.1477 -0.2658  0.1109
21931W        W38779   1.873  11.466  12.390 -0.2200  0.4518 -0.3536
21932W        W38780   4.009  11.867   1.527  0.1522  0.2354  0.3469
21933W        W38781   1.647   0.423  11.400 -0.1727 -0.0821 -0.1857
21934W        W38782   2.300   3.998   1.249 -0.0156 -0.1796  0.0929
21935W        W38783  14.085  12.758   4.294 -0.1909  0.1827 -0.1394
21936W        W38784  10.486   3.427  14.277 -0.1605 -0.0666 -0.2389
21937W        W38785   7.682  15.383  10.984  0.0569 -0.2334  0.1909
21938W        W38786   4.959  11.461   5.046  0.3007  0.2654 -0.4220
21939W        W38787  14.972   8.299  13.218 -0.0961 -0.2957 -0.0697
21940W        W38788  16.295  14.759   2.197 -0.3439 -0.1362 -0.0621
21941W        W38789   8.035  17.256  10.552  0.1659  0.3518 -0.1082
21942W        W38790   1.370   4.517  10.181 -0.0887  0.1213 -0.1124
21943W        W38791  16.475   5.061   5.228 -0.1959  0.2019  0.0800
21944W        W38792   4.971  13.263  16.039 -0.1318  0.0186 -0.1479
21945W        W38793  14.686   5.239  13.673 -0.2761  0.1911 -0.1917
21946W        W38794  17.787  10.312   3.923 -0.1289  0.1127 -0.0527
21947W        W38795   5.261   3.028   1.683  0.1132 -0.1659  0.0814
21948W        W38796   4.696  15.701  11.557  0.1591 -0.1891 -0.2699
21949W        W38797   2.838  11.347  13.911 -0.5946 -0.2074  0.0024
21950W        W38798   8.004   7.979  12.322 -0.0810  0.0803 -0.0958
21951W        W38799   3.011  15.565   4.848 -0.0711  0.5415  0.1454
21952W        W38800   2.076  14.709  12.845 -0.0532 -0.1374  0.0686
21953W        W38801  12.561   6.019  15.801 -0.2544 -0.0724  0.3553
21954W        W38802   2.987   3.318   0.405 -0.2566  0.2082  0.1953
21955W        W38803   6.764   3.877   6.010  0.1502 -0.2710 -0.0019
21956W        W38804   3.354   4.672   0.464 -0.0178  0.3387 -0.2007
21957W        W38805  11.225   5.253  14.500 -0.0597  0.1427  0.0446
21958W        W38806  16.079   1.797   2.029 -0.0639  0.0646  0.0045
21959W        W38807   6.605  17.371  13.330  0.2751 -0.2370 -0.0957
21960W        W38808  12.702  10.269  15.741  0.2238 -0.0457 -0.1723
21961W        W38809  16.646   8.588  13.091 -0.0802  0.1024 -0.0321
21962W        W38810   1.427  10.485  11.417  0.1022 -0.0060  0.0476
21963W        W38811   6.331  16.786  13.402 -0.0456 -0.2180  0.3432
21964W        W38812  15.016  11.845  12.945  0.2202 -0.0767 -0.3156
21965W        W38813  10.859  11.745  16.083  0.1400 -0.1561 -0.0664
21966W        W38814   3.703   6.233  13.428 -0.2159 -0.2362  0.1007
21967W        W38815  11.944  12.997   4.452 -0.2595 -0.2793 -0.1346
21968W        W38816   1.930  11.630   2.700  0.0338  0.0541 -0.0080
21969W        W38817   0.345   3.148   5.107 -0.0301 -0.0411  0.3323
21970W        W38818   5.399  13.078   2.154  0.2403  0.0151  0.0507
21971W        W38819   4.324  15.508   2.969  0.2480 -0.0723 -0.0261
21972W        W38820  12.586   9.005  11.737 -0.0081  0.1341 -0.0088
21973W        W38821   2.951   3.188  12.831  0.0332  0.1064 -0.1097
21974W        W38822   2.919  14.195   5.549 -0.0006  0.0723  0.1854
21975W        W38823  11.473  16.959   4.600 -0.1163  0.0756 -0.1363
21976W        W38824  13.394  15.164  15.545 -0.2531  0.1753 -0.0129
21977W        W38825  17.710   4.920   2.296 -0.3212 -0.3366 -0.1252
21978W        W38826   1.475  14.294   3.789  0.2119  0.2277  0.2157
21979W        W38827  14.149  10.256  13.830  0.0489 -0.0826  0.0304
21980W        W38828   7.742   0.314   4.584  0.0940 -0.4038  0.2121
21981W        W38829  15.577  11.468  13.350  0.1791  0.0191  0.0543
21982W        W38830  16.883  10.799   4.354  0.3549  0.0633 -0.1271
21983W        W38831   9.131   3.811   3.717  0.0816 -0.1517  0.1665
21984W        W38832   9.172   1.397  15.038 -0.0113  0.4640  0.0137
21985W        W38833   7.098  17.511   1.692 -0.0762 -0.0008  0.1529
21986W        W38834   6.088   3.193  12.570 -0.1142  0.0320 -0.1759
21987W        W38835   3.804   6.582  12.649  0.0736 -0.2260  0.1322
21988W        W38836   6.573  16.985   4.717 -0.1686 -0.0565  0.3003
21989W        W38837  17.654   9.089   1.327  0.0302 -0.1822 -0.0237
21990W        W38838  15.800   2.877  12.057 -0.0157 -0.2961  0.2961
21991W        W38839   3.658   5.490   1.330  0.0352 -0.1133  0.1462
21992W        W38840   2.019   4.896   5.038 -0.1648 -0.1029  0.0260
21993W        W38841   3.219   2.691  12.034  0.1587  0.2441 -0.0363
21994W        W38842  13.635   6.480  14.530  0.0381  0.0863  0.1905
21995W        W38843   7.521   2.743  11.346 -0.1424 -0.1939 -0.1164
21996W        W38844   6.882   8.110   4.828  0.1858 -0.1891  0.1167
21997W        W38845  15.960  15.254  12.802 -0.1108 -0.4704  0.1121
21998W        W38846   4.165  16.389  12.147 -0.1786  0.0694 -0.3522
21999W        W38847   6.927  11.065  13.775  0.2208 -0.1309  0.2022
22000W        W38848   3.054  13.633   3.122 -0.0083 -0.0183  0.1494
22001W        W38849   2.114  16.509   3.626 -0.1397  0.0119  0.2726
22002W        W38850   9.790  11.631  15.033 -0.1448  0.0883 -0.2060
22003W        W38851   5.909  10.210   1.895  0.0324 -0.1863  0.0944
22004W        W38852   8.786   7.924   2.829 -0.1960 -0.0739 -0.0156
22005W        W38853   0.401  12.702   3.701  0.0516 -0.0545 -0.0395
22006W        W38854   5.753   8.472  12.387 -0.1331 -0.1452  0.3204
22007W        W38855   7.904  12.986  11.389  0.1085  0.4055  0.0965
22008W        W38856   5.730  10.148   4.120 -0.2463  0.1567  0.1386
22009W        W38857   6.778  16.321   1.276  0.1707 -0.0768 -0.3801
22010W        W38858   6.234   8.591   4.354 -0.0431 -0.1236  0.0357
22011W        W38859   7.350   3.546   0.562  0.0591 -0.1255 -0.3455
22012W        W38860  14.298   5.197   3.560 -0.1509  0.0311  0.0768
22013W        W38861   9.484   7.501   2.143 -0.1630 -0.0028  0.1617
22014W        W38862   6.774  11.744  12.012 -0.3878  0.0768  0.0076
22015W        W38863  18.160   2.760  13.410 -0.0118 -0.1121  0.0924
22016W        W38864   1.301  14.723   3.317 -0.1828 -0.0971 -0.0299
22017W        W38865  16.189  10.135   1.645  0.3422  0.1465 -0.1778
22018W        W38866   9.578  17.462   1.932 -0.1277  0.0023 -0.0240
22019W        W38867  12.573  16.136   3.682 -0.5560 -0.2904 -0.0167
22020W        W38868   2.882  10.775  13.976  0.2963  0.0566  0.0827
22021W        W38869   4.739   6.743   4.607  0.4861 -0.0798  0.0291
22022W        W38870  11.272  10.866  10.902 -0.0594 -0.2619 -0.1447
22023W        W38871   6.444   4.485  14.384  0.0344  0.0279 -0.2807
22024W        W38872  14.105  12.910  12.869  0.1717  0.0273  0.3079
22025W        W38873   3.394  14.144  11.879 -0.5702 -0.2986  0.1791
22026W        W38874  11.652  13.583  11.198 -0.3424  0.0685 -0.0212
22027W        W38875  11.359  17.092  12.092  0.4244  0.0588 -0.0973
22028W        W38876  16.242   0.790   3.462  0.1227  0.0246 -0.1780
22029W        W38877  13.374   1.796  14.190 -0.0521 -0.1286  0.0381
22030W        W38878   0.670   3.732   1.299 -0.0784 -0.1806 -0.4679
22031W        W38879  12.363  16.762  14.086 -0.1136 -0.2829 -0.0408
22032W        W38880   1.973   7.801   0.922 -0.1114  0.1754  0.2162
22033W        W38881   1.302   3.257   3.032 -0.0482 -0.1389 -0.2944
22034W        W38882   9.450  17.298  13.505 -0.2362 -0.0031 -0.0522
22035W        W38883   7.927   2.417   5.615 -0.1902  0.4674 -0.1888
22036W        W38884   1.590   7.538   2.954 -0.2431 -0.2885 -0.5405
22037W        W38885  14.352  11.671  13.567 -0.4121  0.0684 -0.2448
22038W        W38886  14.844   1.180  16.001 -0.1071 -0.0298  0.0578
22039W        W38887   3.383   3.236  11.072  0.0270  0.0352 -0.0126
22040W        W38888  16.956   4.729  13.978  0.0052 -0.0695 -0.2101
22041W        W38889  15.565   7.222   4.757  0.0944  0.1962  0.1525
22042W        W38890   1.780  17.646   3.845  0.4276  0.2148 -0.4055
22043W        W38891   2.943   0.379  13.365  0.2726  0.2408 -0.0281
22044W        W38892  15.917   8.234  14.396  0.0619 -0.0567 -0.0663
22045W        W38893  14.768   2.399   1.578  0.2598 -0.0849 -0.2655
22046W        W38894   1.131   7.408  13.510 -0.3138 -0.2960  0.4239
22047W        W38895  15.938  10.870   0.880 -0.4629  0.1814 -0.2928
22048W        W38896  11.105  10.692  12.215  0.3244 -0.2767  0.0953
22049W        W38897   7.979  14.766   0.142 -0.2614 -0.1544 -0.0432
22050W        W38898   8.961  10.977  14.332  0.2097 -0.0407 -0.1233
22051W        W38899   8.069   7.865   0.287 -0.0355  0.2185  0.2002
22052W        W38900  16.728  11.403  14.588 -0.1221 -0.0101 -0.2387
22053W        W38901   8.465   7.058  12.763  0.0544 -0.4808  0.1002
22054W        W38902  17.203   0.414   3.260  0.1420  0.0573 -0.3001
22055W        W38903  11.529   3.037   1.637  0.0625  0.1209 -0.4087
22056W        W38904   1.919   8.154  11.753 -0.0944 -0.0463 -0.0817
22057W        W38905   9.250  14.600   3.312  0.0593 -0.1038 -0.0030
22058W        W38906   0.825   8.843   0.712 -0.2413  0.1781 -0.2586
22059W        W38907  10.625   2.771  14.315 -0.0282 -0.2892 -0.1673
22060W        W38908   2.216   9.737  13.031 -0.0560  0.1955  0.2361
22061W        W38909   3.468   2.891  15.869 -0.2994  0.3828  0.1038
22062W        W38910   0.030   8.053   3.379 -0.1388 -0.0252  0.2903
22063W        W38911   9.290   4.039  14.928  0.0358  0.0152  0.0825
22064W        W38912  11.074   9.975   5.993  0.2946 -0.2983 -0.1667
22065W        W38913  17.510  13.809  14.589  0.0721  0.0524 -0.3038
22066W        W38914   3.281  12.456  12.850  0.1501 -0.2713 -0.0111
22067W        W38915   5.616   7.720   1.242  0.2995  0.0081  0.1686
22068W        W38916   0.042   2.968   3.866 -0.1318 -0.1409  0.0683
22069W        W38917   1.439  16.278   3.416 -0.2107 -0.1471  0.1363
22070W        W38918  12.422   7.532  13.382  0.1086  0.1237 -0.0007
22071W        W38919   9.703  15.636  13.461 -0.0320  0.0904  0.1692
22072W        W38920   7.610  14.935  11.993 -0.0661 -0.2328  0.0991
22073W        W38921   5.157   6.413   0.952  0.1879 -0.0116 -0.0609
22074W        W38922  15.211  15.841   0.364 -0.0232  0.0828 -0.3083
22075W        W38923   9.505  13.404  13.573 -0.0774 -0.2656 -0.3240
22076W        W38924  11.720  12.621  13.084 -0.3064  0.0638  0.0476
22077W        W38925  18.036   9.212  13.676 -0.0059  0.2393  0.0196
22078W        W38926  15.799   1.567   3.135  0.1276 -0.0348 -0.1177
22079W        W38927   2.776  14.486   3.982 -0.2090  0.0726  0.1048
22080W        W38928   3.538   5.703  14.985 -0.2069  0.0751 -0.0800
22081W        W38929   8.304   5.861   1.491  0.0340  0.0908 -0.0960
22082W        W38930  10.948  13.720  14.794  0.0253 -0.2630  0.1081
22083W        W38931   4.556   5.645   4.917  0.2283  0.0846  0.0148
22084W        W38932  15.898  17.709   4.858  0.0133 -0.0538  0.1711
22085W        W38933   4.689  12.730  14.940 -0.2579 -0.1035  0.0492
22086W        W38934   4.302  10.163   0.051  0.0540  0.0731 -0.0626
22087W        W38935   9.924  15.810   3.618 -0.0994  0.0481  0.0405
22088W        W38936   0.965  16.860   3.597 -0.2388 -0.1072  0.0108
22089W        W38937  12.776  10.198  14.297 -0.0691 -0.0434 -0.3418
22090W        W38938  11.654   1.513   0.050  0.0071  0.1310  0.5774
22091W        W38939   1.847   0.019  13.574  0.1690  0.0903  0.3767
22092W        W38940   5.587   8.336   4.789 -0.0171 -0.0996 -0.1219
22093W        W38941   0.588   5.433  15.545  0.1798  0.0570 -0.1320
22094W        W38942   8.114  14.394   4.712  0.3246 -0.0683  0.0682
22095W        W38943   1.337   9.579   4.070  0.1917  0.1672 -0.0641
22096W        W38944   1.558  14.832   2.428 -0.0611  0.0486 -0.0527
22097W        W38945  10.981   3.620  13.978 -0.0790 -0.2264  0.1136
22098W        W38946   1.588  15.787   3.185 -0.1406 -0.1214 -0.0440
22099W        W38947   3.384   3.697  11.883  0.1562  0.2056  0.1749
22100W        W38948   6.156   6.430   1.818  0.0913 -0.0728  0.3043
22101W        W38949   2.776  13.371  11.595 -0.1816  0.2718  0.1058
22102W        W38950   4.655   1.744   4.111  0.1758 -0.2193  0.1173
22103W        W38951  12.077   2.822   4.516 -0.0142  0.0256 -0.1560
22104W        W38952  14.028  11.718  12.296  0.0488  0.1155  0.0009
22105W        W38953  12.756  15.254  12.516 -0.2615 -0.1224 -0.1416
22106W        W38954   1.751  12.773  13.802 -0.0163  0.0485 -0.2508
22107W        W38955  14.125   9.707  14.040 -0.1421  0.4866  0.0065
22108W        W38956   5.204   1.582   0.997  0.0463 -0.0045  0.0274
22109W        W38957  17.735  15.302   1.824 -0.0525 -0.0164 -0.0298
22110W        W38958  16.962  11.302   0.222 -0.2278 -0.0491 -0.0656
22111W        W38959  15.900   9.885  11.313 -0.2118 -0.4629 -0.2110
22112W        W38960   1.379  13.784   0.767 -0.0091 -0.5292  0.1496
22113W        W38961  15.059  14.535   1.403 -0.4329 -0.1580  0.2415
22114W        W38962  16.997   0.394   1.987  0.0265 -0.3171 -0.0616
22115W        W38963   3.850  13.753   0.286 -0.0058  0.2228  0.0830
22116W        W38964   0.591   3.475   0.311 -0.1036  0.0845  0.1855
22117W        W38965   9.086   5.173   3.324  0.0112 -0.0667 -0.1705
22118W        W38966  17.845  16.190   1.709 -0.1878 -0.0541 -0.0224
22119W        W38967   0.657   7.035  14.866 -0.1228  0.0051  0.1492
22120W        W38968   0.785   8.053  14.086  0.2418  0.3195 -0.0498
22121W        W38969  17.930   6.261   2.225 -0.1517  0.1833 -0.0140
22122W        W38970   0.245  10.588   5.775 -0.1993  0.2132 -0.2574
22123W        W38971   3.747   8.517   4.509 -0.0559  0.0860  0.1126
22124W        W38972   8.076   2.702   2.441  0.1195 -0.1215  0.0314
22125W        W38973  15.094   3.852  11.651  0.0795  0.1769  0.1762
22126W        W38974  12.557   0.288   3.787  0.1062  0.1465 -0.0107
22127W        W38975  15.482  13.810   2.251  0.1513 -0.0299 -0.1855
22128W        W38976  14.857   4.430  12.397 -0.0367  0.0552 -0.2023
22129W        W38977  13.012  11.225  14.179  0.0436 -0.3302  0.2901
22130W        W38978  15.729   4.206  13.431 -0.0022 -0.0738  0.0342
22131W        W38979  17.080  10.823   3.765 -0.1534  0.2131  0.1484
22132W        W38980   5.797  15.704   0.452  0.0552  0.0174 -0.2218
22133W        W38981   3.478   1.572   2.427  0.4531 -0.1244  0.1489
22134W        W38982  13.305   9.503  15.304  0.0449  0.0663  0.0971
22135W        W38983   6.887  12.229  11.704 -0.0392  0.3183  0.0709
22136W        W38984   4.362   1.411  12.336  0.1825 -0.1779 -0.0248
22137W        W38985   0.791  12.860   0.717 -0.1016  0.0727 -0.0194
22138W        W38986  12.192   9.085  11.395  0.3140  0.2071  0.1896
22139W        W38987   4.856   8.147   4.936  0.2462 -0.1072 -0.3916
22140W        W38988   0.208  12.732  11.495  0.0252 -0.2136 -0.2979
22141W        W38989  15.079   7.099  14.023  0.3034  0.0749 -0.3469
22142W        W38990  14.194  17.855   1.555  0.2173 -0.1431 -0.1418
22143W        W38991  17.830   3.603  11.123  0.0559  0.0140  0.1218
22144W        W38992   4.955   0.593   2.215  0.0881  0.0285 -0.2407
22145W        W38993  13.989   2.739   2.362  0.0716 -0.1714 -0.1005
22146W        W38994   4.773   9.381  13.065 -0.3820  0.1708 -0.0333
22147W        W38995   7.015  10.489  12.623  0.0031 -0.0155 -0.2058
22148W        W38996  17.009   7.973   4.250  0.4024 -0.0280 -0.0726
22149W        W38997   2.950   9.967   9.868 -0.1424  0.1916 -0.4000
22150W        W38998   6.152  10.824  15.338  0.2018 -0.0347  0.2008
22151W        W38999   6.980   0.210   5.788 -0.2398 -0.3251  0.1659
22152W        W39000  16.526  14.352   3.235  0.0860 -0.2692  0.1084
22153W        W39001   7.995   6.791   1.548 -0.2507 -0.1239  0.3754
22154W        W39002   3.772   5.227   3.835  0.0147  0.1243  0.0241
22155W        W39003   9.550  17.716   4.631 -0.2204 -0.0609  0.1411
22156W        W39004  16.416   1.912  14.294 -0.3830  0.0631 -0.1978
22157W        W39005  11.366  17.812  14.305 -0.3236  0.2851 -0.2976
22158W        W39006  15.873  12.914   0.010 -0.0019  0.1526  0.5173
22159W        W39007   7.100   2.572  15.693  0.2825  0.0616 -0.0199
22160W        W39008   4.674   9.305   3.771 -0.0394 -0.0500 -0.0051
22161W        W39009  11.520   3.990   3.181  0.0293  0.1044  0.1847
22162W        W39010  14.029   8.224   3.417  0.4372 -0.0427 -0.1237
22163W        W39011   6.770   1.134   2.369  0.2411 -0.1098 -0.0167
22164W        W39012   2.231  10.787  10.777  0.0212 -0.3745 -0.1197
22165W        W39013   6.591   8.489   0.120 -0.1972 -0.1554 -0.0809
22166W        W39014  10.204   3.427  15.827 -0.0492 -0.0521 -0.2049
22167W        W39015  14.688   7.813  15.049  0.0963 -0.1063 -0.1666
22168W        W39016   2.096   5.660  13.106 -0.0325  0.1568  0.1791
22169W        W39017   6.737   4.976   3.523 -0.3827 -0.0458  0.1161
22170W        W39018   9.929   5.755   1.649  0.1781  0.0972  0.1061
22171W        W39019   3.796   6.932   2.350  0.1582 -0.7032 -0.0014
22172W        W39020   2.157   5.103   4.471  0.0571 -0.0200  0.0572
22173W        W39021  11.478  16.946   2.033  0.2500 -0.1036  0.1926
22174W        W39022   8.734   2.287   3.566 -0.3580 -0.0025 -0.0502
22175W        W39023  12.084  14.859   1.854  0.0608 -0.3638  0.0808
22176W        W39024   5.213   9.621  15.064  0.0097 -0.0104  0.1548
22177W        W39025  15.130   9.701  15.083 -0.0889  0.0590  0.0767
22178W        W39026  11.529  18.219  15.749 -0.0195  0.1771  0.2224
22179W        W39027   5.037  11.078   4.519 -0.1324 -0.1020 -0.0845
22180W        W39028   7.740   0.315  14.093 -0.0299 -0.2571  0.2492
22181W        W39029  10.450  10.981  15.846  0.0932 -0.1973  0.3545
22182W        W39030   8.692  15.462  12.575 -0.0357  0.1315 -0.1659
22183W        W39031   9.710   3.359   4.451 -0.0781 -0.1861 -0.5575
22184W        W39032   0.287   8.258  15.663 -0.2243  0.0477 -0.1427
22185W        W39033  11.735  14.231  12.330  0.2852  0.2166  0.0239
22186W        W39034   1.330   4.896   2.465 -0.0166 -0.2608 -0.2629
22187W        W39035  16.371  11.741  13.539  0.1522 -0.1023  0.1215
22188W        W39036   0.340   9.798   3.722 -0.0958  0.1671 -0.0436
22189W        W39037   6.513  18.199   0.380 -0.2588 -0.0671  0.1500
22190W        W39038   6.151   6.258   3.199 -0.1994 -0.0610  0.0836
22191W        W39039  17.955  12.810  12.607 -0.0454 -0.1820  0.1778
22192W        W39040  15.687   5.444   1.506  0.0043  0.2523  0.0415
22193W        W39041  12.995  16.862   0.063  0.0784  0.0352 -0.0010
22194W        W39042   2.968   5.262  13.986 -0.0678  0.2690  0.1937
22195W        W39043   7.869  10.259  12.459  0.0581 -0.1747 -0.1047
22196W        W39044   0.077  11.786  14.744  0.3377  0.0741 -0.1303
22197W        W39045  11.297  11.441  12.237  0.0839  0.0669 -0.0119
22198W        W39046  12.091   5.459   3.037 -0.1472  0.1948  0.1249
22199W        W39047  16.561   2.370  11.323 -0.3706  0.2220  0.2948
22200W        W39048   4.825   2.219  11.407 -0.1662  0.1509  0.0631
22201W        W39049   6.949  14.200   0.881  0.1724 -0.1528 -0.0085
22202W        W39050   4.401   1.224   0.490  0.4378  0.1555  0.0970
22203W        W39051   4.546  17.378  12.380  0.2553  0.1391  0.0519
22204W        W39052   0.716   2.416   4.935 -0.3145  0.3346 -0.2509
22205W        W39053   0.643  10.284   0.888 -0.2040 -0.1083 -0.4409
22206W        W39054  15.622  15.607  13.666 -0.0481 -0.2352 -0.3112
22207W        W39055   2.712  14.390  10.567  0.0972  0.4551 -0.4009
22208W        W39056  16.210   2.893  14.942 -0.0288  0.2381  0.0936
22209W        W39057  10.108   0.656   0.611 -0.2049  0.0669  0.1857
22210W        W39058   6.084  14.081   3.658 -0.3127  0.2296  0.3028
22211W        W39059  10.352   5.408  11.602 -0.0679 -0.1802  0.1615
22212W        W39060  18.164   4.647  12.047 -0.0330  0.4242 -0.1619
22213W        W39061  16.226  10.528  12.181 -0.0489 -0.1877  0.2104
22214W        W39062  10.625   7.974  14.159 -0.3726  0.1183  0.1284
22215W        W39063   5.610  15.455  12.220 -0.0412  0.1480  0.0961
22216W        W39064   1.373  15.037  13.258  0.0399  0.0262 -0.2525
22217W        W39065  10.379   4.161  12.503  0.3443  0.1361  0.0852
22218W        W39066  12.400   1.098  12.094  0.0407  0.0621  0.3115
22219W        W39067  16.541   7.919   2.243 -0.1741  0.4767 -0.0371
22220W        W39068   6.339  16.412   1.044 -0.2286 -0.1881 -0.2305
22221W        W39069   2.612  15.518  11.054 -0.1183  0.0236 -0.0981
22222W        W39070   8.495  11.110  15.503  0.1991 -0.0880  0.0972
22223W        W39071   1.654  17.902  14.442  0.2524 -0.0658 -0.3378
22224W        W39072  15.754  17.484  10.917  0.1027  0.2292  0.4173
22225W        W39073   4.818   6.435  16.029 -0.0557 -0.1500  0.0451
22226W        W39074  16.273  17.921  15.725 -0.1148 -0.4051  0.2332
22227W        W39075  14.928   2.139  15.435  0.0092 -0.2567 -0.1840
22228W        W39076  12.216  13.529   0.650  0.0482 -0.0383 -0.0687
22229W        W39077   8.035  14.839  12.277  0.3032 -0.1594 -0.0394
22230W        W39078  17.172  17.752  11.096 -0.0779 -0.1659 -0.0658
22231W        W39079   9.920  14.024  15.772 -0.4403  0.0225 -0.0661
22232W        W39080   5.890   5.411   4.271 -0.1738 -0.1756  0.0501
22233W        W39081   0.452  12.234  14.735  0.3003  0.1624  0.0722
22234W        W39082   6.144   4.210  14.896 -0.1646 -0.2303  0.0594
22235W        W39083   5.678   6.362  15.507  0.0175 -0.4090  0.1545
22236W        W39084   6.540   4.672   3.162 -0.0602 -0.0421 -0.1660
22237W        W39085   9.914  16.582   2.226  0.1558  0.0453 -0.1261
22238W        W39086   9.258   8.074  15.620 -0.0812  0.1435 -0.2301
22239W        W39087   0.845   6.297   0.087  0.0185 -0.2514 -0.2505
22240W        W39088  15.801  17.702  15.646 -0.1020 -0.1762  0.1367
22241W        W39089   6.470  11.830   3.485 -0.0271 -0.2960 -0.0598
22242W        W39090   4.629  16.352   3.694 -0.1247  0.2961  0.1322
22243W        W39091  14.170   9.147  15.913 -0.0214 -0.0903  0.1070
22244W        W39092   1.136   7.471  15.617  0.1717 -0.0010  0.0565
22245W        W39093  11.903   1.762  14.227 -0.0429 -0.2366 -0.0311
22246W        W39094  15.868   7.912   0.267 -0.0187 -0.0052  0.2301
22247W        W39095  16.540   6.088  14.283  0.0307 -0.1177  0.0881
22248W        W39096  12.875  11.264   5.120 -0.1185  0.2942 -0.0954
22249W        W39097   2.471   7.478   5.359  0.0117  0.0942 -0.1985
22250W        W39098  10.874   6.579   5.273  0.1047 -0.2243  0.3973
22251W        W39099   2.816   0.887   5.500  0.2435  0.2710 -0.0782
22252W        W39100   7.726   9.272  13.976 -0.0176 -0.0415  0.0297
22253W        W39101   4.718   0.148  13.247 -0.0140 -0.0625 -0.1472
22254W        W39102  11.820  11.662  10.908 -0.0836 -0.1105  0.0559
22255W        W39103   6.770   0.451   4.503 -0.1673  0.2026 -0.1336
22256W        W39104  17.033  14.520   0.072  0.3517  0.2692  0.3000
22257W        W39105   9.889   4.587  13.094  0.3722  0.0165  0.1228
22258W        W39106   8.393   2.904  10.672 -0.1048 -0.0226  0.4111
22259W        W39107  17.883   6.822   4.457  0.4429  0.2693 -0.1093
22260W        W39108  18.206   9.878  13.140 -0.4125 -0.4534 -0.1002
22261W        W39109   6.037   6.216   0.727 -0.1749 -0.0217 -0.0885
22262W        W39110   6.646   0.671  14.879 -0.3024 -0.0098 -0.1084
22263W        W39111  16.452   5.546   2.701 -0.2863  0.0923  0.1621
22264W        W39112   9.120   8.749   0.747 -0.3663  0.1072 -0.1925
22265W        W39113   2.833  16.377  11.303 -0.1100 -0.0213  0.0110
22266W        W39114   2.763  15.337  13.137 -0.0387 -0.1173  0.0560
22267W        W39115  11.484   0.301  13.793 -0.2647 -0.1354 -0.2777
22268W        W39116  12.718   4.604  11.461 -0.0474  0.0553 -0.1903
22269W        W39117   3.162   4.103  15.142 -0.0178  0.2104  0.1729
22270W        W39118  14.477   4.938  15.582 -0.0643 -0.3419 -0.1497
22271W        W39119  14.940   8.085   5.562  0.0988 -0.4573  0.1584
22272W        W39120   0.648  13.751  14.367  0.0110  0.0501 -0.2552
22273W        W39121   0.026   1.714   2.500  0.1046  0.3848 -0.3028
22274W        W39122   2.092   1.235  12.136  0.2474  0.0365 -0.3046
22275W        W39123   2.300  12.046  14.523  0.0857 -0.0459 -0.2757
22276W        W39124   3.304  14.434   4.282  0.1575 -0.2027  0.0435
22277W        W39125  16.732  14.211   3.978  0.2754  0.3213  0.0459
22278W        W39126   1.953  13.504   3.266  0.3279  0.1586 -0.0886
22279W        W39127  11.693   2.333  12.180  0.0149 -0.1684  0.1607
22280W        W39128   5.116   5.590   1.861 -0.0559  0.0156  0.0239
22281W        W39129   6.971   4.776   4.955  0.1429  0.2386 -0.2531
22282W        W39130   1.921   5.666   2.061  0.0756 -0.2007  0.2172
22283W        W39131  11.170   7.832   0.490  0.0013  0.0313  0.0634
22284W        W39132   8.657  12.340  13.298  0.0619  0.3150 -0.1889
22285W        W39133  15.197   1.120   2.331  0.0638  0.1297  0.0932
22286W        W39134  13.012  14.039  14.811  0.3498  0.0157 -0.1000
22287W        W39135   9.846  13.792   3.724  0.0788  0.2041  0.1863
22288W        W39136   0.901  12.111   5.578 -0.1744 -0.0602 -0.4483
22289W        W39137   8.966  11.509  12.035 -0.2775  0.2202 -0.1447
22290W        W39138   8.104   4.760  12.204 -0.0073  0.4752 -0.1366
22291W        W39139  15.915  14.647  14.983  0.0114  0.3649 -0.0255
22292W        W39140   3.533  17.739   3.130 -0.4115 -0.0443 -0.1132
22293W        W39141  13.161   3.172   1.231  0.0807 -0.2640  0.0091
22294W        W39142  13.646  15.234  11.593 -0.3530  0.3744  0.1113
22295W        W39143   9.715  17.163  13.953  0.0296  0.0002  0.1166
22296W        W39144   9.726   2.229  13.097 -0.0041 -0.1136  0.1967
22297W        W39145  17.371   0.107  11.600 -0.0862  0.1469 -0.0568
22298W        W39146   1.757   8.791   0.883 -0.0713 -0.0210 -0.0482
22299W        W39147  17.319  12.356   2.742  0.0187 -0.3614 -0.0282
22300W        W39148  14.558   7.445   4.608 -0.1654  0.2494  0.0298
22301W        W39149   1.583   7.851   5.652  0.3374  0.1068 -0.0530
22302W        W39150  12.009  11.905  15.168  0.2807  0.1680  0.1349
22303W        W39151   9.234   3.992  11.439 -0.0041  0.1594 -0.1802
22304W        W39152   1.027  17.729  13.279 -0.1942 -0.1694  0.0426
22305W        W39153  17.657   8.812   3.550 -0.2868  0.1563  0.3260
22306W        W39154  10.651  11.432  13.095 -0.4570  0.1932 -0.2643
22307W        W39155   3.124   5.876   5.009 -0.0954  0.1828  0.0733
22308W        W39156   5.435   7.052  11.622 -0.0490 -0.1566  0.0909
22309W        W39157  16.242   2.109  14.768  0.1997 -0.1780  0.0407
22310W        W39158   3.492  17.343  14.437  0.0171 -0.1368  0.0312
22311W        W39159  11.359   9.660  13.895  0.2211  0.1981  0.0950
22312W        W39160  13.542   6.599   0.608 -0.3292 -0.0909 -0.1661
22313W        W39161  16.841   3.193  12.470 -0.0922  0.0048  0.2077
22314W        W39162  10.633   5.474   5.295 -0.2146 -0.3567  0.2811
22315W        W39163  13.646  11.265  14.827  0.4461  0.0886 -0.3507
22316W        W39164   3.478   3.189   5.453 -0.1118  0.0220 -0.0005
22317W        W39165  13.492   1.421  12.879  0.1137  0.1410  0.1630
22318W        W39166  17.710  16.216  15.863  0.0923  0.2282  0.2065
22319W        W39167  16.790  14.507  11.913  0.0905 -0.0981 -0.0047
22320W        W39168  16.958   0.895   1.765 -0.1595  0.1534 -0.1659
22321W        W39169   5.157  17.159  14.974  0.2464 -0.2237  0.1571
22322W        W39170   4.323  10.935  14.146 -0.2581 -0.0348  0.0725
22323W        W39171   7.501  13.584   0.913 -0.2178  0.1899 -0.1617
22324W        W39172   5.296   2.812  14.633 -0.0635 -0.2398 -0.0641
22325W        W39173  16.513   9.073   3.583 -0.0270  0.2533 -0.0258
22326W        W39174  10.699  11.098   1.765 -0.0792 -0.1448 -0.0004
22327W        W39175   3.179  11.766  12.109  0.1468 -0.0390  0.0223
22328W        W39176   8.334   5.444   3.222 -0.2841  0.0394  0.3207
22329W        W39177   8.761   5.014  13.446  0.1050  0.1423  0.1523
22330W        W39178  15.304  17.590   3.182  0.1091  0.2784  0.2314
22331W        W39179  12.902   3.011  14.753  0.0801 -0.0649  0.1505
22332W        W39180   3.829   8.910  13.697  0.0745  0.0462 -0.2196
22333W        W39181   5.736   5.788  12.454 -0.0131 -0.1749  0.1678
22334W        W39182   0.507  12.888  15.389 -0.2783  0.4796  0.2098
22335W        W39183   5.353   3.277  14.692 -0.3483 -0.1292 -0.0991
22336W        W39184   0.222   2.156   2.549  0.2470  0.0531 -0.1395
22337W        W39185   9.002  13.942  16.040  0.1781 -0.2248 -0.1134
22338W        W39186   5.425   8.880   3.297 -0.0243 -0.0471  0.4063
22339W        W39187   2.551  10.428  14.187 -0.1843  0.0134  0.0961
22340W        W39188   6.492   4.073   0.179  0.2155  0.0715  0.0309
22341W        W39189   5.212   4.468  14.822 -0.0719  0.0379 -0.0191
22342W        W39190   1.924  16.551   1.255 -0.1837 -0.1074 -0.1539
22343W        W39191   4.341  12.343   3.769 -0.0804  0.1054 -0.1964
22344W        W39192   5.715   1.445   0.393  0.0056 -0.0908  0.0054
22345W        W39193   6.725   6.470   4.620 -0.0779  0.1314 -0.2134
22346W        W39194   1.746   0.736  15.112  0.0358 -0.0765  0.1067
22347W        W39195  10.026   4.553   0.931 -0.1560 -0.2266 -0.1851
22348W        W39196  10.663   8.582  11.551 -0.1732 -0.1815  0.0715
22349W        W39197   3.515   2.921   2.571  0.0687 -0.4361 -0.1187
22350W        W39198  13.927   7.361  12.821 -0.5595 -0.1047  0.0714
22351W        W39199  12.514  10.492   6.236  0.1362  0.1511  0.0499
22352W        W39200   9.396   9.891  15.428  0.2160  0.1626  0.0500
22353W        W39201  17.248  15.783  14.027  0.1159  0.4307  0.2715
22354W        W39202  10.977   2.415  14.298 -0.4921 -0.1931 -0.3109
22355W        W39203   0.024   1.982   4.608 -0.2878 -0.1456  0.1900
22356W        W39204  12.604   5.709   5.882 -0.0973 -0.0974  0.0326
22357W        W39205   3.801   2.632   2.836 -0.0616 -0.1774 -0.0403
22358W        W39206   5.626   2.593   3.118 -0.0737  0.1732  0.0160
22359W        W39207   3.341   9.064   3.101 -0.1576 -0.1006 -0.2176
22360W        W39208   3.792   9.150   4.893 -0.0053  0.2580 -0.0311
22361W        W39209  11.389   0.208   3.525  0.1815  0.0044  0.2545
22362W        W39210  15.513  13.700   2.733 -0.0143 -0.0015  0.1889
22363W        W39211  10.342  10.030   0.532 -0.2725  0.1636 -0.1140
22364W        W39212  11.483   4.272  15.771  0.1821 -0.0158 -0.0607
22365W        W39213  11.474  17.950   3.166  0.1922  0.0274  0.3086
22366W        W39214   8.792  13.643  15.683  0.1919 -0.0949  0.1806
22367W        W39215  15.903   6.370  15.606  0.1924 -0.1934  0.0664
22368W        W39216   6.814  12.656   2.153 -0.1754 -0.2971  0.0286
22369W        W39217   1.311   1.557   3.925  0.0396 -0.0772 -0.0329
22370W        W39218   2.516  15.156   2.896 -0.1219  0.1045  0.1601
22371W        W39219   3.453   4.214  11.125 -0.1116 -0.2511  0.2482
22372W        W39220   6.016   5.804  13.457  0.2004 -0.0846  0.3056
22373W        W39221   5.358  16.495   2.733  0.0899 -0.1387 -0.2458
22374W        W39222  15.506  13.869   3.576 -0.4119 -0.2923 -0.2680
22375W        W39223   2.935   8.525  13.270  0.2108  0.0548  0.4779
22376W        W39224   1.245   3.375  14.999  0.2703 -0.1599 -0.1627
22377W        W39225   4.444  13.360  12.278  0.2990 -0.0550  0.1762
22378W        W39226   2.074   5.938   0.821  0.2321 -0.1219 -0.0125
22379W        W39227   1.869  12.244   9.905 -0.2718 -0.1272 -0.1178
22380W        W39228  12.024   2.266   3.284  0.0469  0.0292  0.0077
22381W        W39229  10.909   8.375   0.440 -0.3139  0.2643 -0.1801
22382W        W39230   9.833  16.354   4.375 -0.0070 -0.0050 -0.1677
22383W        W39231  10.558  17.287  14.376 -0.0192 -0.0323 -0.0415
22384W        W39232   4.033   6.088   1.572  0.1646 -0.1008  0.2886
22385W        W39233  15.063   6.256   2.641 -0.1764 -0.2154  0.1743
22386W        W39234   5.026   5.231   2.789  0.0156  0.0205 -0.0643
22387W        W39235  11.082  14.303   4.021  0.0680 -0.1744  0.0278
22388W        W39236   6.880   0.271  11.833 -0.1628  0.1526  0.0967
22389W        W39237   9.355  15.240   5.277  0.2225 -0.2362  0.0679
22390W        W39238   9.325  13.297  12.233  0.0130 -0.0619  0.0748
22391W        W39239  13.966  17.618   4.204  0.1799 -0.0427 -0.3557
22392W        W39240   3.980   8.790  14.205 -0.2992  0.1604  0.2256
22393W        W39241   4.035  13.556  15.858  0.0390 -0.1424 -0.1136
22394W        W39242  11.214   5.695  14.110 -0.4747 -0.2363  0.1851
22395W        W39243  16.133   9.934  13.539 -0.1274 -0.1228  0.4162
22396W        W39244  15.438   7.327  14.846 -0.1165  0.0472 -0.2803
22397W        W39245  14.533   3.675   1.301 -0.0324  0.1954 -0.3680
22398W        W39246  13.024   7.701  16.054 -0.4992 -0.2105 -0.1855
22399W        W39247  17.608  17.210  15.903  0.1751 -0.0450 -0.1800
22400W        W39248   2.764  15.501   3.478 -0.0075  0.1671 -0.2768
22401W        W39249   0.726   6.362   5.204  0.0900  0.4509  0.3483
22402W        W39250  13.078  13.727   1.297 -0.2453 -0.1277 -0.0750
22403W        W39251  14.230   6.181   3.337  0.0043  0.0766  0.0920
22404W        W39252   2.653  10.022   3.770 -0.0880 -0.2372 -0.3840
22405W        W39253   6.746   5.581   2.038  0.3214 -0.1626 -0.3249
22406W        W39254   7.531  13.734   4.504 -0.1628 -0.2551 -0.2282
22407W        W39255  17.742  10.296   5.226 -0.0322  0.0995 -0.2890
22408W        W39256   5.786   3.040   3.405 -0.0335 -0.2138  0.0612
22409W        W39257   0.463   1.779  11.853  0.1736 -0.2099 -0.0089
22410W        W39258   2.768   0.466   0.372 -0.1714 -0.0239 -0.0736
22411W        W39259   3.055  10.538   1.405  0.1247 -0.0983  0.0438
22412W        W39260   4.856   1.260  14.025 -0.0217  0.2718  0.2976
22413W        W39261   2.666   7.426   1.978  0.2662  0.2486 -0.1389
22414W        W39262  16.367  15.589  14.984  0.2233  0.2729  0.1182
22415W        W39263   0.553  11.242   0.282 -0.0509  0.1164 -0.2063
22416W        W39264   1.287  15.286   2.426  0.0614  0.1500  0.3954
22417W        W39265   7.076   6.560   1.792 -0.4292  0.0966  0.0194
22418W        W39266   7.636   4.374   5.948  0.1068 -0.0330 -0.3968
22419W        W39267   2.325  17.271   4.228 -0.1639  0.1125 -0.1353
22420W        W39268   4.334   7.972   4.942 -0.3045 -0.1565  0.0225
22421W        W39269   4.103   4.164   1.634  0.3039 -0.3097  0.2479
22422W        W39270   1.843   5.488  10.377  0.2491 -0.0823 -0.0814
22423W        W39271  14.838  15.111   6.068  0.0627 -0.0767  0.1137
22424W        W39272  16.190  12.420   3.002 -0.1212 -0.1271 -0.3553
22425W        W39273   2.180  12.568   3.855  0.0033 -0.0131 -0.0374
22426W        W39274  10.403   7.252   4.037  0.3613 -0.0031 -0.0423
22427W        W39275   5.991   0.504   2.781 -0.1341 -0.0381 -0.1002
22428W        W39276  18.024  16.622   2.810 -0.1525 -0.0856  0.0214
22429W        W39277  12.971   2.836  11.385 -0.0046  0.1098  0.1766
22430W        W39278  10.418   2.216  12.765 -0.1200 -0.1452  0.0096
22431W        W39279   5.054   5.735  13.331  0.1251  0.3264 -0.0788
22432W        W39280  15.580   5.512  12.013  0.3555  0.0753 -0.3666
22433W        W39281  11.124  14.862   2.269 -0.0350  0.1456  0.0716
22434W        W39282  11.915   4.331  15.994  0.1828  0.1564 -0.2906
22435W        W39283   9.205  10.605  14.998 -0.0460  0.0623  0.3003
22436W        W39284   3.007   5.851  11.798 -0.1472 -0.2223  0.0603
22437W        W39285   3.662  16.571   4.875  0.1216 -0.0776 -0.1866
22438W        W39286   9.348  12.547   5.537  0.1243  0.2069  0.2127
22439W        W39287   0.436  13.127   2.646  0.2952  0.0075 -0.3045
22440W        W39288   6.616  12.195   4.089  0.2706 -0.1196  0.1782
22441W        W39289   1.905  13.616   4.355  0.0726 -0.2133 -0.1899
22442W        W39290  16.801  15.225  15.693  0.2403  0.0608  0.1998
22443W        W39291   9.402  11.489   0.156  0.0892  0.0286 -0.2231
22444W        W39292  15.321   6.115   4.970  0.1457  0.1551 -0.2066
22445W        W39293   0.620   2.548  12.300 -0.2160  0.0677 -0.1571
22446W        W39294   2.784   1.279  14.874  0.1273  0.0344  0.3047
22447W        W39295   6.578   7.744   2.458 -0.1225 -0.1198 -0.2694
22448W        W39296   3.801   4.726   3.667  0.2134 -0.1618  0.0150
22449W        W39297   2.068  12.467   3.189 -0.0939 -0.0686 -0.0175
22450W        W39298  11.308   6.353   0.313  0.0560  0.2743  0.0028
22451W        W39299  10.383   6.504   3.609  0.1800 -0.1278  0.2867
22452W        W39300   2.287  16.395  15.056  0.3402  0.2858 -0.3685
22453W        W39301  14.912   1.632  13.112  0.2411  0.0841 -0.2655
22454W        W39302  10.353  14.213  14.272  0.0348 -0.0978  0.0302
22455W        W39303   2.809   6.002   4.036  0.0760 -0.0882 -0.2550
22456W        W39304   8.571   9.726  13.195 -0.2775  0.2091  0.0586
22457W        W39305   6.946   7.207  11.648 -0.0159 -0.3209 -0.0061
22458W        W39306   6.353   7.324   5.829 -0.2358 -0.3325  0.2793
22459W        W39307  16.701   8.693   1.963 -0.2116  0.0634 -0.0887
22460W        W39308   6.242   6.942  13.423  0.1042 -0.0682  0.1866
22461W        W39309   3.464   3.538   2.777 -0.2570 -0.0565  0.5121
22462W        W39310  16.605   7.973  10.444 -0.0769 -0.0100 -0.1445
22463W        W39311   4.723   0.332   0.460  0.1531  0.0190 -0.0900
22464W        W39312  11.399  16.608  11.523  0.1194  0.2385 -0.2090
22465W        W39313  17.236  15.644  12.772 -0.0604 -0.1542 -0.0143
22466W        W39314  12.088   2.566  11.860 -0.0383  0.4548  0.1065
22467W        W39315   9.246  14.398  13.073  0.0403 -0.2442 -0.1707
22468W        W39316  13.727  13.331  12.947  0.2503  0.2178 -0.1091
22469W        W39317  10.566   1.986   1.519  0.0038 -0.2335 -0.0482
22470W        W39318   1.120  17.198  11.269 -0.1631  0.1607 -0.2189
22471W        W39319   6.386   6.810   1.548 -0.1844 -0.0900  0.1403
22472W        W39320   0.457  16.263   1.250 -0.2525 -0.1931  0.1516
22473W        W39321  13.264   9.519   4.751 -0.1184  0.2845  0.4608
22474W        W39322  16.098  11.158  14.155  0.0464  0.2113 -0.0356
22475W        W39323   7.345  15.838  13.295 -0.0306 -0.1144 -0.1541
22476W        W39324  12.059   2.983  14.247  0.1449  0.2278 -0.2397
22477W        W39325   0.216  12.520   0.563  0.0089  0.3361  0.1944
22478W        W39326  16.014   6.871  13.811  0.2489  0.2323  0.0484
22479W        W39327  14.628   6.276  11.235 -0.0074  0.0009 -0.1069
22480W        W39328  17.695  14.099   0.436 -0.0104  0.3417  0.5385
22481W        W39329   5.744   9.227   2.820 -0.3483  0.1078  0.2459
22482W        W39330   8.578  16.490   2.192 -0.0646 -0.0456 -0.1374
22483W        W39331   5.455   9.615  15.794 -0.1489 -0.1506  0.3176
22484W        W39332   5.707  14.067  13.475  0.1879 -0.0082 -0.2445
22485W        W39333   0.281   8.933  14.454  0.3030 -0.2641  0.0714
22486W        W39334   9.881  12.750   1.281  0.1407 -0.1552  0.0072
22487W        W39335  14.305  12.411   4.815 -0.0435  0.0921  0.3691
22488W        W39336  10.104  12.808   4.829  0.0923 -0.2124  0.1191
22489W        W39337  16.896  14.892  11.574 -0.2802  0.1138  0.3458
22490W        W39338   3.919  17.537   3.866 -0.1272 -0.1170  0.2296
22491W        W39339   3.954  11.609  11.719  0.1474 -0.0789  0.0901
22492W        W39340  11.234  12.410  12.486  0.0625 -0.3496  0.1322
22493W        W39341   4.238  17.262   4.226 -0.0505  0.4576 -0.0204
22494W        W39342   8.508  15.382   1.410  0.2093 -0.2724 -0.0787
22495W        W39343  13.078   9.084   3.065  0.2033  0.0920  0.0547
22496W        W39344  12.275  18.206  10.493 -0.3097  0.3844  0.0517
22497W        W39345   8.639   9.303  12.878 -0.1874  0.2917  0.2358
22498W        W39346  11.835   5.457   1.284  0.2538 -0.1838  0.0275
22499W        W39347   2.046   1.213   1.407 -0.0741  0.0346  0.1751
22500W        W39348  16.805  12.706  14.793  0.1240 -0.1686  0.2087
22501W        W39349   8.910  16.427   0.510  0.1405  0.1293 -0.0551
22502W        W39350  15.497  17.627  16.047  0.0093 -0.2086 -0.0442
22503W        W39351   4.606  16.314   0.080  0.1788  0.0163 -0.3450
22504W        W39352   5.689  13.702   0.545 -0.0178  0.0585 -0.2247
22505W        W39353   0.712  15.051   0.299  0.0236 -0.1646  0.1629
22506W        W39354   3.814   3.649   4.168 -0.4003 -0.1733 -0.0639
22507W        W39355  14.319   9.626  13.307  0.0395  0.1164 -0.0242
22508W        W39356  17.286  11.067   2.374  0.3290  0.3968  0.2695
22509W        W39357  14.456   8.751   0.696  0.0567 -0.1884  0.1115
22510W        W39358   0.607   1.709   0.729  0.4256 -0.1255  0.2186
22511W        W39359  12.345  16.861   4.358 -0.2185 -0.1220  0.0725
22512W        W39360   8.422   9.187   2.319 -0.0672  0.1765 -0.3491
22513W        W39361  16.458  18.084  15.176  0.1000  0.0035 -0.0059
22514W        W39362  18.179   3.677   4.517 -0.2882 -0.1123  0.0076
22515W        W39363  17.056   6.818   1.521  0.0889 -0.0500 -0.4454
22516W        W39364  17.427   1.924   0.400 -0.1358  0.1316 -0.1505
22517W        W39365   7.531  17.802   1.602  0.0094  0.1699  0.1557
22518W        W39366  18.220  15.826  13.277 -0.0958  0.1886 -0.2227
22519W        W39367  13.435  13.787  11.881  0.1814  0.1601 -0.0221
22520W        W39368   9.898  17.038   1.066 -0.0415 -0.3821  0.0623
22521W        W39369  16.027  16.417  14.218  0.2508 -0.3534 -0.2410
22522W        W39370  10.083   3.465   1.287  0.2271  0.0099  0.1083
22523W        W39371  15.157  11.286  11.286 -0.2601  0.0243 -0.4072
22524W        W39372   9.470   5.927  14.361 -0.0591 -0.1801  0.3048
22525W        W39373   6.251   0.902  11.204  0.3256  0.0739  0.0413
22526W        W39374  10.900   2.065   2.428 -0.1415  0.1821  0.2984
22527W        W39375   2.487   7.584   2.433 -0.0560 -0.0287 -0.2127
22528W        W39376   2.831  11.274  11.019  0.1861 -0.2821  0.0104
22529W        W39377   4.743  14.859  11.000 -0.1642 -0.0885 -0.0702
22530W        W39378  15.567   8.104   3.186 -0.1047  0.0858  0.2284
22531W        W39379   1.111  12.753  12.479 -0.1221 -0.0884  0.0306
22532W        W39380   1.747  11.811  13.959 -0.2408 -0.3866  0.0438
22533W        W39381   1.556   2.041   2.436 -0.1109  0.0316 -0.1155
22534W        W39382   0.657  14.658   2.203 -0.1968 -0.0153  0.0586
22535W        W39383  12.419   2.457  14.814  0.2986  0.1051  0.1153
22536W        W39384   0.561  17.097   3.908  0.0465  0.2826 -0.2546
22537W        W39385  12.447  17.424   1.154  0.0976  0.0450 -0.1434
22538W        W39386  15.682  11.591   0.976 -0.1864 -0.2316 -0.3534
22539W        W39387   2.032  17.515  13.726  0.2333 -0.1737  0.0491
22540W        W39388  16.385   9.548   3.278 -0.0815  0.0979  0.0321
22541W        W39389   4.850  11.061   2.156 -0.1889  0.0058 -0.1862
22542W        W39390  14.994  17.060  11.337  0.1405 -0.0802  0.5159
22543W        W39391  17.747   1.239   3.349 -0.2338  0.0656  0.2680
22544W        W39392   2.010   0.886  12.516 -0.2457  0.2744 -0.1455
22545W        W39393  12.287   6.250  11.623  0.4458 -0.1457 -0.0319
22546W        W39394   4.093   8.514   2.397 -0.0354 -0.0092 -0.1064
22547W        W39395   8.821   5.666   2.498  0.0654  0.0834  0.0747
22548W        W39396  15.392   7.700  11.218  0.0973 -0.0143  0.1528
22549W        W39397  14.613   3.218  14.493  0.2071 -0.0566  0.1889
22550W        W39398   8.713  12.376  16.076  0.1390 -0.0723  0.0941
22551W        W39399   9.678  11.416   4.052 -0.0520  0.0930 -0.2753
22552W        W39400   4.136  12.805   2.309 -0.4479  0.2431 -0.2551
22553W        W39401   4.959   8.074  11.169  0.2873  0.1502 -0.1257
22554W        W39402   5.996   6.079   2.174 -0.2580 -0.2196 -0.0947
22555W        W39403  17.093  15.652  15.509 -0.4310 -0.0176  0.1894
22556W        W39404   5.825   9.326   5.100 -0.0545 -0.2164 -0.1678
22557W        W39405  15.913   6.385  15.036  0.3776 -0.2257 -0.0856
22558W        W39406  13.872   9.850   1.660 -0.0990 -0.0514 -0.0775
22559W        W39407  12.348  11.619  14.240  0.1786  0.4056  0.2231
22560W        W39408  14.455   9.357  13.853 -0.0432 -0.4107 -0.1710
22561W        W39409   1.056   9.714  15.423  0.0639 -0.0348 -0.0643
22562W        W39410  14.320  16.161   2.966 -0.0030  0.1760  0.0230
22563W        W39411  13.866  14.741  16.078 -0.0260  0.1717 -0.1066
22564W        W39412  10.421  13.340  14.647 -0.1016  0.1610  0.0356
22565W        W39413  12.809   6.013   1.197 -0.0230 -0.1160 -0.0672
22566W        W39414  14.911  11.763   0.241 -0.3326  0.1073  0.3028
22567W        W39415  12.991  13.542  11.914  0.0942  0.3377  0.2756
22568W        W39416   8.449   5.871  15.456 -0.1119 -0.3617  0.1962
22569W        W39417  11.576  11.447  11.775 -0.0113 -0.2788  0.1431
22570W        W39418  14.000   7.509  15.667  0.2873  0.1018  0.2913
22571W        W39419  15.928   8.647  14.150 -0.0474  0.0436  0.1835
22572W        W39420  17.231   8.488  15.381  0.1716  0.0349  0.0800
22573W        W39421  13.863  12.550   3.869  0.1907  0.1737 -0.2288
22574W        W39422   3.048   8.576   3.449  0.4580  0.3359  0.1329
22575W        W39423   4.897   0.764  11.313 -0.0028  0.0964 -0.1554
22576W        W39424   6.583   4.867  12.103 -0.3349  0.0694  0.2815
22577W        W39425  11.954  16.575   4.606  0.0848  0.2554 -0.0997
22578W        W39426   1.031   2.294  12.643 -0.3122 -0.0756 -0.1247
22579W        W39427  17.279  16.658  13.057  0.1466  0.0367  0.0277
22580W        W39428   7.303   1.014   2.337 -0.0633 -0.0883  0.0105
22581W        W39429  10.310   7.063  14.874 -0.1223  0.0160 -0.1871
22582W        W39430   5.587  11.373   0.020  0.0657  0.2852  0.0410
22583W        W39431  10.292   6.405  13.555 -0.1068  0.0496  0.0388
22584W        W39432  13.794   2.756  11.879 -0.0106  0.4875 -0.0333
22585W        W39433   4.459  13.192   4.742 -0.1365  0.0256 -0.1223
22586W        W39434   3.887  15.769   3.140 -0.5049 -0.0572 -0.2286
22587W        W39435   1.594   9.961  12.488  0.2503  0.0303 -0.0731
22588W        W39436   5.655   5.271  14.515  0.0475  0.1443 -0.2480
22589W        W39437   7.405   2.183   4.016 -0.3986 -0.2310 -0.2250
22590W        W39438  13.765   3.597   3.970  0.0315  0.1579  0.0611
22591W        W39439   6.214  12.118  11.281  0.0159  0.2511 -0.2055
22592W        W39440  13.741   6.674   3.514  0.3190  0.4510  0.0338
22593W        W39441  16.468  14.429   0.102 -0.2213 -0.1042 -0.0680
22594W        W39442  11.437   3.300   3.028  0.2644  0.1176  0.0263
22595W        W39443   9.034   0.190  14.245 -0.0613 -0.0748 -0.3398
22596W        W39444   7.980   2.593  14.521 -0.3868  0.1504  0.1114
22597W        W39445   9.389  17.711  15.489 -0.1735 -0.0514  0.1618
22598W        W39446   8.641  12.441   4.931 -0.0829 -0.4298  0.1057
22599W        W39447  13.209  18.048  12.600  0.0828  0.2532 -0.2941
22600W        W39448   7.759   7.166   2.686  0.1320 -0.1562 -0.0517
22601W        W39449  11.695  10.479   0.579  0.0117 -0.0145  0.0875
22602W        W39450   6.486   8.104  12.854  0.2992  0.0739  0.1160
22603W        W39451   6.087   0.607  10.267  0.0000 -0.2390 -0.0732
22604W        W39452   0.236   5.042  10.597 -0.0778  0.2830  0.1412
22605W        W39453  13.255   9.108  13.932 -0.1625 -0.0953 -0.1891
22606W        W39454  10.087   9.306  14.793 -0.1784 -0.0318 -0.0578
22607W        W39455  12.995   9.046   0.756  0.0962  0.0652  0.0611
22608W        W39456   9.998   5.223   1.761 -0.0151 -0.3943  0.2008
22609W        W39457   6.995   2.994   5.055  0.1622 -0.0330 -0.0015
22610W        W39458  14.259   9.315  11.100  0.2251  0.2405  0.3315
22611W        W39459   0.930  10.475  13.091 -0.0549 -0.0885  0.2524
22612W        W39460   0.772  11.206  11.643 -0.0622 -0.1844 -0.2291
22613W        W39461   9.460  15.441  15.945  0.3030 -0.0027  0.0020
22614W        W39462   5.137   6.259   3.237 -0.1530  0.0042 -0.0396
22615W        W39463   3.805  15.349  13.279  0.0650 -0.0974 -0.1097
22616W        W39464  18.077   6.957   0.908  0.0008 -0.2796 -0.0589
22617W        W39465  15.058  13.001   3.321 -0.1000  0.0276 -0.1202
22618W        W39466   5.596   1.383   3.064  0.0838  0.1483  0.0449
22619W        W39467  16.718   7.469   2.815  0.1473 -0.1592 -0.1998
22620W        W39468   1.956   7.557  14.393 -0.2015  0.0189  0.1565
22621W        W39469   1.820   3.581   2.996  0.3513  0.2531  0.0757
22622W        W39470  12.931  15.454   4.381  0.4125  0.0304  0.1918
22623W        W39471  14.482   3.157   3.749  0.2111 -0.3316 -0.1324
22624W        W39472  15.909  10.573   4.462  0.1094  0.0387  0.1682
22625W        W39473   8.444   9.882  15.575  0.0646  0.0639 -0.0374
22626W        W39474   5.447   5.799  14.316 -0.0381  0.2530 -0.1307
22627W        W39475   5.473  17.248   4.227 -0.0459  0.0930  0.3590
22628W        W39476   4.263   5.647  14.697 -0.1015  0.1828  0.2533
22629W        W39477  16.598   7.723  14.007  0.2115  0.3933 -0.2751
22630W        W39478   7.693  12.562  11.448  0.1550  0.0455  0.0716
22631W        W39479   0.187   2.143  11.617  0.0469 -0.1978 -0.0278
22632W        W39480   4.371  14.308  12.452 -0.0345  0.1774 -0.2794
22633W        W39481   6.523  14.505   0.468  0.0481 -0.1016 -0.2014
22634W        W39482   6.469  17.488   2.654  0.0073  0.0206  0.1454
22635W        W39483  17.281   3.122  12.672 -0.2887 -0.1096  0.3506
22636W        W39484   7.587  14.982  12.489 -0.0942  0.0417  0.3787
22637W        W39485   8.779  11.967  13.635 -0.0448  0.2001  0.0897
22638W        W39486   7.151  12.687  15.102 -0.1870 -0.1309 -0.1202
22639W        W39487  15.967   8.468  16.066 -0.1813 -0.1428 -0.1247
22640W        W39488   0.499   1.608  11.381  0.1147 -0.1232  0.4423
22641W        W39489   8.592  16.048   3.016 -0.1359 -0.3963 -0.0124
22642W        W39490   3.549   6.002   1.339 -0.4985 -0.2473  0.0282
22643W        W39491   0.337  10.446  14.572 -0.0851 -0.2095 -0.2998
22644W        W39492   1.547   1.904   3.511  0.0308 -0.1841 -0.1660
22645W        W39493   5.975  11.248  13.082  0.0054  0.0830 -0.0843
22646W        W39494  10.263   8.682  11.288  0.0419 -0.2553  0.1986
22647W        W39495  13.236  15.791  12.535  0.2129 -0.0911 -0.3202
22648W        W39496  11.074   5.310  13.595  0.0124 -0.1816  0.1787
22649W        W39497   7.521  11.837   4.476 -0.4100 -0.0689 -0.2035
22650W        W39498  13.349   8.214   1.345 -0.4782  0.1414 -0.0105
22651W        W39499   9.804  12.897  13.666 -0.3882 -0.1712  0.2846
22652W        W39500  18.019   7.871   1.253  0.2712  0.2087  0.3720
22653W        W39501  12.657   9.234  15.165  0.1833  0.3897  0.1779
22654W        W39502  11.642   1.135   1.830  0.2482  0.0774  0.0318
22655W        W39503  11.270  16.919  13.969  0.1938  0.0521 -0.0073
22656W        W39504  11.368   5.631  14.703  0.2231 -0.0837 -0.0413
22657W        W39505   6.641  15.605   2.418  0.0427  0.1432 -0.1056
22658W        W39506   8.498   8.838  15.002 -0.0096 -0.1600  0.1118
22659W        W39507  17.169  14.015   0.262  0.0194 -0.0081 -0.2580
22660W        W39508  11.931   4.757   2.353  0.0865 -0.2521  0.3691
22661W        W39509   8.130   5.119  13.543  0.1123  0.0183  0.1526
22662W        W39510   5.431  16.961  14.607  0.2949  0.3337 -0.0325
22663W        W39511  15.415   9.294   4.425  0.2255 -0.1200  0.2045
22664W        W39512   2.381   9.158  14.028 -0.0876  0.0534 -0.0254
22665W        W39513  14.152  12.329  11.504 -0.2391  0.0891  0.0601
22666W        W39514   2.228  10.345   5.536  0.2287 -0.2796  0.3738
22667W        W39515  15.504  10.687   2.652  0.1085  0.1944  0.2656
22668W        W39516  12.707  14.038  16.089 -0.2031 -0.0204  0.1566
22669W        W39517   5.946   3.112  11.596 -0.0789 -0.1670  0.0463
22670W        W39518   7.521   1.885   1.020  0.1180 -0.1206 -0.1303
22671W        W39519  12.973   8.561   0.826 -0.1613 -0.2296 -0.2066
22672W        W39520  12.232   9.301  14.862  0.2557  0.1005  0.0783
22673W        W39521  11.876   7.113   0.465  0.0764 -0.1080  0.2827
22674W        W39522  15.020  10.150   2.900 -0.2534  0.1637 -0.0594
22675W        W39523   5.682   3.898  11.818 -0.1421 -0.0065 -0.2146
22676W        W39524  13.407  10.685  11.496  0.1206 -0.5788  0.1696
22677W        W39525  15.411  11.705   5.266  0.1660  0.2495 -0.0183
22678W        W39526   3.662   5.975   3.639 -0.4630  0.1291  0.2715
22679W        W39527   1.137  12.193  15.380  0.0803 -0.2573 -0.1524
22680W        W39528  16.022  16.965  13.472 -0.0992 -0.0086 -0.0274
22681W        W39529  10.449   4.200   0.869 -0.2033 -0.0195 -0.3728
22682W        W39530   3.002   9.788  11.903 -0.2988 -0.3184  0.0014
22683W        W39531   1.300  10.729  11.811  0.3180  0.0550 -0.0865
22684W        W39532   7.303   0.415   2.172  0.0122  0.0281 -0.0303
22685W        W39533   5.833  12.909  11.579  0.0432 -0.0193 -0.2688
22686W        W39534  17.952   9.374  12.338  0.1249 -0.0908 -0.1931
22687W        W39535   9.902   1.857   3.456  0.1576 -0.1010  0.0982
22688W        W39536  13.225  17.367  14.015  0.0652 -0.1653 -0.4780
22689W        W39537  18.005  10.420  14.464 -0.1339  0.0044 -0.1972
22690W        W39538  13.000  12.505   3.367  0.3670 -0.2916 -0.1658
22691W        W39539   4.579  15.237  14.179  0.0593 -0.2320  0.0393
22692W        W39540   7.483   0.117  16.059  0.1868 -0.1840 -0.2333
22693W        W39541   0.751   4.384  11.585 -0.1010  0.2228  0.1359
22694W        W39542   4.783  17.842  11.457  0.0961 -0.0979 -0.0465
22695W        W39543   4.767  15.016   4.032  0.2166  0.2109 -0.1369
22696W        W39544   8.205   2.205   2.709  0.1365 -0.1188  0.1857
22697W        W39545  13.100   9.473   1.626  0.0140  0.0437  0.1997
22698W        W39546   7.358  15.184  13.996  0.0595 -0.0533 -0.2874
22699W        W39547   5.201   1.021   3.131 -0.0540 -0.2739  0.0804
22700W        W39548  16.833   5.259   4.019  0.0782  0.5044  0.0312
22701W        W39549   0.669   6.378   1.712  0.1643 -0.1599  0.1973
22702W        W39550   6.977  12.735   3.791  0.2310  0.0049  0.0476
22703W        W39551  10.019  13.465   4.986  0.1033 -0.1326  0.1509
22704W        W39552   1.134   4.349   0.141 -0.0698 -0.0837  0.2421
22705W        W39553  17.109   6.561   4.807 -0.0187 -0.1993  0.1549
22706W        W39554   2.907  14.441   0.817  0.2352  0.1496 -0.2945
22707W        W39555  13.805   4.599  11.173 -0.2062  0.2220  0.0839
22708W        W39556  10.174  17.452   4.009  0.1399  0.1052 -0.1048
22709W        W39557   0.218   2.976   0.513  0.0713  0.0273 -0.2602
22710W        W39558  12.673   6.545  14.302  0.2525 -0.2319 -0.1940
22711W        W39559   8.158  13.913   2.623  0.1516 -0.0176  0.1546
22712W        W39560  15.438   8.524  14.723  0.4224 -0.1057 -0.2353
22713W        W39561  12.785  11.946   0.314 -0.1394  0.3036 -0.0174
22714W        W39562   3.141   3.250   2.511  0.0112 -0.2474 -0.0174
22715W        W39563   5.717  10.910  13.462 -0.0021 -0.0383  0.0709
22716W        W39564  12.055  17.175  11.530  0.0110  0.3776 -0.1799
22717W        W39565  13.152  11.370  13.163  0.2943 -0.0386  0.0809
22718W        W39566   4.659  13.126   3.797 -0.4107  0.1360  0.0946
22719W        W39567   3.442  13.427  16.117 -0.2720  0.1575 -0.3079
22720W        W39568  12.536   3.504  11.025  0.0145 -0.1251  0.1629
22721W        W39569  15.582   8.313  12.266 -0.0348  0.1055 -0.2735
22722W        W39570  17.430   0.226  11.024  0.0181  0.0038  0.2397
22723W        W39571  10.802   7.090  13.178  0.1423 -0.0967 -0.3595
22724W        W39572   7.269   2.449   3.612  0.0891  0.0301  0.0214
22725W        W39573  15.527   3.794  11.854  0.3498  0.1155 -0.2952
22726W        W39574   7.016  14.882   1.789 -0.1073 -0.0908 -0.2226
22727W        W39575   4.600   5.500  11.077 -0.0585 -0.2358 -0.3339
22728W        W39576  15.017   3.635   3.845 -0.0350 -0.1239 -0.1031
22729W        W39577  15.267   8.320   0.650  0.0815 -0.1793 -0.2786
22730W        W39578  13.568  15.225  14.130  0.0536  0.0139 -0.3390
22731W        W39579   5.039   3.836   4.192  0.1677  0.1162  0.0920
22732W        W39580   7.861   6.211   0.225 -0.2693 -0.1519 -0.0506
22733W        W39581  13.511   7.360   4.574  0.2261  0.0551 -0.0054
22734W        W39582   5.088  11.545  16.022 -0.1044 -0.0062 -0.1139
22735W        W39583  12.032   0.082  14.377 -0.2500  0.0996 -0.0300
22736W        W39584  15.607  14.437  13.105 -0.2605 -0.0957  0.1642
22737W        W39585   9.168  15.945   4.560 -0.2394  0.0339 -0.3495
22738W        W39586  14.506   1.113  13.655  0.3276 -0.0829 -0.1217
22739W        W39587  17.771  11.178  11.097  0.1345 -0.1647  0.1584
22740W        W39588   3.383   4.634   4.382 -0.0406  0.1981  0.0046
22741W        W39589  16.462   0.841  11.765  0.2751  0.0287  0.0301
22742W        W39590   5.102   7.640  10.968  0.2750 -0.3086 -0.1040
22743W        W39591   1.942  12.975  16.091 -0.1166  0.0514  0.2742
22744W        W39592  13.806   4.181  14.854 -0.1618  0.1401  0.3799
22745W        W39593   7.389   2.248  15.383  0.4184 -0.0198  0.0430
22746W        W39594  18.185  14.363  11.884 -0.5134  0.1291 -0.2055
22747W        W39595  10.376  16.440   2.367  0.0091  0.0713  0.1201
22748W        W39596   0.088   0.441  12.182 -0.0867 -0.0507 -0.1864
22749W        W39597  13.972   7.696  14.680  0.1329 -0.1636 -0.3254
22750W        W39598   8.518  14.677   0.843 -0.0514  0.1947  0.0519
22751W        W39599  11.422   1.973  10.872  0.0767 -0.0835 -0.0172
22752W        W39600   6.620  13.856  13.752 -0.0212 -0.0559  0.3816
22753W        W39601  11.263   8.141   3.455  0.0126  0.0332 -0.0774
22754W        W39602   3.916   0.291  14.767 -0.2392 -0.0651 -0.1060
22755W        W39603   1.013   7.158  14.508  0.0722  0.2254  0.2659
22756W        W39604   2.618  12.777  14.363  0.0655 -0.2000  0.1935
22757W        W39605   6.633   6.233   3.335  0.0326 -0.2121  0.2294
22758W        W39606   4.652   1.758  10.994 -0.0465 -0.2167 -0.3162
22759W        W39607  13.209  10.406   0.281 -0.1416  0.4703  0.0776
22760W        W39608   0.502  16.929  14.154  0.3074  0.0997  0.0215
22761W        W39609   9.397  10.265   1.387  0.0510  0.0879  0.0126
22762W        W39610  16.266   4.464   0.796 -0.1457  0.0654  0.1232
22763W        W39611   1.149   0.868   3.442 -0.1508  0.0183  0.1396
22764W        W39612   8.438  13.805  14.756  0.1149  0.0638  0.0406
22765W        W39613  12.930   1.741  14.597 -0.1467 -0.0620 -0.1805
22766W        W39614   1.456   9.565   4.523  0.0159  0.0490  0.1494
22767W        W39615  16.907  12.401  13.686  0.2238 -0.1897  0.1740
22768W        W39616  11.031  17.767   1.336  0.0162  0.2191  0.1104
22769W        W39617  12.136   1.153  14.995 -0.0565  0.1232 -0.1642
22770W        W39618   9.087  16.021   3.056 -0.2363 -0.2201  0.1481
22771W        W39619   1.076   8.376  12.009  0.0389  0.1065 -0.1167
22772W        W39620   2.854  10.450   4.882 -0.0437  0.2847  0.4206
22773W        W39621   8.736  14.864  13.781 -0.2535 -0.0478  0.1684
22774W        W39622   9.785   7.412  16.124 -0.2471  0.2378 -0.1996
22775W        W39623   3.986   8.598  14.725  0.2782  0.0326  0.1296
22776W        W39624   3.030   0.920  14.444 -0.1344 -0.0592  0.1238
22777W        W39625   3.042  10.508  14.352 -0.0183  0.2647  0.0844
22778W        W39626   3.947   4.705  11.829  0.3495  0.1552  0.0205
22779W        W39627  14.811  15.131   3.419 -0.1265 -0.0855  0.2095
22780W        W39628  12.215   4.537   4.866 -0.1441  0.2549 -0.1381
22781W        W39629   8.875  12.525   1.502  0.1079 -0.1729  0.1439
22782W        W39630   7.905  16.346   5.435 -0.0231  0.0800  0.2002
22783W        W39631  11.838   7.440  14.742  0.2082  0.2396  0.2514
22784W        W39632  13.367   7.413  13.253  0.1588  0.2477  0.1643
22785W        W39633   8.058   8.316  11.931  0.1024 -0.1986 -0.0750
22786W        W39634   7.145   6.919   3.286 -0.0914  0.1869  0.0315
22787W        W39635   6.460  16.134  13.264  0.1671  0.1700 -0.0647
22788W        W39636   3.124  14.743   4.664 -0.0410 -0.1924  0.0647
22789W        W39637  17.580   8.580  13.316  0.0974 -0.2718  0.0839
22790W        W39638  16.204   2.275   2.075  0.1861 -0.2767  0.2996
22791W        W39639   1.604  10.417  14.774  0.0312  0.0071  0.2701
22792W        W39640  11.592   4.916   5.669  0.0238  0.1078  0.0141
22793W        W39641  16.273  12.605  11.897 -0.0196  0.1494 -0.2307
22794W        W39642  15.735   5.440  15.273 -0.1968  0.0612  0.0403
22795W        W39643  15.517   0.334  15.790  0.0200 -0.2429  0.3461
22796W        W39644   9.661  14.787   1.468 -0.2293  0.2439 -0.3488
22797W        W39645  11.144   4.199   2.778  0.0695 -0.2084  0.0083
22798W        W39646   2.054  15.693  14.765  0.0819  0.3868  0.1302
22799W        W39647  17.923  16.544  14.971  0.1750  0.2049 -0.2186
22800W        W39648  14.116   4.791  14.790  0.4967  0.0714  0.2721
22801W        W39649   4.304  14.149  11.989 -0.0146  0.2367 -0.1003
22802W        W39650  14.118   9.274   4.254  0.1798 -0.1847 -0.1186
22803W        W39651   3.254   0.747   3.646  0.0460  0.3442  0.3194
22804W        W39652  16.799  16.781   0.300  0.0839 -0.1522  0.1849
22805W        W39653  14.229   6.515   2.110 -0.1569  0.3260 -0.2600
22806W        W39654   5.604   2.157   3.353  0.1026  0.2043  0.0827
22807W        W39655   7.650  15.657   5.083 -0.2018  0.2709  0.1987
22808W        W39656   3.109  14.287  15.262 -0.1319 -0.0349  0.0434
22809W        W39657  10.474  14.501  13.181 -0.1700 -0.1002  0.2712
22810W        W39658   1.602   5.880   0.765 -0.1368 -0.1390 -0.1124
22811W        W39659  12.104   0.941  14.547  0.1808  0.0580 -0.0911
22812W        W39660   4.145   6.567   1.377  0.2297  0.1071  0.2064
22813W        W39661   9.722   8.129  15.682 -0.0593  0.2725 -0.1229
22814W        W39662   3.452   0.491   3.322 -0.0934 -0.0749  0.0992
22815W        W39663   2.540   4.659  13.329 -0.0737 -0.1207 -0.1439
22816W        W39664  14.994   8.962  11.871 -0.1396 -0.2287 -0.1172
22817W        W39665   7.682   6.965   0.133  0.0335 -0.0014 -0.0492
22818W        W39666  15.342   7.054   2.620  0.3790 -0.2788  0.1655
22819W        W39667  11.771   9.862  15.321  0.1596  0.1937  0.1906
22820W        W39668   8.832   3.803  13.189 -0.0990  0.3524 -0.1703
22821W        W39669   9.731   3.445  14.540  0.0081 -0.0240 -0.0332
22822W        W39670   2.785   3.467  14.132  0.0528 -0.0379 -0.1647
22823W        W39671   8.009  11.183   0.047  0.1563 -0.1030 -0.0247
22824W        W39672   9.961   8.777   1.650 -0.5863 -0.0841 -0.3294
22825W        W39673   1.740   8.825  14.102  0.1020  0.0770  0.0353
22826W        W39674   3.950  17.344   0.547 -0.1364 -0.0891  0.2269
22827W        W39675   7.335  15.681   3.687 -0.0941  0.0229 -0.2884
22828W        W39676   2.458   4.017  15.766 -0.1863  0.2677 -0.3768
22829W        W39677   1.462  10.034  13.789 -0.2390 -0.2964 -0.2047
22830W        W39678   0.774   3.383  13.590 -0.0062  0.0600  0.2919
22831W        W39679   9.030   5.203   1.448  0.1049  0.0172  0.1641
22832W        W39680   3.663  14.881  11.530 -0.0797  0.2629 -0.0225
22833W        W39681   6.005  17.844   2.602  0.1028  0.1455 -0.2143
22834W        W39682   2.074   7.977  12.212 -0.4040 -0.2421  0.0914
22835W        W39683  14.487  13.852  12.953  0.0235  0.0649  0.1393
22836W        W39684   0.896   5.205   4.486 -0.3825 -0.0714 -0.0066
22837W        W39685   6.208  17.315  11.505 -0.1340 -0.2497 -0.1586
22838W        W39686  11.496   0.976  16.105  0.3802 -0.1470  0.1031
22839W        W39687   9.746   3.869   0.207 -0.0754  0.0656 -0.0040
22840W        W39688  12.478  13.396  13.273  0.0729  0.2257 -0.2032
22841W        W39689  13.099   4.304   0.892 -0.0418  0.0223 -0.2809
22842W        W39690   9.502  11.760   3.750  0.3763 -0.0129  0.0908
22843W        W39691  12.661  15.827   4.712 -0.2691  0.2878  0.2067
22844W        W39692  13.307  11.384   3.853 -0.5113  0.0078 -0.1144
22845W        W39693   3.589  13.918  15.047  0.1094 -0.1565  0.0737
22846W        W39694   9.154  16.980   0.522  0.2744  0.1388  0.0096
22847W        W39695   1.340  11.440  16.033 -0.2793 -0.0662  0.1801
22848W        W39696  15.683   8.160   2.616  0.0261 -0.1339 -0.2984
22849W        W39697  11.346   2.573  11.344 -0.0323  0.0211  0.1186
22850W        W39698   8.415   7.442  11.737  0.1531 -0.1477 -0.1896
22851W        W39699  16.053   8.300  11.498  0.0862 -0.0865  0.0863
22852W        W39700   9.405  17.631   3.286 -0.4087 -0.3162 -0.0705
22853W        W39701  13.065   2.422  12.519  0.0834 -0.0400  0.0061
22854W        W39702  15.407  12.436  15.046  0.2198  0.1291  0.1765
22855W        W39703  12.252   5.148  11.280  0.1323  0.4064 -0.3392
22856W        W39704   4.089  13.861  13.187  0.3149 -0.1684  0.2009
22857W        W39705   7.047   8.607   3.159  0.0457  0.2817 -0.1761
22858W        W39706   0.988   1.487  16.001  0.2876 -0.2605  0.3566
22859W        W39707   2.978  18.061  15.903 -0.4418  0.2138 -0.0956
22860W        W39708  16.870   7.569   5.492  0.0898 -0.1792 -0.0990
22861W        W39709  14.768  11.405  11.702 -0.0831 -0.3038  0.0129
22862W        W39710   7.935   9.337  15.645  0.2304 -0.2276 -0.2259
22863W        W39711   1.582   8.010   0.130  0.0562 -0.0624  0.1649
22864W        W39712   1.792   5.434   4.743 -0.1484 -0.0897  0.0100
22865W        W39713   6.086  10.658   2.931  0.0900  0.2992 -0.0556
22866W        W39714   8.950   0.106   3.001  0.1171  0.0043  0.3049
22867W        W39715   9.977  16.959   0.316 -0.1348  0.2227 -0.1962
22868W        W39716   3.459   3.108   1.607  0.1982 -0.1606  0.1248
22869W        W39717  11.058  15.514  14.914 -0.1699  0.1159 -0.2229
22870W        W39718   8.535  15.045   2.142 -0.0211  0.1072  0.1272
22871W        W39719  17.901   4.338   2.220  0.3327 -0.0460 -0.0144
22872W        W39720  10.484  17.269   3.653  0.4597  0.3197 -0.1124
22873W        W39721  11.095  16.476  15.257 -0.1045 -0.1030 -0.0174
22874W        W39722   9.103  12.424   4.981  0.1668  0.1921 -0.1103
22875W        W39723   1.943  11.441  13.527  0.4283 -0.3520  0.2820
22876W        W39724   0.519  10.917   2.824  0.0188  0.1578 -0.0095
22877W        W39725   4.304  11.747  13.990  0.2798  0.1961  0.2680
22878W        W39726  16.199   7.447   3.060 -0.2168 -0.0524  0.2067
22879W        W39727  17.870  18.130  15.524 -0.2427 -0.3001  0.1311
22880W        W39728   7.220  16.022  12.336  0.0482  0.3087  0.1491
22881W        W39729   9.488   1.662   3.337 -0.1681  0.0316  0.0817
22882W        W39730   4.667   5.428   1.983  0.1133 -0.1105 -0.2569
22883W        W39731  16.542   1.767   0.144 -0.3001 -0.0185  0.4244
22884W        W39732  16.314   0.713  14.896 -0.2395 -0.1257 -0.2372
22885W        W39733   4.790   2.855  10.790  0.0627  0.1327 -0.2608
22886W        W39734   8.912  11.655  14.142 -0.2493 -0.1693  0.3101
22887W        W39735  10.639  12.047   1.911 -0.0075  0.0422 -0.0077
22888W        W39736   9.114   5.567  14.804 -0.0258 -0.0744 -0.3522
22889W        W39737   8.478  15.954  12.841 -0.0563 -0.1848  0.0062
22890W        W39738   1.527  13.016  15.728 -0.1913  0.0214 -0.0888
22891W        W39739  11.114  10.073   3.357  0.1958 -0.2128 -0.3472
22892W        W39740   9.791  14.936  15.756  0.2464 -0.2889 -0.0962
22893W        W39741   1.194   1.318  10.969  0.0932  0.1473 -0.3292
22894W        W39742  11.015   4.686   2.921  0.1118 -0.1050  0.2146
22895W        W39743  11.211  13.135  13.714 -0.1716 -0.0509  0.2315
22896W        W39744  17.309   4.072  15.575  0.2296  0.1621  0.1262
22897W        W39745  10.325  16.783   5.220  0.0904  0.2296 -0.0352
22898W        W39746   5.949  11.940   1.522  0.1389 -0.2988  0.2406
22899W        W39747   3.347   8.831   3.747  0.0497 -0.0793  0.3729
22900W        W39748  15.619   6.780  11.419  0.0764 -0.0273  0.4680
22901W        W39749  14.465   6.433  15.001 -0.0025 -0.1403 -0.1664
22902W        W39750   2.433  10.598  13.765 -0.2974 -0.0838 -0.1747
22903W        W39751  12.931  14.643   1.492  0.1881 -0.0479  0.3728
22904W        W39752   8.468  14.105   3.665  0.0397 -0.2091  0.0653
22905W        W39753  11.800  13.139  11.340  0.2099  0.1112  0.5272
22906W        W39754  17.397   5.928   2.441  0.0124 -0.0666 -0.2088
22907W        W39755   9.961   0.192  15.894  0.2749 -0.1010  0.0009
22908W        W39756   3.221   8.862  12.575  0.2354 -0.1913  0.0767
22909W        W39757   1.597  11.618  11.553  0.4170  0.1594 -0.2209
22910W        W39758   5.272  15.941   4.822  0.1114  0.2349  0.0229
22911W        W39759   5.263  16.856   1.741 -0.0589 -0.0194 -0.0421
22912W        W39760  16.781   3.535   3.851  0.0154  0.3805 -0.1610
22913W        W39761   3.971  13.900  11.216 -0.1436  0.0671 -0.0843
22914W        W39762  17.334   1.649  12.664  0.4399  0.1694  0.0958
22915W        W39763   6.240  11.658  12.796 -0.2924  0.1075 -0.1515
22916W        W39764  15.052   3.495   2.767  0.3013  0.1137 -0.0095
22917W        W39765  17.714   9.825   3.832 -0.0527 -0.2041 -0.2628
22918W        W39766   5.471   3.177   2.833 -0.0311 -0.0806 -0.2127
22919W        W39767   8.618   9.359  13.835  0.2127  0.2321  0.2624
22920W        W39768  18.015  17.609  11.486 -0.0326 -0.0308 -0.0865
22921W        W39769  12.806  14.827  13.004  0.1432 -0.1279  0.1491
22922W        W39770   6.566  17.081   3.018  0.2256  0.1206  0.3081
22923W        W39771  13.580   9.199   2.892 -0.0522 -0.0846 -0.0191
22924W        W39772  11.246  12.636   0.956 -0.0238 -0.2166 -0.3318
22925W        W39773  14.975   8.962  12.374 -0.0516  0.4598  0.1768
22926W        W39774   5.667  14.293   0.442 -0.1596  0.0693 -0.2180
22927W        W39775   5.238   8.482   3.452 -0.1251  0.0655 -0.1020
22928W        W39776  18.138  17.369  13.713 -0.0101 -0.0317  0.3265
22929W        W39777   9.375  16.297   0.167 -0.2559 -0.2180 -0.0645
22930W        W39778   3.278   0.408   0.327 -0.0003 -0.0419  0.0402
22931W        W39779   9.287   3.609   3.057  0.0296  0.2768  0.1041
22932W        W39780   2.647  16.077  15.003  0.4283  0.0483  0.0234
22933W        W39781  16.073  12.098   5.863 -0.1680  0.1264  0.3812
22934W        W39782   5.442  13.656   4.147  0.1300 -0.0639 -0.3199
22935W        W39783  10.686   6.055   4.398 -0.1914  0.0674 -0.1853
22936W        W39784  14.864  14.808  15.870  0.2761 -0.2149  0.1541
22937W        W39785   1.883  10.025   1.010  0.1485 -0.0808 -0.1810
22938W        W39786  16.861   8.589   5.353 -0.1207 -0.1148 -0.0953
22939W        W39787  10.900  12.581   2.751  0.0300  0.2087  0.1448
22940W        W39788   4.797   7.534  10.456 -0.0544  0.2246 -0.1445
22941W        W39789   6.538   9.346  15.422  0.2397  0.3500 -0.0730
22942W        W39790   3.078   1.669   4.643 -0.0801  0.0771 -0.0564
22943W        W39791  16.130  16.523  11.691 -0.0674  0.0607 -0.1386
22944W        W39792  10.958   2.848   5.814 -0.3367 -0.3059  0.1096
22945W        W39793   1.316   4.167  10.682  0.0299  0.1915  0.0027
22946W        W39794   5.126   7.338   4.755 -0.4256  0.0201 -0.2663
22947W        W39795  11.258  11.768   1.454  0.1251 -0.1651 -0.1485
22948W        W39796   2.501  15.376  14.976  0.0719 -0.2194 -0.2679
22949W        W39797   6.469   3.434  13.385  0.2570 -0.0275 -0.2621
22950W        W39798   2.835  10.236  11.180 -0.2638 -0.0716 -0.0961
22951W        W39799   2.707   9.343  12.182  0.1874 -0.0904 -0.0696
22952W        W39800  10.205   3.851   2.572  0.0662  0.1592  0.1364
22953W        W39801   1.576   8.578   1.904  0.0205  0.1799 -0.0679
22954W        W39802  16.963  14.299  12.318 -0.0390  0.0178  0.0161
22955W        W39803  15.122   7.183   3.947 -0.0949  0.2890 -0.0588
22956W        W39804  13.729  17.979   1.402 -0.2380  0.0214  0.0307
22957W        W39805   4.653  13.942  13.775  0.1336 -0.3179  0.1087
22958W        W39806   4.034   0.524   3.225 -0.1436  0.1996  0.1860
22959W        W39807  17.406   7.947   3.908  0.2255  0.1280  0.2479
22960W        W39808  14.269   9.641   3.137 -0.2266 -0.0661  0.3871
22961W        W39809  17.119  13.245  13.102  0.1516 -0.1990 -0.2314
22962W        W39810  10.539  13.469  14.024 -0.2978 -0.0482  0.0869
22963W        W39811  10.283  11.990   1.564  0.1684 -0.1271 -0.2427
22964W        W39812   1.004  14.339   2.028  0.1480 -0.3363  0.1489
22965W        W39813  14.126   7.647   3.376 -0.0829  0.2891  0.1299
22966W        W39814  17.494  14.315   3.462 -0.2075  0.0472  0.2458
22967W        W39815   0.776  13.718  10.414  0.2582 -0.0234 -0.1544
22968W        W39816   0.486   5.396   5.589  0.2696  0.5367 -0.0613
22969W        W39817   5.969   1.031   3.635  0.0768  0.1947 -0.1455
22970W        W39818   2.837  12.229   1.232  0.2339 -0.0550  0.0818
22971W        W39819   8.453   5.850   1.002  0.2836  0.1177 -0.2031
22972W        W39820   6.568  16.000  14.725  0.0936 -0.4501 -0.0947
22973W        W39821   6.402   1.659   3.181  0.0788 -0.2282  0.1228
22974W        W39822   0.372  10.323   3.760 -0.1375  0.0941 -0.0966
22975W        W39823   6.069  17.234   5.074  0.1005 -0.0909  0.1481
22976W        W39824   2.627   7.460  11.815  0.0600  0.0989 -0.0292
22977W        W39825   6.730  10.483   2.953 -0.0761 -0.1466 -0.0767
22978W        W39826   8.827  13.555   3.998  0.1685 -0.1404  0.0296
22979W        W39827   6.277  12.011  13.246 -0.0762  0.1739  0.0383
22980W        W39828   1.648  10.610  13.796  0.0490 -0.0392 -0.1939
22981W        W39829   4.380   1.851  13.496  0.2883  0.0692 -0.1753
22982W        W39830   1.343   5.718   4.002 -0.3336  0.0316  0.1329
22983W        W39831  14.266   0.632  14.294 -0.3300 -0.1531  0.1047
22984W        W39832   3.889  10.243   1.546  0.4042 -0.1340  0.2946
22985W        W39833  17.364  12.960  14.884  0.2559  0.3898  0.0248
22986W        W39834   0.000   2.185   0.245  0.1680  0.0640  0.1213
22987W        W39835  17.042  13.773   0.867  0.2418 -0.3424 -0.0463
22988W        W39836  17.226   9.961  13.251 -0.1625  0.0434  0.1436
22989W        W39837  16.338   5.541  12.001  0.1429  0.1632  0.0339
22990W        W39838  13.184   6.570   1.308 -0.0207  0.0458  0.0788
22991W        W39839   2.840   8.440  15.492 -0.0635 -0.0676 -0.4456
22992W        W39840  17.942   5.553  12.519  0.2155 -0.0597  0.1868
22993W        W39841  10.355   1.725  14.475  0.2591  0.0239 -0.0313
22994W        W39842  16.192   0.514   0.337  0.1589 -0.1317  0.0353
22995W        W39843   2.008  10.963  11.624 -0.2683  0.2975 -0.0058
22996W        W39844   3.381   4.129   2.609 -0.0429 -0.1855 -0.1968
22997W        W39845   0.021  12.758   3.307  0.1710  0.4766  0.3219
22998W        W39846  14.586  14.406  15.552 -0.0201 -0.1589  0.0155
22999W        W39847   3.712   7.543  13.822 -0.2268 -0.1750  0.0449
23000W        W39848  11.323   0.363   4.993 -0.1488 -0.1398  0.3484
23001W        W39849   7.517  17.234   3.425 -0.1522 -0.3103 -0.0589
23002W        W39850  12.579  12.254  11.514  0.0650 -0.1156  0.1298
23003W        W39851  15.329   0.532  10.430  0.4158  0.0146  0.4038
23004W        W39852  10.522   7.190  15.370  0.3749 -0.3784  0.1437
23005W        W39853   4.699   8.891   1.875 -0.0606 -0.2595 -0.1441
23006W        W39854   2.635  17.747   5.902  0.0446 -0.0348 -0.0226
23007W        W39855  18.056  12.661  12.022 -0.2262 -0.1376  0.1488
23008W        W39856  12.390   9.436  16.002  0.0912 -0.0216  0.1286
23009W        W39857   3.244   0.992   1.591  0.3358  0.1903  0.1740
23010W        W39858   5.833  17.660   1.155 -0.0684  0.0917 -0.3670
23011W        W39859   1.868  15.803   2.422  0.4605 -0.2582  0.0381
23012W        W39860   4.136  11.239  12.029  0.0250 -0.1861 -0.2042
23013W        W39861   2.020  16.656  13.392  0.0125  0.1139 -0.2775
23014W        W39862   2.631  12.564  13.375  0.2031  0.2526 -0.2464
23015W        W39863  13.625   8.235   3.064  0.1326 -0.1618 -0.0819
23016W        W39864  17.831   4.815   1.826 -0.1068  0.2003 -0.3182
23017W        W39865   9.417  10.979  16.049 -0.1004 -0.0384  0.2074
23018W        W39866  14.955   0.156  12.645  0.0220 -0.0328 -0.3374
23019W        W39867  17.655  12.506  12.339 -0.0072  0.0778 -0.3639
23020W        W39868  17.516  15.098   0.289  0.0958  0.2185 -0.2089
23021W        W39869  12.185   4.305   4.355 -0.1852  0.1340  0.0277
23022W        W39870  15.483  13.308   2.287 -0.1031  0.1985  0.0972
23023W        W39871  11.008  12.833   1.497  0.1557 -0.0888 -0.1067
23024W        W39872   5.021  15.432   4.204 -0.1116 -0.1851 -0.1620
23025W        W39873   8.515   8.341  12.135  0.1586 -0.2549 -0.2204
23026W        W39874  16.614  16.004   3.858  0.4119  0.1664 -0.0714
23027W        W39875   0.863  11.886   1.626 -0.3869  0.0104 -0.2044
23028W        W39876  17.138  12.804  13.340  0.0371 -0.1434  0.2204
23029W        W39877   9.074   4.392  13.818 -0.2965 -0.0118  0.0674
23030W        W39878   6.988   4.934  13.841  0.2709  0.1970  0.2958
23031W        W39879   6.233   9.585   2.215  0.0252 -0.3605 -0.1692
23032W        W39880  17.823   4.900  15.278 -0.0204  0.4311 -0.0876
23033W        W39881  12.290  17.295  14.121  0.2090  0.1012  0.2384
23034W        W39882   5.982  15.539  11.305  0.1666  0.0196  0.0974
23035W        W39883   9.064   3.839   0.611  0.0304 -0.4894  0.0583
23036W        W39884   1.921  13.787  11.902 -0.0086  0.1714  0.0667
23037W        W39885  17.016  16.789  14.165  0.1597  0.1590  0.0209
23038W        W39886  12.476   0.960  15.321 -0.5110 -0.1686  0.0632
23039W        W39887   4.545  16.905   2.356  0.1297 -0.0303 -0.0780
23040W        W39888  17.625   8.620   4.657  0.0388 -0.2078 -0.1535
23041W        W39889  17.517   5.682  12.238 -0.0474 -0.3366  0.0929
23042W        W39890   0.123  12.346  13.398 -0.0214 -0.2449 -0.2033
23043W        W39891   6.337  17.169  12.001 -0.0543 -0.2069 -0.0317
23044W        W39892  12.305  13.588  11.968  0.0492  0.0299  0.0576
23045W        W39893  16.378  12.012  12.541  0.3018 -0.2034 -0.3275
23046W        W39894  11.789   4.060   1.134 -0.4507 -0.1062  0.0180
23047W        W39895  15.123  11.513   0.916  0.1057  0.4246  0.0373
23048W        W39896  10.337   3.818  11.335  0.0439 -0.0690  0.0809
23049W        W39897   6.898  13.208   3.376 -0.1558 -0.2873  0.2234
23050W        W39898   6.052   0.678   1.736 -0.2003 -0.3269 -0.0270
23051W        W39899   7.331   8.227  15.750 -0.0875 -0.1747  0.2939
23052W        W39900  10.639  16.055   4.727 -0.0631  0.1751 -0.1854
23053W        W39901   4.710  13.310  15.033 -0.0242 -0.2291  0.2335
23054W        W39902  11.205  10.784   4.516 -0.6056 -0.2619 -0.0240
23055W        W39903   4.474  12.433  13.217 -0.3605  0.0037 -0.0005
23056W        W39904   6.275   5.644   4.619  0.5026  0.1580  0.2330
23057W        W39905   2.476  15.164   0.190  0.0298  0.0137 -0.1918
23058W        W39906   8.031   4.737  13.852  0.1585  0.0260 -0.1667
23059W        W39907   6.256   9.615  14.982  0.1155  0.3170  0.1741
23060W        W39908   7.037  11.121   1.365  0.0829  0.1239 -0.3579
23061W        W39909  10.554   3.215  12.447  0.0757 -0.3370 -0.0420
23062W        W39910   0.460  15.631   1.610  0.4479  0.2089 -0.1748
23063W        W39911   0.662   6.400  12.517  0.1496  0.1101 -0.1690
23064W        W39912   2.430   2.158   2.948 -0.2134  0.0707  0.1689
23065W        W39913   5.205   6.470  10.603 -0.3092  0.0331 -0.0257
23066W        W39914  12.731   0.536   4.715  0.1594  0.0179 -0.0229
23067W        W39915  10.317  15.449   3.611  0.0651 -0.0795  0.0506
23068W        W39916   0.939   0.034   1.655  0.0703 -0.1208 -0.1954
23069W        W39917  18.044   6.022  12.613 -0.1451  0.2010 -0.2600
23070W        W39918   3.063   7.814   5.365 -0.0402 -0.0044 -0.1327
23071W        W39919  12.163   2.409   1.633  0.2632 -0.0128  0.0237
23072W        W39920  11.228   6.610   1.578 -0.1249 -0.0644 -0.1017
23073W        W39921   0.192  13.482  14.534  0.1629  0.0826 -0.0072
23074W        W39922   6.376  12.818   6.044  0.2267 -0.0790  0.4269
23075W        W39923  16.765  15.738  13.982  0.0073 -0.4128  0.4762
23076W        W39924   2.971   1.261   1.079 -0.0658  0.0603  0.2122
23077W        W39925  18.186  12.627  10.219  0.0306  0.1119 -0.0078
23078W        W39926  18.132   8.624   3.665  0.3787 -0.1483  0.0438
23079W        W39927  12.018   0.755  15.300 -0.2926  0.0248 -0.1153
23080W        W39928   6.541  17.707  12.423 -0.0960 -0.0669 -0.2864
23081W        W39929  13.543  16.918   4.084 -0.2623 -0.3036  0.2733
23082W        W39930   0.193  16.655  14.953 -0.1974 -0.2042  0.0896
23083W        W39931  11.736  17.005   1.585  0.0376  0.0953  0.1181
23084W        W39932  16.416   6.296   4.804 -0.3158  0.0466 -0.1853
23085W        W39933   1.434   0.425   1.056 -0.0998 -0.0834 -0.2370
23086W        W39934  15.545  10.658  13.393  0.0556 -0.1370  0.0810
23087W        W39935   7.192  10.560  13.400  0.0351  0.1405 -0.0199
23088W        W39936  14.192   2.662  13.862  0.2870 -0.1303  0.0624
23089W        W39937   0.457   7.684  13.237  0.0665  0.0924 -0.4072
23090W        W39938  14.475  17.892   3.239 -0.0380  0.2560 -0.1065
23091W        W39939  11.323   1.167  12.993  0.1093 -0.1371  0.2925
23092W        W39940   0.665   8.465   3.239 -0.1177  0.0429  0.2221
23093W        W39941   4.459   8.561  13.342  0.2256 -0.0400 -0.1201
23094W        W39942   1.218   1.076  15.805 -0.1800 -0.0613 -0.2439
23095W        W39943   0.138   4.813  13.861  0.1094 -0.1704 -0.0046
23096W        W39944   4.719   1.246  14.793 -0.0184  0.1073 -0.1007
23097W        W39945   4.659   4.044   0.310 -0.0048 -0.1068 -0.2000
23098W        W39946   1.198   1.130  12.603  0.0280 -0.2684 -0.0961
23099W        W39947   2.645   4.515   1.026  0.0943  0.1188  0.1898
23100W        W39948  15.824   0.022  15.513  0.1688  0.0807 -0.0179
23101W        W39949   8.063   1.097  12.039 -0.0302 -0.2605 -0.0440
23102W        W39950   5.740  11.580  12.725  0.0285  0.2376 -0.0043
23103W        W39951  13.448  14.789  11.605 -0.1076  0.1707  0.2079
23104W        W39952  13.424   7.937   3.809  0.1394 -0.0222 -0.1251
23105W        W39953   8.288   7.980   2.746  0.1419 -0.2790 -0.0904
23106W        W39954  13.175   9.162   4.409  0.0467  0.3424  0.1398
23107W        W39955  15.497   9.827   4.521 -0.4054 -0.3316  0.1670
23108W        W39956   2.206   7.086   4.659  0.2067 -0.0999  0.2735
23109W        W39957   4.778   4.856  11.710 -0.0778  0.1449  0.0831
23110W        W39958  17.313  18.184  14.181  0.0818 -0.1307  0.0643
23111W        W39959   5.603   8.477   2.973  0.2513  0.3464 -0.2380
23112W        W39960  10.019   4.735   5.346  0.1530  0.2321  0.0888
23113W        W39961   8.412  12.293  13.739 -0.0507 -0.0408 -0.0077
23114W        W39962  13.814   4.265  15.369 -0.3127 -0.0488  0.1282
23115W        W39963  16.263   4.796   3.317  0.0991  0.0989 -0.0354
23116W        W39964   7.788   2.215   1.301 -0.4770 -0.0709 -0.0610
23117W        W39965  11.309  17.629  16.016  0.2418  0.0348 -0.1005
23118W        W39966  10.138   0.019  10.232  0.0694 -0.1291 -0.1173
23119W        W39967  16.712   9.677  15.956 -0.0719 -0.1408 -0.3336
23120W        W39968  14.081   4.585   1.899 -0.1648 -0.1132 -0.5174
23121W        W39969   9.630  14.585  12.109  0.0066 -0.0698 -0.0034
23122W        W39970   9.055  15.228  12.962  0.0398 -0.1476 -0.2546
23123W        W39971   3.246   6.069  14.273  0.2191  0.1620 -0.1158
23124W        W39972  10.728   1.141  15.099 -0.0658  0.3676  0.0746
23125W        W39973   5.026   8.804   2.364  0.0363 -0.0825  0.0648
23126W        W39974  13.359  15.312   4.185 -0.0581  0.1418 -0.1372
23127W        W39975   4.508  17.798  15.132  0.1479  0.2034 -0.1605
23128W        W39976  15.070   7.248   4.513 -0.2744  0.0293  0.3835
23129W        W39977  14.144   5.766  11.869  0.1381  0.2841 -0.1397
23130W        W39978  14.753   4.800  10.708 -0.2121 -0.4013  0.0225
23131W        W39979  14.583  12.078  13.837 -0.0241 -0.3266  0.0646
23132W        W39980  14.672  10.813   4.433  0.2581 -0.0190  0.2047
23133W        W39981   3.344  18.088   1.652 -0.1383  0.0315 -0.2176
23134W        W39982  15.393   2.554  12.243 -0.0373  0.2590  0.0816
23135W        W39983   2.995  13.955   1.264 -0.4624 -0.0334 -0.0376
23136W        W39984   1.579  13.374  12.508 -0.1533 -0.0915  0.1298
23137W        W39985   1.557  15.525   0.266 -0.3561  0.0679 -0.1080
23138W        W39986  16.113  15.277   1.889  0.3594 -0.0685 -0.1140
23139W        W39987  10.362   0.596  10.129  0.1213 -0.1755  0.0387
23140W        W39988   7.123  17.787  12.167 -0.0482 -0.1301 -0.1269
23141W        W39989  11.538   1.705   0.614 -0.0838 -0.2089 -0.3345
23142W        W39990  12.442  15.189  12.943  0.1484 -0.1621  0.1263
23143W        W39991  14.790   2.078   0.992  0.1396  0.0262  0.0820
23144W        W39992  11.813  17.023  15.353  0.0491 -0.3663  0.0937
23145W        W39993  14.793   5.197  10.434  0.0715  0.0790 -0.4474
23146W        W39994   9.917   0.625  12.357 -0.1797 -0.0981 -0.0619
23147W        W39995  11.184   0.309  13.418  0.0164 -0.0646 -0.3319
23148W        W39996   4.694  13.118  13.565  0.3316 -0.0604 -0.1727
23149W        W39997  11.360  12.223   3.125  0.0247  0.0500 -0.0620
23150W        W39998  10.224   3.148   2.286  0.3059 -0.1289  0.1190
23151W        W39999   8.165   5.310   1.780  0.1453 -0.1494  0.2577
23152W        W40000  11.398   5.719   4.320  0.1369  0.1386  0.4351
23153W        W40001   3.705   2.955   3.306 -0.2406  0.1445 -0.2742
23154W        W40002   7.823   8.936   0.423  0.0119 -0.0346 -0.0067
23155W        W40003   9.600  11.445  13.612 -0.2151  0.4254 -0.1030
23156W        W40004  15.306   2.374   0.180 -0.2220 -0.0876 -0.2237
23157W        W40005  12.473   6.923  12.236 -0.0476  0.1796 -0.0891
23158W        W40006  15.735   5.512  10.240  0.2625 -0.3198 -0.0159
23159W        W40007   3.380   1.082   3.252  0.1679 -0.0630  0.1899
23160W        W40008  13.251  17.916   2.137  0.0410 -0.0644 -0.2492
23161W        W40009   2.502  16.161  15.483  0.1042  0.0663 -0.0208
23162W        W40010   0.325   1.579  13.977 -0.4016 -0.1659 -0.1283
23163W        W40011   3.147   0.916  13.946 -0.0818  0.0516  0.1163
23164W        W40012   3.451  12.739   2.536  0.2066  0.0169 -0.1571
23165W        W40013  12.437   1.326   2.574 -0.0236 -0.1203 -0.2012
23166W        W40014   1.257   6.038   0.455  0.1684  0.0241 -0.2121
23167W        W40015   4.897   0.823   4.737  0.1665 -0.0545  0.1382
23168W        W40016   8.036  12.691   1.006 -0.0369  0.1262  0.0078
23169W        W40017   5.772  16.682  15.672 -0.2037  0.1265  0.0002
23170W        W40018   1.412   8.270   2.275  0.0922 -0.0307 -0.0315
23171W        W40019   2.186  12.792   2.229  0.0171 -0.0849  0.0321
23172W        W40020  12.458  12.791   4.305  0.1417 -0.2896  0.0889
23173W        W40021   1.420   8.996   2.266  0.3799  0.2072  0.0666
23174W        W40022  17.767   4.467   5.070  0.1477  0.0162 -0.2133
23175W        W40023  10.866  11.651   0.512 -0.1721 -0.2344 -0.0013
23176W        W40024   3.169   5.395  11.593  0.4251 -0.1470  0.0118
23177W        W40025   1.978  16.962   4.413 -0.2292  0.1970  0.0117
23178W        W40026   6.906  12.697   4.635 -0.0620 -0.2017  0.0687
23179W        W40027  12.740   6.412   4.818  0.0130  0.0474 -0.0806
23180W        W40028   9.445   3.346  11.631 -0.1884  0.0404 -0.1589
23181W        W40029   7.348  15.710   4.599  0.0101  0.1460 -0.1103
23182W        W40030   0.826   0.408   2.363 -0.0188 -0.0758  0.1491
23183W        W40031   7.009  11.724   3.204  0.1694 -0.3644 -0.3121
23184W        W40032  16.935   3.279   4.855  0.1320 -0.0063  0.1070
23185W        W40033   2.880  13.267   2.721  0.1895  0.1356 -0.0243
23186W        W40034   2.763  10.765  11.017 -0.0274 -0.1976  0.0208
23187W        W40035   8.724  14.272  15.624  0.0508 -0.2374 -0.0564
23188W        W40036   0.559   0.465  12.956  0.1869  0.1307  0.2287
23189W        W40037   8.082   9.910   4.796 -0.0220  0.0103  0.5037
23190W        W40038  17.254  14.444   4.931 -0.0352 -0.0473 -0.0847
23191W        W40039   5.997   7.212  13.820  0.1135 -0.1430 -0.1838
23192W        W40040   9.413  11.750   1.175  0.1653  0.3435 -0.3097
23193W        W40041  15.783  16.323  15.428 -0.2669  0.0725 -0.1507
23194W        W40042   3.434  14.449  11.364  0.0789  0.2452  0.0103
23195W        W40043   7.858   5.937   1.241 -0.3343  0.0326  0.0023
23196W        W40044   5.340  10.521  14.323  0.3217 -0.3336 -0.2401
23197W        W40045   6.484   1.851   0.500  0.1259  0.0314 -0.0357
23198W        W40046  14.209  10.531   4.496  0.2494  0.2279  0.1421
23199W        W40047   4.474   7.480  13.174 -0.0930 -0.2950  0.1936
23200W        W40048  12.565  14.428  12.032  0.1382 -0.2107 -0.0872
23201W        W40049   1.876   0.271   2.130 -0.1625  0.3715 -0.1475
23202W        W40050  15.103  18.093   5.305  0.3533 -0.0040 -0.0468
23203W        W40051   3.344   5.693  12.357 -0.0790 -0.2099 -0.2240
23204W        W40052  17.256  12.377   0.200  0.2489  0.1003  0.1431
23205W        W40053   7.699   9.238   1.285  0.0422  0.0067  0.3029
23206W        W40054   3.147   6.381  11.964 -0.0523  0.0574 -0.4427
23207W        W40055   7.594   1.198  15.165 -0.0777 -0.2461  0.1166
23208W        W40056   3.128   4.560  11.702 -0.2133  0.0665 -0.0076
23209W        W40057  10.364   8.573   3.770 -0.1041 -0.2005 -0.3742
23210W        W40058  18.200   7.586   1.740 -0.0994 -0.0409 -0.3685
23211W        W40059   8.544  10.511   4.300 -0.0730 -0.0982  0.3393
23212W        W40060  16.029   3.831   1.280 -0.1677 -0.1509 -0.3229
23213W        W40061  17.897   1.387  11.097 -0.2534 -0.0607  0.0388
23214W        W40062   4.298   5.060  11.910 -0.1860  0.0973  0.0731
23215W        W40063  13.846  15.473   3.437  0.1387 -0.0218 -0.1808
23216W        W40064   8.465  15.080   5.338 -0.0230  0.1168  0.1036
23217W        W40065  15.301   7.066   3.156  0.4807  0.0987 -0.1532
23218W        W40066   5.545   9.827   0.157  0.1392  0.3645  0.0224
23219W        W40067   4.650   0.905   1.774 -0.2600 -0.3681 -0.2128
23220W        W40068   5.727  13.180   2.930 -0.0557  0.0048 -0.0058
23221W        W40069   6.712   8.891  15.240  0.0106 -0.2469  0.1877
23222W        W40070   9.474  17.127   3.395 -0.0110 -0.2405 -0.1377
23223W        W40071  11.420  12.728   3.597  0.0010  0.2178 -0.2390
23224W        W40072  14.988  17.273  12.647  0.1549  0.1282 -0.1110
23225W        W40073   4.711  16.483  12.018 -0.3216 -0.2325  0.2056
23226W        W40074   7.236   2.183   1.529  0.1306  0.1263  0.1580
23227W        W40075   9.410   8.093  12.687  0.1011  0.2797  0.1195
23228W        W40076   5.285  10.054  13.471 -0.0200 -0.0819  0.0560
23229W        W40077   0.035  12.006   2.363  0.1963  0.0075  0.2772
23230W        W40078  11.677  13.559   5.353  0.2891  0.0126 -0.0544
23231W        W40079   4.729   3.434   0.832  0.1924 -0.1246 -0.0519
23232W        W40080   5.943  12.154   3.720 -0.4026 -0.1138  0.1987
23233W        W40081   9.134   4.736  15.342 -0.3016 -0.1827 -0.0662
23234W        W40082  13.866   5.888   4.707 -0.4117 -0.1735  0.2655
23235W        W40083   9.799  14.814  14.348  0.1105  0.3970  0.1878
23236W        W40084   6.862   7.513   1.090  0.1662  0.0322 -0.1372
23237W        W40085  15.752   3.245   1.210  0.0957  0.0157 -0.0390
23238W        W40086   4.596  15.528  13.205 -0.0061 -0.0440  0.2227
23239W        W40087   1.588  10.480   1.136 -0.3692 -0.0519 -0.0864
23240W        W40088   1.175   8.320  16.085  0.0669 -0.0055 -0.1892
23241W        W40089   0.134  12.379  15.700  0.2078  0.2244 -0.0624
23242W        W40090   3.358  15.655  14.669 -0.0744  0.1150 -0.1990
23243W        W40091  15.420  14.344   1.043  0.0069 -0.0689 -0.0602
23244W        W40092   0.615  17.165  12.106  0.4155  0.1991  0.0313
23245W        W40093   2.206   2.012  12.499 -0.4587 -0.1744  0.0119
23246W        W40094  16.869  11.534  13.693 -0.1417 -0.1406 -0.0054
23247W        W40095   2.460   9.901   0.631  0.5545  0.1022 -0.0876
23248W        W40096  16.335   3.434   1.294 -0.1145  0.0316  0.2639
23249W        W40097  14.849   4.547  11.100 -0.0622 -0.0199 -0.2103
23250W        W40098   0.210  17.104  14.557  0.0962  0.1462  0.0989
23251W        W40099   6.360  15.121   3.478 -0.0878 -0.1533  0.0617
23252W        W40100   0.455   8.573   2.738 -0.0804 -0.0487  0.0444
23253W        W40101   4.213  15.682  11.351 -0.1169 -0.0660  0.2514
23254W        W40102   7.957  13.608   4.129  0.1011  0.0202  0.2394
23255W        W40103   1.868   7.472  12.838 -0.0714  0.0356 -0.2157
23256W        W40104  14.037  12.693   3.293 -0.0865 -0.0693  0.0159
23257W        W40105   9.364  10.594  12.231  0.0526  0.2029  0.1708
23258W        W40106  13.301   4.668   1.219  0.0785  0.3021 -0.1078
23259W        W40107   1.864   6.710  11.333  0.2795 -0.0084 -0.1550
23260W        W40108  17.548  12.610   3.111  0.3127  0.0298 -0.0500
23261W        W40109  11.348  10.999  12.602 -0.1157 -0.0919  0.0455
23262W        W40110   0.326   8.068   5.989  0.0662  0.1331  0.0424
23263W        W40111  10.809  16.934   5.279 -0.1766  0.0661 -0.4309
23264W        W40112   8.688   7.490  12.908 -0.1375  0.2554  0.1785
23265W        W40113  15.551   3.464  12.598  0.0707 -0.1080  0.1158
23266W        W40114  11.255   4.157   0.052  0.5561  0.0364  0.1444
23267W        W40115  16.891   0.262  12.621  0.0792  0.0005  0.1419
23268W        W40116  10.067   5.194   0.379  0.0422  0.1121  0.1828
23269W        W40117  10.059   4.086  13.943  0.3700  0.1615  0.0072
23270W        W40118   6.573  15.605  10.527  0.2548 -0.0524 -0.1169
23271W        W40119  11.193   1.334  15.812  0.0297 -0.1190  0.0757
23272W        W40120   0.422  10.341   0.365 -0.0445 -0.0510  0.3908
23273W        W40121  12.214  16.919  11.035  0.0747  0.1554  0.1041
23274W        W40122  12.892  12.755  12.988  0.3247 -0.0226 -0.2155
23275W        W40123  15.346   6.157   1.741  0.1852 -0.0838  0.1740
23276W        W40124   3.694   5.602   5.341 -0.0073 -0.0136 -0.0955
23277W        W40125   7.305   5.301  12.033  0.1821 -0.0540  0.0391
23278W        W40126  13.023   5.628  14.441 -0.0848 -0.2396  0.1172
23279W        W40127   6.921  17.750  13.413  0.0444 -0.1155 -0.3049
23280W        W40128   8.216  13.613  13.500  0.2516  0.0269  0.0636
23281W        W40129   6.780   4.695  12.771 -0.3137  0.0249  0.3434
23282W        W40130  17.174  11.316   1.120 -0.1900  0.3231  0.1371
23283W        W40131  15.451   2.988  11.202  0.0055  0.0128  0.2031
23284W        W40132   1.633   6.804  12.208  0.1228  0.3372 -0.1390
23285W        W40133  15.107   4.699  11.654  0.2141 -0.1070 -0.0071
23286W        W40134  13.112  10.970   0.884 -0.1934 -0.0001 -0.1507
23287W        W40135   7.784  13.654  13.899  0.1501  0.0092  0.0372
23288W        W40136   1.152   6.112   3.038  0.0307 -0.1491 -0.2445
23289W        W40137  13.600   5.619   2.689  0.0682  0.1521  0.2142
23290W        W40138  11.405   3.986  10.211 -0.3794 -0.3996 -0.2520
23291W        W40139  11.371  17.314   1.761  0.1100 -0.2903 -0.1135
23292W        W40140  10.888   8.956   1.341 -0.0543  0.1834 -0.1599
23293W        W40141  14.704   8.187   2.345  0.1134 -0.0253  0.1297
23294W        W40142  16.849  15.549   3.717 -0.1533  0.2338  0.0776
23295W        W40143   6.601   6.635   2.003 -0.3487 -0.0839  0.1409
23296W        W40144   5.562  17.087  15.904 -0.1601 -0.1707  0.2310
23297W        W40145   3.226   6.929   0.680 -0.2400 -0.1009 -0.2482
23298W        W40146   7.668  17.129  10.195 -0.0029 -0.0016 -0.0193
23299W        W40147   5.408   1.344  12.408  0.2284 -0.1512  0.1151
23300W        W40148   6.291  17.980  14.041  0.3635 -0.2609 -0.0966
23301W        W40149   4.118   2.522   5.028  0.2888 -0.0268 -0.0512
23302W        W40150  14.172   7.660  10.917  0.1940 -0.2509 -0.1341
23303W        W40151   6.040   5.837  12.080 -0.0334  0.0659 -0.1322
23304W        W40152   5.808   8.822  13.286 -0.2478 -0.0135  0.0480
23305W        W40153  17.290   0.761  15.959 -0.1230 -0.1630 -0.0944
23306W        W40154   0.923   3.442   0.687  0.0336  0.1648  0.2313
23307W        W40155   5.690   0.071  13.073  0.0389 -0.1719  0.4138
23308W        W40156  14.510   0.563  10.491 -0.1893 -0.2304 -0.1093
23309W        W40157   5.497  14.732   0.425 -0.3406  0.0312 -0.3748
23310W        W40158   8.361   2.328  14.261 -0.1096  0.1289  0.1700
23311W        W40159   4.377   8.190   1.790  0.2150  0.2428 -0.5180
23312W        W40160  15.923   9.279   0.099 -0.0224 -0.0085  0.3235
23313W        W40161  15.680   2.525  14.167 -0.0626  0.0537 -0.2935
23314W        W40162  15.157  12.714   1.602  0.2152  0.1969  0.2127
23315W        W40163   7.156   0.293  12.777 -0.1753 -0.2828 -0.3533
23316W        W40164  16.105   7.180   5.911  0.0561  0.7339  0.2500
23317W        W40165  13.014   5.047   3.575  0.1289  0.0912 -0.4351
23318W        W40166   6.097  17.533  12.463 -0.0201  0.2082 -0.1090
23319W        W40167   9.865   4.742  13.563  0.1520  0.1531  0.0647
23320W        W40168   2.007  15.634   1.214  0.2348 -0.2480 -0.0198
23321W        W40169  14.202  10.584   0.870  0.1738 -0.2379 -0.0610
23322W        W40170  10.385   3.662   2.119  0.0402  0.0258  0.3007
23323W        W40171  15.264   7.023  15.226 -0.1643  0.0980 -0.1449
23324W        W40172   0.664  15.591   4.297 -0.0221 -0.0874 -0.0288
23325W        W40173   9.492  14.803  11.698 -0.0632  0.0974 -0.0476
23326W        W40174   6.128   3.328  15.127  0.1034  0.1955  0.1041
23327W        W40175  11.690  14.268  14.606 -0.2121 -0.0960  0.2941
23328W        W40176   8.401   8.416   4.351  0.1931  0.3047  0.1867
23329W        W40177   9.653  15.041   5.707  0.2567  0.0598 -0.1055
23330W        W40178   1.187  17.930   2.594 -0.0761 -0.0038  0.3020
23331W        W40179   1.744  11.748   2.195 -0.2022  0.0438 -0.2235
23332W        W40180  13.445  16.042   3.462  0.0179 -0.0512 -0.1476
23333W        W40181  12.838  13.606   5.823  0.1556  0.0553 -0.1495
23334W        W40182   1.149  14.484  14.435 -0.0865  0.0813 -0.1927
23335W        W40183   7.368   3.679  12.613 -0.1788  0.1540 -0.0270
23336W        W40184   2.932   0.631  11.780  0.0829  0.1762  0.1596
23337W        W40185   3.172  17.874  11.628  0.0300  0.3562  0.0523
23338W        W40186   7.939  15.287   2.674  0.0051  0.2280 -0.2529
23339W        W40187  12.385   2.108  13.943 -0.1551 -0.0020  0.0498
23340W        W40188   5.387  11.616  13.971 -0.4056 -0.1617 -0.1675
23341W        W40189   5.621  14.073  10.344 -0.2492  0.2101  0.1924
23342W        W40190   0.818  15.126   2.212  0.0472  0.2756  0.1284
23343W        W40191  10.660   4.956  15.357 -0.0799 -0.1794  0.3505
23344W        W40192   9.520   8.450   3.528  0.3024  0.1470  0.0691
23345W        W40193   9.288  13.528  12.715  0.4070  0.0167  0.1803
23346W        W40194   7.945   5.511  14.386  0.1584 -0.0265 -0.3332
23347W        W40195   3.565   7.873   3.843  0.0078  0.0774  0.2304
23348W        W40196  13.812   1.419   3.710 -0.2376  0.2240 -0.1031
23349W        W40197   5.926  13.456   4.129 -0.1249  0.2690 -0.1103
23350W        W40198  14.041  13.415   3.915  0.0193 -0.0237 -0.1269
23351W        W40199   2.342   5.144  12.254  0.2788 -0.0512 -0.0068
23352W        W40200  10.435  14.828   2.531 -0.4562 -0.0051  0.3159
23353W        W40201  12.173  18.062   5.011  0.2724 -0.2658 -0.0406
23354W        W40202   2.510  14.632  15.661  0.2669 -0.1476  0.1292
23355W        W40203   3.903   8.930   1.500  0.0052  0.0518  0.0091
23356W        W40204  10.751   2.697  13.754 -0.1501  0.1834  0.1836
23357W        W40205   8.029   4.945  10.446 -0.0974  0.0301 -0.2669
23358W        W40206   7.254   7.890  13.441 -0.0175  0.0162  0.0989
23359W        W40207   6.922  13.741   3.827  0.1807  0.1998 -0.0693
23360W        W40208  11.728  15.978   3.743  0.0221 -0.1038  0.1440
23361W        W40209   2.999  10.403   2.471 -0.1812  0.0864  0.3591
23362W        W40210   2.025   0.968   4.403  0.1532 -0.3879  0.1023
23363W        W40211  10.166   3.173   4.319  0.1016  0.1335  0.2306
23364W        W40212  13.684   3.279  11.954 -0.2815 -0.0895 -0.2824
23365W        W40213  10.390  11.198  14.378 -0.0397  0.1314  0.2749
23366W        W40214  11.164   2.095  14.676 -0.2578  0.3137  0.0487
23367W        W40215   2.440   8.582   0.199  0.0025 -0.0433 -0.0512
23368W        W40216   2.500   6.748  14.420  0.0323  0.0675 -0.1881
23369W        W40217  12.951  10.540   1.219 -0.0492 -0.2677  0.0024
23370W        W40218   7.183  11.517   0.969  0.0933 -0.0595  0.1143
23371W        W40219  16.723   3.053   2.944  0.0779  0.1443 -0.3836
23372W        W40220   2.919  12.043   0.192  0.0643 -0.0170  0.0544
23373W        W40221   4.086  11.384   1.745 -0.1709 -0.2136  0.0432
23374W        W40222   8.018   3.904   0.093  0.0459  0.5818 -0.1916
23375W        W40223   8.160  18.012   2.498 -0.2292 -0.0522  0.2285
23376W        W40224  10.818   7.708   5.313  0.1290  0.3165 -0.0853
23377W        W40225   9.263   5.613   2.246 -0.3008 -0.1465  0.0566
23378W        W40226  13.183   6.481   3.665  0.0219  0.0310  0.0615
23379W        W40227  18.149   0.271   2.871 -0.0005  0.0688 -0.2074
23380W        W40228  11.825   1.407   0.894 -0.0858  0.2739 -0.1555
23381W        W40229  18.209  17.314   4.241  0.2695  0.2008 -0.0766
23382W        W40230   3.866   0.919   4.986 -0.1721  0.3874 -0.1317
23383W        W40231   8.059   5.498   1.300  0.0512  0.1740 -0.2677
23384W        W40232   0.274  17.109  10.724  0.1611  0.0543  0.1092
23385W        W40233   3.261  10.972  10.738  0.4975 -0.3372 -0.4490
23386W        W40234  12.699   7.972  15.817 -0.0309 -0.0844  0.0569
23387W        W40235   8.391   5.679   0.491 -0.0332  0.3271  0.2722
23388W        W40236   9.154   9.136  12.060  0.1560  0.4214  0.0565
23389W        W40237  17.547   7.067  15.741  0.0979 -0.2849 -0.0410
23390W        W40238   1.877  14.975   3.512  0.0635 -0.1131  0.0471
23391W        W40239  16.077   4.245  15.348 -0.1420 -0.2517  0.0506
23392W        W40240  16.914  14.707  14.887  0.1565 -0.0889  0.3922
23393W        W40241   9.375  18.086  15.017  0.5140  0.1578  0.0527
23394W        W40242   2.333  17.644  15.271 -0.1991 -0.3639 -0.4186
23395W        W40243  18.005  11.628  11.054  0.1551  0.1345  0.0981
23396W        W40244   9.385  16.166   4.151 -0.0252  0.1948 -0.0480
23397W        W40245  13.847   9.586  13.582  0.1260 -0.1440 -0.1037
23398W        W40246   5.295   3.012   3.241  0.1385 -0.2405  0.0279
23399W        W40247   1.149  16.496   2.715  0.0832 -0.1254  0.1212
23400W        W40248  16.293  11.528  12.050  0.2478 -0.0519 -0.0857
23401W        W40249   4.136   0.324   1.809  0.2472 -0.4088 -0.0320
23402W        W40250  12.521  11.471   1.187 -0.2409 -0.0470  0.2060
23403W        W40251  16.794   2.746  11.546 -0.0002 -0.3312  0.3388
23404W        W40252  14.519   4.258  13.982 -0.1222  0.1270  0.1847
23405W        W40253   7.224  10.420  10.602  0.0709 -0.0859  0.0817
23406W        W40254  16.508  17.500  10.412 -0.2940 -0.0256 -0.0978
23407W        W40255   9.221  17.505   1.355  0.0827  0.0967 -0.3424
23408W        W40256   7.565   3.356  15.765 -0.2316 -0.1024 -0.2317
23409W        W40257  13.627  15.359  13.587 -0.0176  0.2629  0.0598
23410W        W40258   5.241   4.088  12.117 -0.4374  0.1257  0.0064
23411W        W40259  16.369   6.014   1.765 -0.0924 -0.0439 -0.2248
23412W        W40260   1.219  12.955  14.372  0.2972 -0.1470  0.0075
23413W        W40261   9.325  17.993   3.633 -0.2852  0.0331  0.0637
23414W        W40262  13.992  11.339  14.422 -0.0852  0.0338  0.0460
23415W        W40263   9.801   3.606  13.120 -0.1799  0.1430  0.0253
23416W        W40264   9.790   0.724   3.423 -0.0956 -0.3508  0.1111
23417W        W40265  16.338   7.906  16.117  0.3164 -0.0566  0.0776
23418W        W40266   9.682   8.905   5.130  0.1340 -0.2406  0.1613
23419W        W40267  18.118  15.993  13.992 -0.0239  0.2993  0.0257
23420W        W40268  11.673  13.077  12.793 -0.2249 -0.1255  0.2327
23421W        W40269   1.303   5.013   0.513  0.1138  0.2877  0.1620
23422W        W40270   1.210  18.137   4.118  0.0398 -0.0574 -0.1270
23423W        W40271  11.253   0.747   1.812 -0.2271  0.1383 -0.1370
23424W        W40272   5.590  11.560   3.219 -0.3347 -0.1281 -0.0680
23425W        W40273  11.750  14.503   5.439 -0.0829 -0.0953  0.2107
23426W        W40274  17.294   8.518   6.502 -0.0527  0.3843  0.0088
23427W        W40275   2.042   4.447   5.448 -0.0494 -0.3083 -0.0797
23428W        W40276   2.509  10.912  15.614 -0.2231 -0.1108  0.0557
23429W        W40277  12.091  17.920  14.041  0.1123  0.1362 -0.2910
23430W        W40278   5.549  13.899   0.098 -0.0434 -0.1767 -0.1221
23431W        W40279   7.370  11.473   1.959 -0.1246  0.1045  0.2029
23432W        W40280   9.425   1.589  12.409  0.0446  0.1163 -0.2746
23433W        W40281   8.736  11.161  12.775  0.0831  0.0820 -0.2418
23434W        W40282   6.676  15.932   4.457 -0.1658  0.1286 -0.0947
23435W        W40283   9.685  17.766  12.713 -0.0073 -0.0923 -0.3207
23436W        W40284   5.040  16.037  12.538 -0.0042 -0.2015 -0.1958
23437W        W40285   5.129  13.693   4.583 -0.0021 -0.1989 -0.0014
23438W        W40286  17.203   7.102   0.681 -0.1603  0.1635  0.1267
23439W        W40287  16.962  10.766   0.954  0.0287  0.1390 -0.2410
23440W        W40288  12.136  14.036  14.751 -0.1818 -0.2348 -0.1509
23441W        W40289  14.627   9.183  14.256  0.2978  0.4392  0.0461
23442W        W40290  14.589   7.718   5.392  0.1129 -0.0025  0.0207
23443W        W40291  14.830   6.849   4.306 -0.2251  0.2976 -0.0304
23444W        W40292   3.802  16.753  12.231  0.0663 -0.0609 -0.0849
23445W        W40293   5.978   4.577   2.148  0.1078  0.0202 -0.1585
23446W        W40294   3.321   5.039  13.550  0.1789  0.0234 -0.4162
23447W        W40295  11.511   9.068   3.317 -0.2900 -0.1404  0.0372
23448W        W40296  15.478   4.551   1.301  0.2542 -0.2956 -0.0093
23449W        W40297   9.784   0.288   4.311  0.1276  0.1199  0.0539
23450W        W40298   6.084  12.587   3.529 -0.3502 -0.4641  0.2612
23451W        W40299   3.128  17.664   4.418 -0.3184  0.2504  0.1107
23452W        W40300  11.777   9.398   5.410 -0.0824 -0.0478 -0.0138
23453W        W40301   5.096   3.070  12.875  0.2242 -0.0720 -0.1451
23454W        W40302   5.655  11.157   3.560 -0.0523 -0.1967 -0.2249
23455W        W40303   0.445   5.068  12.223  0.3009  0.1493  0.3694
23456W        W40304   8.397  16.411   1.592 -0.0190  0.3014 -0.3100
23457W        W40305  13.431  16.663  14.076 -0.0698 -0.4647 -0.2444
23458W        W40306  13.529   2.463   4.546 -0.3041 -0.1386 -0.2448
23459W        W40307  16.071   5.219   1.585  0.1000 -0.0041  0.0356
23460W        W40308   7.213   9.380  16.022 -0.0273 -0.1040  0.0881
23461W        W40309   9.247  17.930   1.012 -0.0829  0.1930 -0.2449
23462W        W40310  13.040   2.286   1.707  0.2150  0.1392  0.0107
23463W        W40311   5.071  15.534  12.256  0.0501  0.1087 -0.0510
23464W        W40312   2.008   7.217   3.307  0.0478  0.0873  0.2668
23465W        W40313   8.292  12.114   2.185  0.0176  0.1934  0.3836
23466W        W40314  11.670  18.029   5.137 -0.0999 -0.0502  0.2137
23467W        W40315  18.111   0.568   3.784 -0.1416 -0.2547  0.1098
23468W        W40316   2.540  14.562  12.568  0.1397  0.1862  0.2974
23469W        W40317   7.137   6.781  13.619  0.1055  0.2729  0.1342
23470W        W40318   0.239  11.633   3.316 -0.0177  0.1548 -0.2102
23471W        W40319  10.454   6.319  11.570 -0.2026 -0.0532 -0.1000
23472W        W40320   4.942  11.507   0.751 -0.5052  0.2094 -0.0121
23473W        W40321  10.494  13.280   0.900 -0.1642  0.0012 -0.1913
23474W        W40322   9.368   5.420   1.133  0.0440  0.3329 -0.2541
23475W        W40323   7.416   1.684   0.226 -0.2870 -0.0265  0.1040
23476W        W40324   1.989   4.074  16.060 -0.1748  0.1101 -0.1707
23477W        W40325  12.331   5.893  13.127 -0.1375  0.0219  0.0280
23478W        W40326   1.678   8.825  15.582  0.0065 -0.0614  0.1946
23479W        W40327   3.792   6.798   3.387 -0.2313 -0.1095 -0.1096
23480W        W40328   2.707   7.446  13.895 -0.2866  0.0988  0.0158
23481W        W40329   7.799  16.721  15.286 -0.0017  0.1455 -0.2737
23482W        W40330  12.288   2.819   3.385 -0.3640  0.0307  0.1369
23483W        W40331   3.238   0.573  10.409  0.0415  0.0370  0.1229
23484W        W40332  12.343   5.089   4.148 -0.1763 -0.4841  0.4602
23485W        W40333  15.567  12.753   6.174 -0.0943  0.2958 -0.0644
23486W        W40334   3.664  12.252   4.076  0.0712  0.1708 -0.0125
23487W        W40335   3.039   0.749  13.054  0.2056 -0.0760 -0.0374
23488W        W40336   9.039   4.301   2.746  0.0415  0.0339  0.2325
23489W        W40337   2.521  17.448   1.469  0.2634  0.0956 -0.1790
23490W        W40338   1.648   9.601   1.067 -0.0910  0.2004  0.1529
23491W        W40339  16.203   1.145  10.253 -0.2320 -0.0142  0.0167
23492W        W40340   5.991   6.228  13.672  0.0367 -0.3251  0.3266
23493W        W40341   0.199  12.268  11.123 -0.0549  0.0392 -0.1443
23494W        W40342  10.310   8.097  15.551 -0.0045 -0.2406  0.1950
23495W        W40343   5.956   0.136   2.354  0.0910  0.1649  0.1029
23496W        W40344   1.082   6.070  11.612  0.2120 -0.1813 -0.3278
23497W        W40345   9.340   0.283   1.812  0.2813 -0.0254 -0.1815
23498W        W40346   3.778  14.135   3.655  0.2101  0.0675 -0.0105
23499W        W40347   2.586  13.536   3.201  0.0861  0.2364 -0.2407
23500W        W40348   0.829   9.209  11.740  0.1440 -0.1597  0.1610
23501W        W40349  16.098   6.694   0.218 -0.2053  0.1085  0.4626
23502W        W40350   4.717   0.367   3.828 -0.0156 -0.1450  0.0352
23503W        W40351  10.194  10.465   0.412 -0.2658  0.1303 -0.1988
23504W        W40352   5.953  11.839  10.973  0.1413 -0.2918 -0.0589
23505W        W40353   9.723  16.052  15.561  0.1384 -0.0141 -0.1877
23506W        W40354  12.944   3.367  12.219  0.0408 -0.3415 -0.1100
23507W        W40355   3.923  16.353  10.357  0.1076 -0.2835 -0.0158
23508W        W40356   7.235  13.268  14.010 -0.1505  0.0044  0.2203
23509W        W40357  18.141  12.464   2.402 -0.0744 -0.0025 -0.1362
23510W        W40358  14.076   1.174   1.677  0.2642  0.1141 -0.0779
23511W        W40359  16.765  14.093   1.157 -0.0018 -0.0896 -0.0607
23512W        W40360   5.433   1.918   1.292  0.2962 -0.2043  0.2553
23513W        W40361   4.349   6.730  15.922 -0.0432  0.1248  0.1810
23514W        W40362  16.139  17.474   1.979  0.1877  0.0545  0.1107
23515W        W40363   6.564   8.504  12.590 -0.0428 -0.3458 -0.1940
23516W        W40364  17.239   4.040   4.551  0.1755  0.1464  0.0074
23517W        W40365   1.415  11.547   2.764  0.0076  0.2333  0.0474
23518W        W40366   2.244  16.795  15.690 -0.2453  0.0001  0.2641
23519W        W40367   4.451   1.018   4.848  0.1437 -0.0362 -0.1599
23520W        W40368   6.019   1.783   5.589 -0.0057  0.1836  0.3918
23521W        W40369  11.477   2.897  13.289 -0.1744 -0.4345  0.3845
23522W        W40370  10.878  15.071   2.728  0.1117 -0.0725 -0.3340
23523W        W40371   4.706   9.838   3.826  0.1155 -0.0627 -0.2853
23524W        W40372   9.532  15.726   0.387 -0.3738  0.1086 -0.0536
23525W        W40373  16.908   8.697   4.793 -0.2251 -0.0263  0.3098
23526W        W40374   8.236   0.395  14.229  0.2598 -0.3527 -0.2236
23527W        W40375  12.932   5.999   0.001  0.1551 -0.2264  0.2248
23528W        W40376   8.808   1.207   1.823  0.0995  0.1397 -0.1558
23529W        W40377   5.503   4.522  15.702  0.0307  0.3182 -0.0670
23530W        W40378  16.374   7.778  15.251  0.0486 -0.1930  0.2718
23531W        W40379  13.463  10.708   5.147 -0.0984  0.1984  0.2341
23532W        W40380  17.036   6.335   3.590 -0.1491 -0.2920 -0.0039
23533W        W40381   5.224  16.139  12.965 -0.4663  0.2216 -0.0088
23534W        W40382   2.959  11.659   4.720  0.1244 -0.0676 -0.3169
23535W        W40383  13.437  16.465  14.650 -0.1859 -0.1842 -0.1042
23536W        W40384   5.724   7.160   0.393 -0.3132  0.0451  0.0177
23537W        W40385   2.227  12.651  15.285  0.0014 -0.1149  0.0412
23538W        W40386   9.686   5.648   2.626  0.1210 -0.0272  0.3296
23539W        W40387   3.998   9.219  11.326 -0.1318 -0.0091 -0.1151
23540W        W40388  16.948  17.444   0.118 -0.1449 -0.4340  0.3583
23541W        W40389  12.320  11.466  10.959 -0.3921 -0.1128 -0.2413
23542W        W40390   2.239   8.013   3.683  0.0422  0.1368  0.1798
23543W        W40391   1.169   7.485   3.347 -0.1988  0.1226 -0.2216
23544W        W40392  10.712  16.570  11.656 -0.1799  0.1144  0.0398
23545W        W40393  16.378   9.835   3.973 -0.3455  0.0424  0.3627
23546W        W40394   7.030  12.223  12.688  0.1471  0.0371  0.2978
23547W        W40395   7.545  16.832   4.482  0.0558 -0.2530 -0.1171
23548W        W40396  10.244   5.753  16.093  0.1146 -0.1898 -0.3374
23549W        W40397   2.668  17.808   5.393  0.0032  0.1834  0.0455
23550W        W40398   9.009  16.427  13.855  0.0030 -0.0044  0.1406
23551W        W40399   1.199  10.600  15.739  0.1432 -0.1527  0.1947
23552W        W40400  13.601  13.634   3.743 -0.0412 -0.1490  0.1028
23553W        W40401   8.191  10.728   3.293  0.2778 -0.0757 -0.0195
23554W        W40402  11.117   8.825  12.477  0.0866 -0.1106  0.1587
23555W        W40403   4.357   8.136  12.935  0.1272 -0.1959 -0.0662
23556W        W40404  12.556  17.499  12.755 -0.1753  0.0152  0.1872
23557W        W40405  13.199  17.120   1.772  0.2376 -0.1009 -0.0081
23558W        W40406   0.720   9.904  11.457 -0.3699 -0.0406  0.0712
23559W        W40407   1.950   4.318   2.395 -0.0195 -0.0936  0.0455
23560W        W40408  11.949   5.099   1.878  0.1105  0.1390  0.2904
23561W        W40409  12.641   3.508  12.595  0.1372  0.0861  0.0286
23562W        W40410   0.566   4.925  11.729 -0.0222  0.2752  0.3630
23563W        W40411   2.149   8.450  13.995  0.1062  0.2972  0.0501
23564W        W40412   4.680   2.155  14.212  0.0802  0.2407 -0.0035
23565W        W40413  16.896  15.039  12.112 -0.1253 -0.0994 -0.0663
23566W        W40414   2.814   6.877   0.095  0.0314 -0.0387 -0.1714
23567W        W40415  10.020   9.785  12.757  0.2243 -0.0389 -0.0995
23568W        W40416  11.407  15.596   3.817 -0.1738  0.2596  0.1824
23569W        W40417  14.878   7.102   0.937  0.0407 -0.3399  0.2246
23570W        W40418   0.801  12.573  14.461  0.1781  0.3969 -0.1661
23571W        W40419   0.120  11.230   0.679  0.2658  0.1592  0.0939
23572W        W40420   2.923   9.102   3.418  0.1088  0.2321 -0.1116
23573W        W40421   2.984  13.787  11.857  0.1702  0.0713  0.3953
23574W        W40422  13.242   5.951   3.791  0.1208  0.0747 -0.0997
23575W        W40423  10.152   1.183   2.682 -0.1474  0.1419  0.1809
23576W        W40424  13.942   8.370   0.076 -0.1641  0.0734  0.1585
23577W        W40425  18.070   0.970  14.167  0.2190  0.0565  0.1988
23578W        W40426   5.223  17.917  14.823  0.2295 -0.0448  0.0037
23579W        W40427   9.491   5.646  12.706  0.2367 -0.0496  0.1728
23580W        W40428  10.640   6.820   3.931 -0.2345  0.1105  0.4064
23581W        W40429   3.659   5.766   4.395  0.2650 -0.0527  0.0189
23582W        W40430  15.502   4.335   3.530  0.0289  0.0137  0.1467
23583W        W40431   5.154   0.135   2.636 -0.0509  0.1866 -0.0473
23584W        W40432  15.491   5.485  12.551 -0.1698 -0.0114  0.1979
23585W        W40433   0.080   9.598   4.254 -0.1125 -0.0549  0.1760
23586W        W40434   3.527   2.016   2.136  0.0434  0.1269 -0.3417
23587W        W40435  15.450   0.839  13.577  0.1444 -0.3865  0.3629
23588W        W40436   1.227   4.893   1.106 -0.0660 -0.0945 -0.0000
23589W        W40437   5.989  16.244  13.273 -0.0200 -0.0134 -0.1964
23590W        W40438  13.836   9.958  14.771 -0.0488  0.1232  0.2430
23591W        W40439  17.202   1.099   2.252  0.0892  0.2503  0.0433
23592W        W40440   0.507  15.492  15.621 -0.1731  0.1558 -0.0949
23593W        W40441   6.006   4.552  13.944  0.0127  0.0735  0.1644
23594W        W40442  15.522  17.777  15.167  0.0855  0.0241  0.0909
23595W        W40443   5.772  15.757   4.707 -0.1785  0.2261  0.1576
23596W        W40444   5.833   5.476   0.015  0.3321  0.1869 -0.1326
23597W        W40445   3.060   5.534  14.414  0.1804  0.1628  0.0803
23598W        W40446  10.825  14.736  14.608  0.0049  0.3119  0.0264
23599W        W40447  13.978   2.926   0.697 -0.0286 -0.0527  0.0656
23600W        W40448   2.972  15.021  14.149 -0.1749  0.0750  0.0532
23601W        W40449  12.436   7.110   6.274 -0.2943 -0.1167 -0.3890
23602W        W40450  14.105  15.708   5.491  0.1218  0.0535  0.1467
23603W        W40451   0.454   6.647   3.315  0.0716  0.0027 -0.0550
23604W        W40452  12.288   8.072  13.116  0.0864 -0.0784 -0.1324
23605W        W40453   5.588   1.814   0.771 -0.1543 -0.1967  0.1136
23606W        W40454   9.993   2.736   3.688  0.3436  0.0849  0.1190
23607W        W40455  14.982   5.464  14.031 -0.1947  0.4319 -0.1797
23608W        W40456   0.268   4.614   4.096 -0.2075  0.0810 -0.1321
23609W        W40457  15.437  16.264  12.439  0.2158 -0.4508  0.4504
23610W        W40458  12.301  17.411  11.009  0.3200 -0.0257  0.0384
23611W        W40459  10.356  16.402   4.492 -0.0599  0.0961 -0.1334
23612W        W40460   9.558   8.284   0.019  0.1969  0.0298  0.1840
23613W        W40461  13.816  12.058  13.172 -0.2568  0.2400  0.0958
23614W        W40462   3.831   2.909   5.164  0.0794  0.1132 -0.0743
23615W        W40463   9.180  10.050   4.219  0.3430  0.0073  0.3543
23616W        W40464  12.848  17.667   0.936  0.0827 -0.0593  0.2714
23617W        W40465  15.694  12.937  13.514  0.1679  0.1072  0.1328
23618W        W40466   9.353  16.174  14.204  0.0853 -0.2178 -0.1490
23619W        W40467  13.234  17.702   2.629 -0.1870 -0.1392 -0.4259
23620W        W40468  10.594  15.085   5.106 -0.3039 -0.0486 -0.3658
23621W        W40469   9.531   6.590   0.519 -0.1046 -0.0635  0.0762
23622W        W40470  10.104   6.409  12.869  0.0226 -0.1404 -0.1409
23623W        W40471   2.219   8.693   1.171  0.1899 -0.0412 -0.0291
23624W        W40472   2.195  14.949  10.532 -0.2465 -0.2887  0.0593
23625W        W40473  17.842  11.168  15.341 -0.0402  0.1672  0.1567
23626W        W40474   5.026  15.491   0.433 -0.0944  0.3638  0.2937
23627W        W40475  13.662   5.499   4.487  0.3364  0.0434 -0.2277
23628W        W40476   9.057   9.056   1.143  0.1032  0.1006 -0.3056
23629W        W40477   7.897   5.612   2.149  0.2299 -0.1595  0.0205
23630W        W40478  12.491  16.483   1.187 -0.2629 -0.0168  0.2368
23631W        W40479  14.217   2.721  10.644 -0.0240 -0.0142  0.0638
23632W        W40480  15.635   9.646  15.070  0.0354 -0.0638  0.0342
23633W        W40481  15.611  16.664  13.406  0.1227  0.0328 -0.2174
23634W        W40482   2.802  11.452   1.534 -0.0597  0.3533 -0.1411
23635W        W40483  10.040   6.445  15.357 -0.2282  0.0892 -0.0304
23636W        W40484   2.068  15.901  12.834  0.4156 -0.0798  0.0621
23637W        W40485  17.883   0.476   5.742 -0.2392 -0.1217 -0.1376
23638W        W40486   6.470   7.206  14.436  0.0923 -0.1343  0.3640
23639W        W40487   2.888  17.815   2.577 -0.1890 -0.0144  0.2121
23640W        W40488  13.288   4.323   3.416 -0.2854 -0.0597 -0.0964
23641W        W40489  10.875  13.356  12.180  0.1459  0.1652  0.3300
23642W        W40490  16.605  14.251   4.467 -0.0065  0.0026 -0.1047
23643W        W40491   0.135   6.184  11.218 -0.0300  0.3672  0.2712
23644W        W40492  16.126   4.631  14.667  0.0230  0.3136  0.2600
23645W        W40493  18.043  15.290   2.215 -0.2615  0.2225  0.1930
23646W        W40494  11.275   7.592  15.615  0.1044  0.2035  0.3087
23647W        W40495  17.344   3.587   1.202  0.1800 -0.0440 -0.1414
23648W        W40496  14.010   4.229   2.241  0.1188  0.0954 -0.2706
23649W        W40497  11.520   2.788   2.115 -0.1028  0.1407  0.1178
23650W        W40498  17.329   5.110  15.140 -0.0826  0.0745  0.0071
23651W        W40499   0.078   0.096  13.792 -0.0932 -0.1527  0.1589
23652W        W40500   0.871  17.533   2.659 -0.1164  0.2858  0.3109
23653W        W40501   9.490   1.992   1.720  0.0171  0.3539 -0.0395
23654W        W40502  17.596   5.359  13.852 -0.1900 -0.0211 -0.3069
23655W        W40503   3.342  14.159   2.745 -0.0828  0.3916  0.0380
23656W        W40504  11.335   0.710   0.556  0.0594 -0.1118  0.4196
23657W        W40505   5.552   5.061  15.917  0.1682  0.1788 -0.0651
23658W        W40506  17.505   7.916   0.384  0.0504  0.0005 -0.3412
23659W        W40507   0.974  18.177   0.775 -0.1145  0.1496 -0.0464
23660W        W40508   1.029   3.091   3.942 -0.2626 -0.4197 -0.2646
23661W        W40509   2.113  11.253  15.065  0.1661 -0.0053 -0.1621
23662W        W40510  12.283   4.996   3.129  0.1305  0.1904  0.1697
23663W        W40511   9.584  13.980  11.666  0.1437  0.1834  0.1960
23664W        W40512  11.726   9.406  13.616  0.0635 -0.4245 -0.4575
23665W        W40513  12.367  14.562   4.954 -0.1237 -0.0744 -0.0761
23666W        W40514  10.550  13.787   1.106  0.4273  0.0607  0.2996
23667W        W40515   3.553   1.110   3.943 -0.2125 -0.1221  0.2124
23668W        W40516   9.952  10.088   0.770 -0.1546 -0.2344  0.1864
23669W        W40517  14.847   5.367  11.009  0.1329  0.0207  0.2706
23670W        W40518  15.580   0.803   5.160  0.1010  0.1810 -0.1192
23671W        W40519  10.201   2.989  14.501 -0.0507  0.2257  0.2750
23672W        W40520  13.015   9.515  14.692  0.3273  0.0680  0.0842
23673W        W40521   1.620  10.121  13.314 -0.0581  0.3633  0.1594
23674W        W40522  11.459   7.631   4.676 -0.0695 -0.0078  0.2412
23675W        W40523  11.199  15.389  13.695  0.1985  0.1300  0.0312
23676W        W40524  17.322   2.523   5.353  0.1225  0.0383 -0.2062
23677W        W40525   8.600  12.091   3.345  0.2237  0.2393  0.2352
23678W        W40526   0.540  16.345   0.720  0.0113  0.0751  0.0003
23679W        W40527   2.228   7.572   4.789  0.4472 -0.0378 -0.1728
23680W        W40528  15.442   4.964  13.549  0.0148  0.1005 -0.1067
23681W        W40529   5.562   0.522   4.213 -0.2761 -0.0267  0.2328
23682W        W40530   0.779   2.231  11.956 -0.0884  0.1316  0.3013
23683W        W40531  17.159  12.297  13.136  0.2944  0.0052 -0.1316
23684W        W40532   7.127   6.230   1.342  0.0182 -0.0790 -0.0155
23685W        W40533   1.876   8.240   1.088  0.0893  0.0834 -0.1332
23686W        W40534   9.522   3.514  14.080  0.1390  0.0000 -0.1454
23687W        W40535   6.714  12.170  12.213 -0.0579  0.2303  0.1078
23688W        W40536  15.247  12.678  15.514  0.0427 -0.1997  0.0961
23689W        W40537  17.405  15.212   4.594  0.0343 -0.3952 -0.0441
23690W        W40538  11.719  10.521  14.943  0.0691 -0.2060  0.0623
23691W        W40539  14.765   4.741  14.034 -0.1053  0.3858  0.1696
23692W        W40540  13.284  11.108   3.106  0.2146  0.0695  0.3966
23693W        W40541  17.491   6.588  15.532  0.2259  0.2668  0.1274
23694W        W40542  12.372  12.533  13.067 -0.1567  0.1770 -0.0427
23695W        W40543   8.398  16.819  14.161  0.0284  0.1036 -0.4170
23696W        W40544  16.117  15.491  15.479  0.1127  0.2155  0.0788
23697W        W40545   7.053   5.039  13.041  0.0037 -0.0451 -0.0886
23698W        W40546  14.476  13.048   5.346 -0.2067 -0.0953  0.1340
23699W        W40547   5.059  13.942  12.134  0.0309 -0.1244 -0.1444
23700W        W40548   9.748  14.128  13.076  0.0352  0.1006 -0.0354
23701W        W40549   3.737  17.728  11.661 -0.2056  0.0584  0.1421
23702W        W40550  14.324  10.757  15.197  0.1059  0.0833 -0.4235
23703W        W40551  14.101  10.922   0.429 -0.3200  0.1141  0.1440
23704W        W40552  11.596   7.425   1.811  0.0605  0.0497 -0.0907
23705W        W40553  11.128  15.017  10.809 -0.1856 -0.4913  0.0706
23706W        W40554   4.930  11.767  11.585 -0.0247  0.3750 -0.2732
23707W        W40555  10.827   6.201  16.096 -0.2551 -0.1429  0.0465
23708W        W40556  15.625  11.416  14.163  0.0506  0.1455  0.1753
23709W        W40557   4.361   1.894   1.338 -0.3645 -0.1468 -0.1667
23710W        W40558   2.558  16.933   5.542  0.3716  0.1291  0.0048
23711W        W40559  17.329   6.458  13.379 -0.1710 -0.0392 -0.2386
23712W        W40560   7.883  12.513   0.495  0.1388  0.1658 -0.6398
23713W        W40561   4.476  14.786  14.869 -0.0283 -0.2714 -0.0556
23714W        W40562  17.919   7.604  12.986 -0.0990 -0.0488 -0.0163
23715W        W40563  16.589   4.674  12.450 -0.2360 -0.2618  0.1105
23716W        W40564   3.228  17.248   5.293  0.1458  0.1183 -0.3424
23717W        W40565  15.964   3.095  11.047  0.2085 -0.0249  0.0184
23718W        W40566  13.045   1.981  13.251 -0.1755 -0.2194 -0.0535
23719W        W40567  13.828   7.377   3.026  0.3579 -0.0881  0.1202
23720W        W40568  10.212   3.188   3.726 -0.4058 -0.2201 -0.0295
23721W        W40569  12.924  15.194  14.724 -0.0946 -0.3668 -0.2629
23722W        W40570  16.001   3.218  13.451 -0.3451 -0.0859  0.3272
23723W        W40571  13.253   1.038  15.972 -0.1118  0.0589  0.0647
23724W        W40572   3.451  10.048   2.850  0.1343  0.0564 -0.0649
23725W        W40573  16.319   5.610  14.516  0.0619  0.3730  0.0072
23726W        W40574   5.507   3.412   3.553 -0.0336  0.1947 -0.1297
23727W        W40575   3.114   4.735   1.018 -0.3830 -0.1880 -0.3529
23728W        W40576   4.274  11.321  10.765 -0.0367  0.2247  0.1880
23729W        W40577  14.708   4.659  11.989  0.1135  0.2633 -0.1133
23730W        W40578   9.947   5.965  14.479 -0.3069  0.1393  0.1665
23731W        W40579   1.207   7.350   4.563 -0.0925  0.2428  0.2644
23732W        W40580   3.702   3.720  13.882  0.1023 -0.2729  0.2136
23733W        W40581   7.609   6.908  11.984  0.0763 -0.0330 -0.5325
23734W        W40582   7.784   1.894  15.030 -0.0594 -0.1530  0.0652
23735W        W40583   9.386   6.565   1.437  0.0125  0.6476 -0.2481
23736W        W40584  17.586   7.058   4.042 -0.0332  0.0707  0.1440
23737W        W40585   3.834   7.527   0.973 -0.0814 -0.1861  0.1822
23738W        W40586  16.291   9.233   2.480  0.1829 -0.1084 -0.3052
23739W        W40587   8.021  18.210   2.925  0.2311 -0.3139 -0.0998
23740W        W40588  16.431   8.251  12.182  0.0459  0.0622  0.0494
23741W        W40589   1.341   3.056   0.956  0.0921  0.1032 -0.0116
23742W        W40590   9.864  10.998   5.914  0.0377  0.0893 -0.1189
23743W        W40591  16.025  17.358  11.596 -0.0685  0.0558  0.0325
23744W        W40592  16.821   6.974   2.878 -0.1376  0.1802  0.2764
23745W        W40593   4.850   6.435   5.309  0.0515  0.2037  0.1991
23746W        W40594  14.747   1.789   4.803  0.0175 -0.1562 -0.0677
23747W        W40595  14.996   8.101   1.183  0.0136 -0.1562 -0.3210
23748W        W40596   6.470  17.706   0.365  0.0698 -0.0239  0.1353
23749W        W40597  14.047   4.788  11.849  0.2396  0.1721  0.0636
23750W        W40598   4.563  12.505  12.126  0.2106  0.1497 -0.2193
23751W        W40599   8.003  11.369  13.815 -0.3873  0.1063  0.0985
23752W        W40600   8.822   7.558  15.371 -0.0349 -0.3632 -0.0107
23753W        W40601  12.633   5.395   3.807 -0.2003  0.0627 -0.0566
23754W        W40602  18.018   9.129  11.909 -0.0141 -0.0177 -0.0758
23755W        W40603   9.196  16.196  12.472 -0.1182 -0.0928  0.0172
23756W        W40604   3.620  13.583  15.577  0.2351 -0.1801  0.0449
23757W        W40605  12.579   7.212   0.942  0.0007 -0.2748 -0.0069
23758W        W40606  14.449  13.542   1.602 -0.1378 -0.4197  0.1144
23759W        W40607  13.786  12.704   2.790 -0.6846  0.2303  0.2310
23760W        W40608   5.081   3.890  16.028  0.0801 -0.2626  0.0855
23761W        W40609   7.039  17.977   5.606 -0.1124  0.1065 -0.1686
23762W        W40610  16.630  13.214   4.388 -0.5149 -0.2334 -0.1481
23763W        W40611  13.752   4.336   5.134 -0.1752  0.0457  0.0245
23764W        W40612  15.728  17.401   1.038 -0.2857 -0.0964 -0.2296
23765W        W40613   6.299   9.076   4.630 -0.0684  0.1821 -0.0363
23766W        W40614  10.514  10.123   3.973 -0.1796  0.0599 -0.0875
23767W        W40615   7.576  15.211  11.448  0.2122  0.0741  0.1825
23768W        W40616   5.751   6.657   1.995 -0.5581 -0.0680  0.0202
23769W        W40617   9.901  16.455   5.306  0.3695 -0.1735  0.1751
23770W        W40618   1.562  12.675  11.648 -0.0188 -0.3755  0.0429
23771W        W40619   9.072  14.044   0.436 -0.1706 -0.1108 -0.0506
23772W        W40620   2.110   6.195   2.174  0.2688 -0.0445  0.0010
23773W        W40621   6.050  14.808   3.170 -0.0450 -0.0015 -0.2586
23774W        W40622   4.892   9.251  15.127  0.2304 -0.2165 -0.2878
23775W        W40623   7.203  16.581  13.157  0.0499  0.0618  0.1640
23776W        W40624   7.848   1.483   4.191 -0.1805  0.4392  0.2817
23777W        W40625  11.197  12.011   2.717 -0.1023 -0.1573  0.0039
23778W        W40626   1.011  15.724  11.626 -0.1656  0.0569  0.2225
23779W        W40627  18.070   0.072  11.018  0.0118 -0.0095  0.1737
23780W        W40628   6.333   6.763   2.938 -0.1469  0.1226 -0.1644
23781W        W40629   6.715  14.443  13.898 -0.0840 -0.1220  0.0340
23782W        W40630   4.515   9.488  11.810 -0.0557  0.1676 -0.1988
23783W        W40631   2.992   8.739  14.447  0.2212 -0.1009  0.2332
23784W        W40632  14.313   1.285  14.698  0.0938 -0.0725  0.1352
23785W        W40633  10.753  16.434  14.843 -0.0353 -0.2706 -0.0576
23786W        W40634   4.469  10.302  15.543 -0.3302 -0.1606  0.2979
23787W        W40635  17.295   4.889   5.221  0.0296 -0.3350 -0.2164
23788W        W40636   4.053  13.793   2.081  0.0624 -0.0718  0.0340
23789W        W40637  11.276   8.913  14.931 -0.1263 -0.2501 -0.0996
23790W        W40638   9.335   1.370  15.996 -0.0048  0.2552  0.0459
23791W        W40639  15.552   5.648   3.802  0.0328  0.1510 -0.1433
23792W        W40640  17.980  16.335  14.418 -0.0273  0.1613 -0.1446
23793W        W40641  15.226   5.960  15.450 -0.2457  0.1769 -0.0184
23794W        W40642   4.717  14.112  14.283  0.1654 -0.0972  0.2573
23795W        W40643   3.971  14.296  14.147  0.1658  0.2440  0.0182
23796W        W40644   4.000  17.685   3.407 -0.2893 -0.0670  0.0701
23797W        W40645   2.245  17.004   3.071  0.1398 -0.0361  0.1400
23798W        W40646  15.702  15.031   0.522  0.0956 -0.1803  0.3060
23799W        W40647  17.052   6.846  15.772 -0.0766 -0.1236  0.2842
23800W        W40648   5.686   4.175   2.247  0.1951  0.0733  0.1304
23801W        W40649   1.888   0.145   3.476  0.1260 -0.0979  0.2347
23802W        W40650  16.674  15.672  12.091  0.1788 -0.0338 -0.0993
23803W        W40651   4.776  18.101  14.656  0.1061 -0.1719  0.1886
23804W        W40652   2.312  16.217  13.235  0.1816  0.0985 -0.1889
23805W        W40653   6.298   7.429  13.499 -0.1260  0.2312 -0.2345
23806W        W40654  11.450   5.867   2.627 -0.2131 -0.0253 -0.0541
23807W        W40655   0.463   5.566  13.693 -0.1363 -0.3884  0.2249
23808W        W40656  14.784  15.387   1.088 -0.1309  0.1176 -0.1147
23809W        W40657   1.023   5.407   3.694 -0.0383 -0.1703  0.2993
23810W        W40658   8.500   2.594   0.871 -0.0311 -0.1179  0.0624
23811W        W40659   4.265  13.831  14.125 -0.3334  0.0359 -0.0611
23812W        W40660  10.229   9.736  14.481  0.2174  0.0160 -0.0073
23813W        W40661  10.696   7.588  12.942  0.0413 -0.0362 -0.2175
23814W        W40662   0.559   3.946   3.166 -0.3211 -0.3448  0.0331
23815W        W40663  15.622  13.188  13.933  0.0092 -0.4059 -0.1202
23816W        W40664   4.594   4.652  15.698  0.2264  0.3097  0.1681
23817W        W40665   5.658  14.189   3.357  0.0398 -0.0435  0.0053
23818W        W40666   9.190   9.304  13.830  0.0382 -0.0582 -0.2264
23819W        W40667   2.530  16.730   3.410  0.2196 -0.2570 -0.3109
23820W        W40668  15.871   9.387  12.658  0.0690 -0.2013 -0.3652
23821W        W40669   0.330   1.289   0.606  0.0749  0.1564 -0.0798
23822W        W40670  14.061   2.814  12.341 -0.0073 -0.1135  0.1448
23823W        W40671  10.543   5.980   1.737  0.0159 -0.0113 -0.0337
23824W        W40672   6.107  12.640   0.620  0.1577 -0.0456 -0.1816
23825W        W40673  10.950  11.559   2.748  0.1316  0.1410  0.0987
23826W        W40674  14.511   5.185  16.054  0.3592  0.0931  0.1367
23827W        W40675  16.364  12.816   0.184  0.3870  0.1392 -0.0984
23828W        W40676  16.173   4.217   4.538  0.1556  0.2423  0.3092
23829W        W40677  15.438  13.472  11.034  0.3210  0.2271 -0.4085
23830W        W40678  12.141   4.610   3.970 -0.1600  0.2020  0.0727
23831W        W40679   2.863  16.314   4.223 -0.0346 -0.3370 -0.0411
23832W        W40680  12.152  13.341  10.326  0.1095  0.3076 -0.2854
23833W        W40681  17.057   7.293   5.084 -0.0005  0.1363 -0.3010
23834W        W40682   6.021   1.900   4.076 -0.1811  0.0046  0.2519
23835W        W40683  12.402   3.546  13.062 -0.2383  0.1616 -0.2050
23836W        W40684   7.759   2.471  15.027  0.0901  0.4620  0.1843
23837W        W40685  10.644   9.502   2.370  0.0494 -0.0782  0.2507
23838W        W40686   9.986   2.934  15.985 -0.0202  0.0940  0.0910
23839W        W40687   6.117   1.511   1.250 -0.2340  0.0635  0.0787
23840W        W40688   0.949   1.209  15.120  0.0362 -0.0310  0.1166
23841W        W40689   9.401  15.563  13.878 -0.0058  0.5432  0.0552
23842W        W40690  11.097  18.070  14.941 -0.4846  0.4427 -0.0271
23843W        W40691   9.337   2.592   2.910 -0.2136 -0.3143 -0.0452
23844W        W40692   6.151   5.397  13.752  0.1921 -0.0094  0.2894
23845W        W40693   0.694   2.162  15.220  0.1885  0.2528  0.1133
23846W        W40694   9.258   9.031  15.697 -0.0402  0.0131  0.0996
23847W        W40695  12.372   2.839  13.870  0.0337 -0.1864  0.6160
23848W        W40696   4.017  13.099   3.193 -0.2811  0.1726  0.0077
23849W        W40697  14.714  14.058   4.728  0.0665  0.1171 -0.1182
23850W        W40698   7.581   7.363   4.386 -0.1516  0.0974 -0.0595
23851W        W40699  10.466   8.985   0.926 -0.0273 -0.4011  0.0372
23852W        W40700  11.544   0.803  12.730  0.2595 -0.0969  0.0862
23853W        W40701   6.801   5.520  12.099 -0.2179 -0.2531  0.0108
23854W        W40702  17.853  17.862  14.166 -0.1653  0.6273 -0.5190
23855W        W40703  15.285  14.615  11.632 -0.1815  0.3123 -0.1296
23856W        W40704  15.812  16.019  13.965  0.2027  0.2646 -0.0662
23857W        W40705  16.046   3.767  11.005 -0.0824  0.0251 -0.0729
23858W        W40706   9.604   4.276   1.855 -0.0724  0.3635  0.0153
23859W        W40707  15.548   1.910   2.062  0.0901  0.1021  0.0409
23860W        W40708  13.140  12.945  10.773  0.2319 -0.2565  0.3319
23861W        W40709   9.495  14.076  13.525  0.0229  0.1871 -0.2688
23862W        W40710   9.313   8.572   3.954 -0.2215 -0.1299 -0.0071
23863W        W40711   7.696   1.700   3.273  0.4360  0.1344 -0.4082
23864W        W40712  10.022  10.316  11.828  0.1156  0.0504 -0.0548
23865W        W40713  10.479   1.619   3.115  0.2277 -0.0529  0.1382
23866W        W40714  10.040  13.932   1.025 -0.0960 -0.3180  0.0609
23867W        W40715  12.752   7.302   0.499  0.1254  0.0019  0.1749
23868W        W40716  14.712  15.089  13.394 -0.3466 -0.1726  0.2512
23869W        W40717   2.299  16.771   3.991  0.1986  0.1803 -0.1539
23870W        W40718  12.443   4.386  11.090  0.0856  0.0209  0.1178
23871W        W40719  13.496   9.031   1.696 -0.0071  0.4515  0.0652
23872W        W40720  15.107  15.624  13.818  0.0688 -0.3353  0.1305
23873W        W40721   0.991   3.998   0.450 -0.1184 -0.2158 -0.0486
23874W        W40722  11.314  12.168   3.594 -0.0174 -0.3252  0.1072
23875W        W40723  16.722  12.002  13.285 -0.1181  0.2620 -0.0707
23876W        W40724   8.609   8.453  15.389 -0.5245 -0.1487 -0.0694
23877W        W40725   7.110  17.332  10.892 -0.1746 -0.0192  0.1866
23878W        W40726   9.537   3.168   4.934  0.2405 -0.2628 -0.0624
23879W        W40727   1.541   2.693  11.501 -0.0099  0.1522  0.2715
23880W        W40728   9.701  10.858   2.112 -0.2018  0.1499  0.2553
23881W        W40729   7.444  16.460  15.564 -0.1151 -0.0206 -0.2288
23882W        W40730   1.319   6.522   0.390  0.2323  0.1797  0.2512
23883W        W40731   8.278   8.117   2.286 -0.2770  0.1600 -0.2495
23884W        W40732  10.475   5.945   3.805  0.2221 -0.0106  0.1280
23885W        W40733   1.507  18.116   2.161  0.1640  0.1291 -0.1050
23886W        W40734  16.356   1.793   3.375  0.1562 -0.1028  0.0261
23887W        W40735   3.019   6.185   1.757 -0.0672  0.1075  0.0428
23888W        W40736  14.934  13.800  13.166  0.1041  0.0605  0.3394
23889W        W40737  13.393  15.009  16.005 -0.1041  0.3525  0.0060
23890W        W40738   8.412  13.696   4.311 -0.3054 -0.1289 -0.1993
23891W        W40739   7.297   8.065  11.471 -0.1374 -0.0670 -0.1660
23892W        W40740   1.037  11.867   2.391  0.2752 -0.0174 -0.2307
23893W        W40741  15.156  15.288  14.648  0.0220  0.1384  0.0062
23894W        W40742  16.700  11.573   1.031 -0.2453  0.0434  0.0095
23895W        W40743   2.476  11.577  11.197 -0.2272 -0.2053  0.1961
23896W        W40744  13.281   2.764  12.844 -0.0894  0.3972 -0.0205
23897W        W40745   3.886  13.983   5.686  0.3639  0.1747  0.1147
23898W        W40746  10.786   2.224  12.405 -0.4367  0.0461 -0.1903
23899W        W40747  16.327  16.853  10.293 -0.1190 -0.0306 -0.4442
23900W        W40748  12.193  12.899   0.461  0.0015 -0.2443  0.4223
23901W        W40749   5.415   2.909   4.820  0.1186  0.2345  0.1371
23902W        W40750  13.560  17.262   4.493  0.0855 -0.1572 -0.0202
23903W        W40751   4.408  13.994   1.714 -0.3781 -0.4195 -0.1531
23904W        W40752   7.927   7.527  15.416 -0.3896  0.1822 -0.0127
23905W        W40753  16.396  11.420   0.377  0.1814 -0.1240  0.1005
23906W        W40754   8.866   9.516   2.215 -0.0834  0.1127  0.1915
23907W        W40755   2.650   9.580  14.838 -0.1847 -0.0059  0.3460
23908W        W40756  10.466   9.988  11.566 -0.1549 -0.1251  0.1146
23909W        W40757   3.216   8.178   3.089  0.0461  0.0885  0.1479
23910W        W40758  14.666   5.515   2.908  0.0825  0.2317  0.2161
23911W        W40759  15.768  18.113  12.605  0.2854 -0.0001 -0.2181
23912W        W40760   2.866   3.352   4.459  0.2945 -0.0006  0.1974
23913W        W40761   4.512   0.959  11.515 -0.3765 -0.0258 -0.1954
23914W        W40762   5.261  17.839  14.115 -0.1715  0.0746  0.0922
23915W        W40763   2.860   0.859  12.615  0.0484 -0.1930  0.3191
23916W        W40764  15.282  16.424   4.444  0.2176  0.0447  0.0002
23917W        W40765   8.693  14.640  15.112 -0.1326  0.2944 -0.0462
23918W        W40766   0.771   9.438  14.213 -0.0155 -0.1738  0.0087
23919W        W40767   9.007   2.937  13.211 -0.1716  0.2785  0.3983
23920W        W40768   5.078  16.651  13.238  0.0588  0.2359  0.0035
23921W        W40769   9.440  12.169   4.587  0.1417  0.2628  0.0457
23922W        W40770   2.430   4.662  12.470 -0.3428  0.0786  0.1162
23923W        W40771   5.803  13.207  11.159 -0.0533 -0.0775 -0.2519
23924W        W40772   9.896   8.752   0.122  0.2604 -0.1136  0.0661
23925W        W40773  14.451  10.158  10.932  0.1172 -0.1860 -0.0154
23926W        W40774  12.222  14.212  16.057 -0.1272  0.0725 -0.4318
23927W        W40775   3.121   7.754  12.474 -0.2991 -0.0550 -0.1185
23928W        W40776  12.564   0.583   3.032 -0.1466 -0.2949  0.2488
23929W        W40777  18.152  17.058  15.035 -0.1603 -0.0384 -0.4790
23930W        W40778   0.215  15.465   1.205 -0.2822  0.1864  0.1475
23931W        W40779  11.954   2.041   3.851 -0.3363  0.0063  0.2973
23932W        W40780  11.938   9.131  16.003 -0.3569  0.0654 -0.4200
23933W        W40781  10.468   6.356   4.104  0.0325 -0.3462 -0.1272
23934W        W40782  16.835  10.843   3.161  0.3394 -0.1567 -0.0763
23935W        W40783  11.039  10.324   2.034 -0.1754 -0.0792 -0.1535
23936W        W40784  10.538  10.517  13.120 -0.1727  0.2836 -0.1174
23937W        W40785   1.999   7.049   4.166 -0.3738  0.0134 -0.1745
23938W        W40786  11.649   1.206  14.835  0.3204  0.1074 -0.1278
23939W        W40787   7.433   3.558  10.848 -0.1009 -0.0302 -0.1007
23940W        W40788   8.496   9.012   3.707 -0.0897  0.1387 -0.1933
23941W        W40789   4.339   8.655   1.671  0.1818  0.3528 -0.1580
23942W        W40790   4.508   8.888  11.326 -0.1161  0.0198 -0.0285
23943W        W40791   1.393  12.264  14.106 -0.3594 -0.1836 -0.0363
23944W        W40792  11.414  11.709  14.615 -0.4975 -0.1892  0.2569
23945W        W40793   7.205   0.930  13.385 -0.0377  0.0658  0.0945
23946W        W40794  16.148   4.739   0.164  0.2114 -0.2391  0.1830
23947W        W40795   1.701   9.540   3.765  0.0332  0.3532 -0.0304
23948W        W40796   9.827   6.505  10.958  0.0914 -0.1983  0.0089
23949W        W40797   0.012   3.205   4.771 -0.2873 -0.2056  0.2688
23950W        W40798  17.890  12.815   5.716  0.1821  0.1662  0.1639
23951W        W40799   5.918   2.699  15.705  0.3061  0.2712  0.1241
23952W        W40800   2.410   0.185   4.753  0.0442 -0.1037 -0.3647
23953W        W40801   5.151   4.916   0.104  0.2839 -0.1431 -0.0015
23954W        W40802   9.002   7.987  14.748  0.0098 -0.0729  0.0041
23955W        W40803   9.181   6.801  15.737  0.1573  0.0219 -0.0851
23956W        W40804   4.463   1.504   3.312 -0.1648  0.0084  0.0987
23957W        W40805   1.722  10.802  14.353 -0.0868 -0.1513  0.0252
23958W        W40806  17.570  14.198   4.024  0.0115  0.1496 -0.2045
23959W        W40807  13.907   8.952  11.232  0.0407 -0.0010 -0.0097
23960W        W40808  10.755   9.909   1.120 -0.1732  0.2751  0.1218
23961W        W40809   3.221   3.728   3.611  0.1337  0.0123  0.1551
23962W        W40810   7.843  10.540   2.180  0.2060 -0.1217  0.5144
23963W        W40811   0.623  16.545  13.635  0.1847  0.1293 -0.1151
23964W        W40812   5.062  15.494   1.446  0.0376 -0.0582  0.2509
23965W        W40813  10.896   4.412  14.495 -0.0450  0.1921  0.3540
23966W        W40814  17.730   2.632   3.569  0.2972  0.1280 -0.0946
23967W        W40815   6.515  16.044   4.895  0.1052  0.0419 -0.1003
23968W        W40816   1.694   9.155   4.162 -0.0522  0.1512  0.0340
23969W        W40817  14.100  10.435   0.390 -0.3667 -0.0540  0.0107
23970W        W40818   7.679   2.686   1.474  0.2095  0.2261 -0.0356
23971W        W40819   1.354   5.360   2.374  0.0423 -0.0166  0.0824
23972W        W40820  14.676   8.161  11.531 -0.1290 -0.1107 -0.0892
23973W        W40821   2.734  10.731  12.374 -0.0136  0.2248  0.2803
23974W        W40822   9.572  11.283  12.601  0.2357  0.1613  0.0266
23975W        W40823  10.691  12.010  13.112  0.1344  0.1182 -0.2435
23976W        W40824   4.598  12.857  15.642  0.2206  0.0871 -0.0218
23977W        W40825  10.897   8.572   2.938  0.0677 -0.1227 -0.1359
23978W        W40826   7.522   2.504   3.223  0.1571  0.0264 -0.2593
23979W        W40827  11.010  13.521  13.480 -0.2494  0.0089  0.1284
23980W        W40828   6.020  16.080   3.732 -0.0719 -0.0572 -0.1271
23981W        W40829  16.923   6.682   1.968 -0.0288  0.0329 -0.1776
23982W        W40830   2.345  14.828   4.716  0.0344 -0.0974  0.0544
23983W        W40831   3.675   3.420  12.291  0.0942 -0.1608  0.1296
23984W        W40832  15.731  16.030  13.413  0.0376 -0.1212 -0.0650
23985W        W40833   2.228   8.156   3.090 -0.2973 -0.0724  0.2827
23986W        W40834   1.336   7.960   3.976 -0.6361  0.2348 -0.2426
23987W        W40835  14.466   8.825   2.964  0.0726  0.4708 -0.0455
23988W        W40836  17.040  11.648   3.062 -0.2110 -0.0440  0.0264
23989W        W40837   6.249   8.233   1.831 -0.2390  0.1025 -0.0149
23990W        W40838  14.421  13.315  12.368 -0.4944  0.2845  0.1454
23991W        W40839   1.492  15.747  11.515 -0.1663 -0.2723  0.2783
23992W        W40840  15.645   6.370   4.306  0.0123 -0.4191 -0.1662
23993W        W40841   3.655   9.091  12.258 -0.1566 -0.0962  0.2555
23994W        W40842  11.449  16.533   0.388  0.0404 -0.1614 -0.1150
23995W        W40843   4.357  14.658  11.167  0.0323  0.1000  0.5489
23996W        W40844  11.331  14.542  12.215 -0.0900  0.1657  0.2327
23997W        W40845  17.393   5.081   0.193 -0.0869 -0.0675  0.1897
23998W        W40846  15.115  12.909  12.870 -0.1532  0.0287  0.0454
23999W        W40847  11.551  17.821  11.505 -0.2124  0.3130  0.2527
24000W        W40848   2.347  17.021   1.873  0.1557  0.0780 -0.0122
24001W        W40849  17.020   1.713   0.570  0.0654  0.0268 -0.1266
24002W        W40850  17.426   4.844  11.393 -0.2281  0.2666  0.1727
24003W        W40851   9.514   8.589  15.772 -0.1410  0.1271 -0.1692
24004W        W40852   1.426   4.180   0.914  0.2260  0.0537  0.1959
24005W        W40853  13.507  16.318   0.159  0.0825 -0.2173 -0.0105
24006W        W40854   4.493  12.996   0.190 -0.3185  0.1832 -0.1711
24007W        W40855  18.043  11.328   3.988 -0.2037 -0.1035 -0.0508
24008W        W40856   0.060   9.382  14.504 -0.1123 -0.0394  0.0779
24009W        W40857  11.779  13.252  15.855 -0.0217  0.2313  0.4267
24010W        W40858  11.317  15.582  15.406 -0.1553 -0.1539  0.1554
24011W        W40859  11.244  14.450   0.940 -0.1724 -0.1512  0.0602
24012W        W40860   7.213  16.578  11.185 -0.0822  0.2338 -0.1059
24013W        W40861   5.081  16.450   1.521  0.0340  0.2056  0.3634
24014W        W40862  13.330   7.872  13.978  0.1778  0.1322 -0.2311
24015W        W40863   2.562   2.941  15.301  0.1253 -0.1825  0.1422
24016W        W40864   7.764   7.984  11.781 -0.2026 -0.2064 -0.1558
24017W        W40865   2.811  14.452   2.064  0.2981  0.3742 -0.2596
24018W        W40866  14.659  17.367  15.677 -0.3231  0.1273 -0.0762
24019W        W40867  17.442   4.540   2.104  0.1869  0.0436 -0.2851
24020W        W40868  11.956  17.084   4.793 -0.3526  0.1277  0.1693
24021W        W40869  14.353  11.277  13.939  0.1367 -0.0086 -0.1138
24022W        W40870  10.322  12.484  14.991 -0.1896 -0.2063 -0.0259
24023W        W40871  16.110   2.876   1.550  0.2450  0.0257 -0.1626
24024W        W40872  15.426  14.560  15.195  0.1609 -0.2559 -0.3582
24025W        W40873   5.055   9.672   4.694  0.1440 -0.1711  0.0806
24026W        W40874  15.488   9.827   5.034  0.1214  0.1138 -0.1093
24027W        W40875  14.336  12.444   3.875 -0.0817 -0.0623 -0.1021
24028W        W40876   4.485  13.895   2.839 -0.0968  0.1838  0.1228
24029W        W40877  17.870   3.285  15.827 -0.1476  0.0686  0.1553
24030W        W40878  18.124   6.401  14.800  0.2147 -0.0102  0.1769
24031W        W40879   1.168  13.715  15.186  0.2142  0.0234 -0.0688
24032W        W40880   2.497   0.650  11.547  0.1006  0.0986  0.2683
24033W        W40881   2.771   2.660   2.151 -0.0184 -0.1420 -0.1681
24034W        W40882   4.659  10.566  13.985 -0.0298 -0.0583  0.1099
24035W        W40883  12.541   7.821   5.357  0.3396  0.0121  0.1624
24036W        W40884   7.296   7.649   5.060  0.2875 -0.0791  0.2391
24037W        W40885   4.398   8.672   4.119  0.2994 -0.0030  0.0063
24038W        W40886   7.378  14.465   4.507  0.3094  0.0138 -0.4098
24039W        W40887  13.475   0.013  11.231 -0.0922  0.0348 -0.0806
24040W        W40888   0.704   4.387  13.137  0.1303 -0.1427 -0.1519
24041W        W40889  16.773   9.187   0.065 -0.0649 -0.0588 -0.3251
24042W        W40890  14.663   7.131  11.862  0.2099  0.4043 -0.0916
24043W        W40891   1.912  12.720  14.895 -0.2776 -0.0133  0.0212
24044W        W40892   8.765   1.527  13.972  0.0467 -0.0231 -0.3414
24045W        W40893  16.707   5.986  11.103 -0.0356  0.0232  0.0806
24046W        W40894  13.842  15.402   2.041  0.1945 -0.0680  0.2397
24047W        W40895  15.909  10.875   3.566 -0.3530  0.4353 -0.0243
24048W        W40896  13.013  14.796   2.041 -0.1028  0.1234  0.1429
24049W        W40897  12.397   4.724   1.511  0.1053  0.0905  0.1096
24050W        W40898   3.721   8.906   0.911 -0.4671  0.1224  0.2489
24051W        W40899  11.909  12.278   2.370 -0.0632 -0.1918 -0.0394
24052W        W40900   9.428  14.116  14.797 -0.0047  0.2852  0.1081
24053W        W40901   4.511   7.759  15.965 -0.1570 -0.1590 -0.4117
24054W        W40902  15.165   9.920   2.460 -0.0882  0.2213  0.0167
24055W        W40903   8.428   1.066  16.071 -0.1106  0.4156 -0.1509
24056W        W40904  10.644   3.851  13.251  0.1646  0.1894 -0.2615
24057W        W40905  15.540  17.326  12.591  0.0208 -0.1180 -0.0025
24058W        W40906  12.375  17.540   2.818  0.4024  0.3637 -0.1617
24059W        W40907   5.183  11.116   0.226  0.2507 -0.2737  0.2829
24060W        W40908   3.449   2.711   5.374  0.2292 -0.0495  0.0246
24061W        W40909   2.647  15.976  14.208  0.2397  0.0994  0.3709
24062W        W40910  12.547   2.116   3.923 -0.0562  0.0019 -0.1038
24063W        W40911  10.481  15.792  12.716  0.0773  0.3842 -0.1991
24064W        W40912   2.717  13.601  12.744  0.1620  0.2091 -0.0316
24065W        W40913  14.119   0.624  11.115  0.1494 -0.1689  0.0462
24066W        W40914   2.290   3.036  15.719 -0.1658  0.3663 -0.0273
24067W        W40915  10.807   0.854  14.397 -0.2646 -0.1595 -0.0938
24068W        W40916   8.039  15.983   0.819  0.1593 -0.0671  0.0123
24069W        W40917   4.362  16.297   2.424  0.1858  0.0270 -0.0493
24070W        W40918   5.750  14.619  15.820 -0.2155  0.0223 -0.0398
24071W        W40919  16.013   9.676   2.330  0.1549  0.3179 -0.1296
24072W        W40920  12.665   5.397  11.278 -0.0271 -0.2162 -0.1653
24073W        W40921   8.338  17.784   0.914  0.0195 -0.0278 -0.0101
24074W        W40922   5.660   2.336   3.884 -0.1341  0.0444  0.0429
24075W        W40923   6.694  11.136  11.894 -0.0336  0.2696 -0.0086
24076W        W40924   4.773   1.502   0.697 -0.2176 -0.1400 -0.0189
24077W        W40925  13.104  14.382  14.383 -0.0055  0.0683  0.1292
24078W        W40926   2.449  10.922  14.195  0.0122 -0.0063 -0.1082
24079W        W40927   3.015  15.546  10.728  0.0416  0.1528 -0.1220
24080W        W40928   6.122   2.295   3.317  0.1890 -0.0861  0.0441
24081W        W40929   0.193  14.591  15.599  0.1974  0.2372  0.0260
24082W        W40930   6.949  10.223  13.092 -0.0838  0.2911  0.2283
24083W        W40931   5.479   3.755  13.119 -0.1482 -0.0706 -0.2690
24084W        W40932   6.315   9.455  12.666  0.0133 -0.0172 -0.2057
24085W        W40933  10.959   3.418  15.371 -0.0304  0.2417  0.0293
24086W        W40934  11.070  15.825  11.858  0.0128  0.0421  0.1603
24087W        W40935   8.033   8.774  13.814 -0.1120 -0.2036  0.1665
24088W        W40936  12.208   1.890   5.363  0.2069  0.1823 -0.0145
24089W        W40937  16.752  17.228  13.819 -0.3734 -0.1984  0.1491
24090W        W40938  15.080   0.542  13.645  0.3899  0.1186  0.2209
24091W        W40939   6.679  16.059  12.582 -0.1668 -0.2095 -0.4745
24092W        W40940   2.850  13.066  14.768 -0.2173  0.0894  0.1529
24093W        W40941   8.740  17.992   4.406 -0.0393  0.0420  0.0452
24094W        W40942  15.402   9.005  14.465  0.1403  0.2621 -0.1016
24095W        W40943  13.883   2.687  15.503 -0.0558 -0.4332  0.0471
24096W        W40944  13.086   0.576  13.322  0.0793  0.2687  0.0014
24097W        W40945  16.232   5.741  11.303 -0.3495  0.0097 -0.2046
24098W        W40946  14.424   6.033  10.200  0.0367 -0.0664  0.0248
24099W        W40947  17.904  16.509  13.947 -0.1040 -0.1927 -0.1582
24100W        W40948   9.401  17.357  12.996  0.0679  0.4689 -0.0071
24101W        W40949  13.399  11.643   4.251  0.5079 -0.1508 -0.0356
24102W        W40950  10.230   4.327   3.352  0.0719 -0.0717 -0.1056
24103W        W40951  14.103  10.747   1.697 -0.0454  0.0011  0.2862
24104W        W40952   1.950   7.435   2.419 -0.2938 -0.0071  0.2989
24105W        W40953   3.310   5.185   1.057  0.3070 -0.1607  0.1170
24106W        W40954   3.118  10.919   4.111 -0.1816 -0.0766 -0.0279
24107W        W40955  12.067   9.093  14.372 -0.1468  0.2567 -0.1161
24108W        W40956   1.774  17.729   2.473 -0.1607 -0.1212 -0.2271
24109W        W40957  17.856   1.150   0.238 -0.0581  0.0127  0.1489
24110W        W40958  12.420   3.290  12.234  0.0024 -0.0913 -0.2547
24111W        W40959  14.580   9.062  12.101  0.4741  0.0137  0.0318
24112W        W40960  13.400  14.104   2.416 -0.0707 -0.1369 -0.2021
24113W        W40961  17.172   6.428  14.848  0.2658  0.4792 -0.2653
24114W        W40962  10.731  16.449   5.059 -0.1553 -0.0629  0.2386
24115W        W40963  13.516  13.068   3.021  0.0667  0.1556 -0.0238
24116W        W40964  17.856   6.099  12.050  0.1920  0.1840 -0.1872
24117W        W40965   0.286  15.067  15.459  0.0795 -0.0728 -0.2075
24118W        W40966  13.984   1.085   4.065 -0.0729  0.1426  0.2450
24119W        W40967  13.548   5.193   2.956 -0.0441  0.0696  0.0539
24120W        W40968   1.217   1.684   1.570 -0.1054  0.0224 -0.0067
24121W        W40969  10.330  16.145   3.505 -0.1052 -0.1063  0.0046
24122W        W40970   9.119  13.905   2.585  0.0965 -0.1359 -0.0163
24123W        W40971   1.206  15.434  15.036 -0.1584  0.0523 -0.0493
24124W        W40972  15.595  11.210   2.037 -0.3583  0.3091  0.0872
24125W        W40973   0.942   7.412  10.763 -0.2711  0.0152  0.1920
24126W        W40974  14.779   5.623  14.427  0.1860 -0.3186 -0.0877
24127W        W40975   2.994   3.936  12.420 -0.0709  0.3362 -0.0838
24128W        W40976   6.635  15.970  11.467  0.2413  0.0328  0.4567
24129W        W40977  12.415   8.885  12.653 -0.1022 -0.0126 -0.0118
24130W        W40978  12.160  16.228   2.597 -0.0472 -0.1942 -0.2790
24131W        W40979  10.336   7.228  13.938  0.0894 -0.0844  0.0143
24132W        W40980  17.407   8.841   6.077  0.1755 -0.0376  0.1962
24133W        W40981   7.961  11.202   4.940  0.0399 -0.1061 -0.2335
24134W        W40982   2.732   3.919  15.260  0.1201  0.0458  0.0997
24135W        W40983   5.845   0.060  12.498  0.2229 -0.2912 -0.0533
24136W        W40984  15.395   0.653   2.306 -0.1500 -0.2586  0.1433
24137W        W40985  17.339  13.381  12.192 -0.0376 -0.0547 -0.3196
24138W        W40986   8.364  15.181  14.016 -0.0351  0.0103 -0.0407
24139W        W40987   8.597   3.203   4.949  0.2768 -0.0483 -0.0574
24140W        W40988   7.005   1.516  11.092 -0.2037  0.0451  0.0982
24141W        W40989  10.631   2.211  14.614  0.0160  0.0376  0.1701
24142W        W40990  14.689   8.927   3.489 -0.3569 -0.2137  0.0434
24143W        W40991   2.879   0.052   5.369 -0.0633  0.0511  0.2262
24144W        W40992  11.326  15.782   1.263 -0.1375 -0.3491  0.0417
24145W        W40993  14.078   0.170   4.699 -0.0453 -0.3996 -0.1998
24146W        W40994   0.821   9.326  15.590 -0.1742 -0.0924 -0.1382
24147W        W40995  11.331  14.816   0.606 -0.1920  0.1061 -0.0638
24148W        W40996  16.246   3.891  14.077 -0.0017 -0.1366  0.2197
24149W        W40997   5.538   6.568  12.821 -0.1215 -0.0849  0.1138
24150W        W40998   0.079  15.386  15.814 -0.0463  0.1495 -0.1854
24151W        W40999  13.656   0.150   4.450  0.0759 -0.1146 -0.0377
24152W        W41000  17.329  16.249  12.091  0.2050 -0.1628  0.0820
24153W        W41001  14.882  11.991   5.269 -0.0303  0.1602 -0.3578
24154W        W41002   2.880  10.308   3.472 -0.1132  0.0721  0.1108
24155W        W41003   0.389   9.692  14.005 -0.1993 -0.2367  0.1402
24156W        W41004  16.753   9.523  14.005 -0.0063  0.3582 -0.0182
24157W        W41005  15.430   9.482  14.641 -0.1710 -0.1951 -0.1660
24158W        W41006   0.860  15.191  12.468  0.0991  0.1203  0.0988
24159W        W41007   0.866   3.287   4.382 -0.1446  0.0021 -0.2871
24160W        W41008   3.072  13.611   2.092 -0.1347  0.1776  0.2632
24161W        W41009   6.761  10.280   4.847  0.2315  0.1118  0.1714
24162W        W41010  15.409  14.033   3.138  0.1660  0.1304  0.1987
24163W        W41011  14.132  13.853   2.394 -0.1173 -0.1511 -0.1477
24164W        W41012  15.486   4.611   3.933  0.0924  0.2301  0.0324
24165W        W41013   5.859  17.865   3.903  0.1805 -0.1361  0.2607
24166W        W41014   1.138  15.915   4.282  0.2745 -0.1316 -0.0690
24167W        W41015   6.553  14.819   1.505  0.0163 -0.0035 -0.0242
24168W        W41016  17.428   3.219  11.684  0.0769 -0.1720 -0.2403
24169W        W41017   3.260   9.638   1.342 -0.1282 -0.1196  0.0524
24170W        W41018   4.207  10.027   3.991  0.0286 -0.1056  0.0463
24171W        W41019   5.539   1.882  12.725 -0.1600 -0.1174 -0.0394
24172W        W41020  15.332   5.180  11.710 -0.1906 -0.1918 -0.0643
24173W        W41021   1.662   2.644  10.591  0.0312 -0.3424  0.2068
24174W        W41022   9.084   0.295  12.446 -0.0308  0.0477 -0.0254
24175W        W41023  15.151  13.712  11.850  0.0607  0.4664  0.1251
24176W        W41024   2.386   8.613   5.062  0.3259  0.1581  0.3363
24177W        W41025   0.125  11.065  15.391 -0.2131 -0.2975  0.2236
24178W        W41026   3.525   9.019   2.003  0.0409  0.3045  0.2132
24179W        W41027   1.685  17.022  13.510 -0.2332 -0.1556 -0.5585
24180W        W41028   7.801   6.452  13.685 -0.2339  0.0940 -0.0348
24181W        W41029  16.242  10.963   0.481 -0.1433 -0.1164  0.3387
24182W        W41030  15.166   2.857   0.325 -0.1140 -0.1543  0.1012
24183W        W41031   0.149  13.900   1.370 -0.1564  0.0287 -0.0988
24184W        W41032   5.490  10.365  12.829  0.2079  0.1068  0.1422
24185W        W41033   7.767  14.472  13.342  0.3516  0.1163  0.0459
24186W        W41034  11.210   7.270  10.207  0.0754 -0.0310  0.0422
24187W        W41035   8.315  15.474  15.762 -0.0754  0.3309  0.0217
24188W        W41036   9.024   5.799  15.614 -0.4252  0.0446 -0.1392
24189W        W41037  16.281   2.420  12.611 -0.0784 -0.1973  0.0968
24190W        W41038   4.530  14.847  13.822 -0.1094 -0.1617 -0.1133
24191W        W41039  13.713   3.537  14.688 -0.1183  0.1092  0.0660
24192W        W41040   5.562  10.894   2.518  0.0185  0.0890  0.3560
24193W        W41041  13.479  17.969   4.857  0.0659 -0.0009  0.2121
24194W        W41042  12.298   2.913   2.377 -0.2020  0.0318 -0.1409
24195W        W41043  14.398  10.298  15.024  0.2140  0.1993 -0.0315
24196W        W41044   2.021   1.260  11.272  0.0005  0.0606  0.1926
24197W        W41045   4.449  12.027  12.261 -0.1677 -0.4321  0.0788
24198W        W41046   9.221   6.338  13.081  0.1120 -0.0652 -0.1214
24199W        W41047  11.158   4.891   0.387 -0.0407 -0.0960  0.1850
24200W        W41048  15.705   6.937   3.476  0.4929  0.0552  0.2195
24201W        W41049   3.433   0.919  15.753  0.0378 -0.0485 -0.0181
24202W        W41050   7.844   8.429  14.066 -0.0175  0.3600 -0.0697
24203W        W41051  16.981   8.929   5.724  0.2139 -0.2779 -0.0505
24204W        W41052  14.145   3.507  14.435 -0.2905 -0.1166 -0.0065
24205W        W41053   0.658  13.238  11.777 -0.0740  0.2774  0.2193
24206W        W41054  14.063  16.435   0.096 -0.0271 -0.2869 -0.1151
24207W        W41055   6.392   4.680   1.102  0.1838 -0.1991  0.0926
24208W        W41056  11.917   6.738   3.217 -0.1603  0.2882  0.3236
24209W        W41057   7.757  12.980   2.282 -0.0331 -0.1685 -0.0854
24210W        W41058   0.168   4.257   2.000 -0.2714 -0.1057  0.1402
24211W        W41059   5.344  11.071  15.851 -0.0183  0.4110  0.2775
24212W        W41060   4.620   0.248   5.480 -0.1255  0.3397 -0.1246
24213W        W41061  17.941   6.481  14.337 -0.2540 -0.1740 -0.0359
24214W        W41062  17.607  16.641  13.445 -0.1558  0.3106 -0.1286
24215W        W41063   4.338   0.504  11.665 -0.4100  0.0364 -0.0071
24216W        W41064   8.139  15.328   3.917  0.0365 -0.1483 -0.2201
24217W        W41065   8.609  10.595   0.620  0.1685 -0.1123 -0.0332
24218W        W41066  12.449   7.668   1.712  0.0931 -0.2450 -0.2091
24219W        W41067   7.302  13.380  15.577  0.3596  0.0643  0.2911
24220W        W41068   7.557  12.708  13.448  0.3479 -0.3459 -0.1152
24221W        W41069  15.442   1.848   1.578  0.4330  0.1830 -0.0136
24222W        W41070   6.660  13.698   2.294  0.1195 -0.0048  0.3054
24223W        W41071   8.171   4.044  11.505  0.0888  0.0636  0.1682
24224W        W41072   1.810  10.898   0.984  0.0165  0.0950  0.0790
24225W        W41073   2.697   3.666   4.895 -0.4225 -0.7322 -0.0996
24226W        W41074   4.691   3.337  12.836  0.0500 -0.0313  0.0237
24227W        W41075   0.213   3.853  15.621 -0.0811 -0.2127  0.0390
24228W        W41076  14.572  15.010  15.136  0.0983  0.0141  0.6043
24229W        W41077   7.034  12.593   2.628 -0.2118 -0.1012 -0.1728
24230W        W41078   3.317   0.961  15.240  0.0413  0.0167 -0.0241
24231W        W41079  13.478   0.180  13.146 -0.0721 -0.3010  0.1517
24232W        W41080   8.393   6.319   3.483  0.0705  0.1699  0.1259
24233W        W41081   0.345   0.832   0.824 -0.0322 -0.1655 -0.2450
24234W        W41082  16.270   2.496   3.222 -0.0668 -0.2878 -0.0243
24235W        W41083  10.822   8.616   5.058  0.0846  0.2542 -0.3484
24236W        W41084  10.630   2.490  13.319 -0.0291 -0.0028  0.0476
24237W        W41085  17.476   7.455   3.647  0.1715  0.0199 -0.1816
24238W        W41086  16.638   4.549  11.171  0.1769 -0.2545  0.0940
24239W        W41087  16.480   2.737   0.740  0.2707 -0.0031  0.1251
24240W        W41088   2.121   5.982  13.485  0.0919  0.1411 -0.2526
24241W        W41089  13.725   8.347  15.706  0.2403 -0.1546 -0.5227
24242W        W41090  15.500   5.432  13.900  0.2782  0.2397 -0.1048
24243W        W41091   4.239   7.200   0.676  0.1733  0.0669 -0.2181
24244W        W41092  11.180   3.181   2.046 -0.0554  0.0729  0.2004
24245W        W41093   2.478  13.153  13.009 -0.2270  0.1226 -0.2301
24246W        W41094  17.273  16.547   4.455  0.2172 -0.0990 -0.2250
24247W        W41095   7.049   9.469   3.783 -0.0474 -0.2519 -0.0149
24248W        W41096   2.611  16.081   4.624 -0.2510 -0.0766  0.0197
24249W        W41097  14.061  10.122  12.471  0.0873  0.1344  0.1043
24250W        W41098  11.037   7.936  11.518 -0.1154 -0.2387 -0.3036
24251W        W41099   1.198  11.341  11.206 -0.0480 -0.2259 -0.0126
24252W        W41100   2.997   8.486  12.005  0.1084  0.0749  0.2880
24253W        W41101   9.488  10.840   2.583  0.2402 -0.2235  0.0268
24254W        W41102  14.096   0.363  11.592 -0.1334 -0.0408  0.2167
24255W        W41103  12.272   0.340  15.045 -0.3164  0.0253 -0.2239
24256W        W41104   5.829  11.249   0.973 -0.0672  0.0627  0.0636
24257W        W41105  12.855  13.186   4.180 -0.0922 -0.1713  0.4801
24258W        W41106   4.924  14.593   4.365  0.1094 -0.0355  0.0678
24259W        W41107   0.614  13.424   3.166 -0.2786  0.1672 -0.2929
24260W        W41108   4.264  11.996  13.190 -0.0376 -0.1035  0.0338
24261W        W41109   2.296  12.033   5.379  0.1875 -0.0362 -0.1600
24262W        W41110   1.747  15.290   2.637  0.1356  0.2670  0.2323
24263W        W41111   0.237  16.411   1.703  0.0528 -0.0521 -0.0378
24264W        W41112   9.341   4.984  15.854 -0.3931 -0.1565 -0.0133
24265W        W41113   5.377   6.771  13.226  0.2755 -0.2628  0.1315
24266W        W41114  12.266  15.757   0.298  0.0904  0.0178  0.1670
24267W        W41115  13.589  10.227   3.750 -0.1082  0.0123  0.0591
24268W        W41116   7.505  14.078   0.878  0.0706  0.2671  0.1963
24269W        W41117   3.200  15.631  11.698 -0.2244 -0.1536 -0.0997
24270W        W41118  14.296  12.654   1.154  0.1409 -0.1189 -0.1636
24271W        W41119   0.454  13.231   0.884  0.1516 -0.2608 -0.0048
24272W        W41120   7.777   2.287  14.144 -0.0681 -0.1696  0.4052
24273W        W41121   8.099   7.952  15.848 -0.0020 -0.1055 -0.1296
24274W        W41122  15.503  17.958   2.447  0.0723 -0.1856  0.1023
24275W        W41123   5.298   2.510   3.476  0.2967 -0.1085  0.1821
24276W        W41124  12.479  16.643  14.812  0.1905  0.2611 -0.5669
24277W        W41125  12.390  15.921   5.277  0.1056 -0.2514  0.3216
24278W        W41126  17.718   6.964   2.317  0.1503 -0.0875  0.0343
24279W        W41127  16.344  12.896  14.944  0.0881  0.0148 -0.0139
24280W        W41128   7.987   5.862  10.445 -0.0391 -0.0288  0.0434
24281W        W41129  15.346   7.872   0.360 -0.0718 -0.1674  0.1643
24282W        W41130   1.040  15.592   3.949  0.2992 -0.1121  0.2519
24283W        W41131   9.041   2.871  15.739 -0.0187 -0.0098  0.0169
24284W        W41132  10.584   8.385  15.929  0.1478  0.0369  0.0210
24285W        W41133  11.000  15.720   0.601  0.0438 -0.2928 -0.1264
24286W        W41134  18.082  12.659  13.661 -0.0918  0.0777 -0.1749
24287W        W41135   9.361   5.158   1.979  0.0519  0.0030  0.2710
24288W        W41136  16.490   0.374   1.931  0.0174  0.0622 -0.2174
24289W        W41137   7.913  16.132   4.971  0.1470  0.1459  0.0872
24290W        W41138   8.448   8.544  13.861  0.0744  0.2314 -0.0861
24291W        W41139   4.047   0.359  15.316 -0.0515  0.0099 -0.2196
24292W        W41140  11.924   6.346  13.160 -0.1983  0.1419  0.1407
24293W        W41141   7.397  11.996  10.811  0.1571  0.1427  0.0585
24294W        W41142   3.657   2.405  11.102  0.0540 -0.0923  0.3588
24295W        W41143   4.472  17.279   5.114  0.2843 -0.0728 -0.2546
24296W        W41144  10.678  17.384  12.379 -0.1130  0.0643  0.1434
24297W        W41145  11.005  17.903   2.633  0.0663 -0.3736 -0.0412
24298W        W41146  17.266   3.266   3.916 -0.1316  0.1553 -0.1898
24299W        W41147   2.847  15.890   3.217  0.0419 -0.0816  0.0985
24300W        W41148  15.001   7.338   6.204 -0.2849 -0.0493 -0.2983
24301W        W41149  14.167  17.445  11.237  0.1199 -0.0559  0.2913
24302W        W41150   1.311   6.378   0.858  0.0101  0.1261  0.2075
24303W        W41151   3.697  15.410   3.454 -0.1327  0.0648  0.0644
24304W        W41152   3.932   5.984   2.506  0.0976 -0.0350 -0.0943
24305W        W41153   0.823   2.536  15.923 -0.0189 -0.1861  0.0629
24306W        W41154  14.847   2.213  12.848 -0.1739 -0.0889 -0.0791
24307W        W41155  16.469  11.148  13.757 -0.1421 -0.4877 -0.2527
24308W        W41156  18.207  15.464  12.852  0.4131 -0.2319 -0.0878
24309W        W41157  17.395  17.297  13.035 -0.2591  0.1919  0.0271
24310W        W41158   6.844   4.023   0.656  0.1379  0.0753  0.2341
24311W        W41159  16.871   0.463   0.762 -0.0720 -0.2023  0.3007
24312W        W41160  14.609  14.458   3.341  0.0864  0.0192 -0.5618
24313W        W41161   5.017  15.488  14.079  0.0719 -0.0838 -0.0800
24314W        W41162   4.620   2.444   2.987 -0.0593  0.0690  0.1787
24315W        W41163  18.178   8.658  15.545  0.2481  0.3382 -0.1609
24316W        W41164   6.885  12.990  14.817  0.0273  0.0572 -0.4428
24317W        W41165   2.114  12.696   4.337  0.0345  0.0552 -0.1397
24318W        W41166  13.641  17.442  13.693  0.1005  0.1256  0.0686
24319W        W41167   3.419   2.916  11.634 -0.5554 -0.0693  0.0728
24320W        W41168   9.963  12.352  12.383 -0.5350  0.2164  0.0882
24321W        W41169   2.139   5.184   0.554  0.2602 -0.2625  0.1051
24322W        W41170   6.174  13.139   0.584 -0.0574 -0.2091 -0.3695
24323W        W41171  11.381  17.533  14.748 -0.2774  0.0572 -0.1031
24324W        W41172   1.004  12.336  12.720  0.1128 -0.2348  0.1792
24325W        W41173   0.168   6.929  15.136  0.0531 -0.1549  0.1420
24326W        W41174   5.640  15.345  11.708 -0.2516  0.0795 -0.3022
24327W        W41175  15.122  14.963   2.650 -0.1170  0.0821 -0.0093
24328W        W41176   0.950   3.041  13.285 -0.2761 -0.0075  0.0235
24329W        W41177  15.670  13.773   1.215 -0.2161  0.0942  0.0999
24330W        W41178  13.836  12.521  11.876 -0.2405  0.0764  0.2452
24331W        W41179  17.615  17.624  13.420  0.0768  0.1595 -0.1713
24332W        W41180  16.854   7.885  12.105 -0.1947 -0.0573 -0.0441
24333W        W41181   7.678  16.830  13.659  0.1216 -0.0125 -0.0253
24334W        W41182   8.487  16.430   4.017  0.2184 -0.1069  0.0580
24335W        W41183  10.369   0.416  13.634  0.2250 -0.1164  0.0596
24336W        W41184   3.152   6.717   1.992  0.1932  0.1167 -0.2248
24337W        W41185   8.749   0.549  14.938  0.0179  0.3613 -0.0233
24338W        W41186  11.145  16.188   4.940 -0.1069  0.0063 -0.1177
24339W        W41187   6.791   9.268   4.216 -0.1967  0.1057  0.1821
24340W        W41188   1.112  13.115  10.963  0.0970  0.4009 -0.1618
24341W        W41189   4.739  18.028  12.906  0.2915 -0.0159  0.2308
24342W        W41190   8.596  10.150  13.635  0.0861 -0.0803  0.0405
24343W        W41191  14.984  10.658   1.858 -0.0986 -0.1524  0.0586
24344W        W41192  15.540   9.230   3.148  0.0085 -0.1740 -0.0329
24345W        W41193   8.261   7.146  13.344  0.0887 -0.0391  0.0659
24346W        W41194   3.745   9.717  11.273 -0.0163 -0.2420  0.1169
24347W        W41195   6.390  14.655  14.407  0.2114  0.2209 -0.2312
24348W        W41196  16.227  14.005   1.368  0.2739  0.0066 -0.1154
24349W        W41197  15.078  16.970  15.727  0.0843 -0.1127  0.1366
24350W        W41198   2.568  10.845   4.894 -0.2095  0.1911  0.0116
24351W        W41199   8.407  11.282  13.166 -0.1107 -0.0671  0.4649
24352W        W41200  15.918   8.586  11.937 -0.0593  0.2853 -0.0559
24353W        W41201   0.243  13.601  13.635  0.1186  0.1768  0.0428
24354W        W41202  10.374  16.268  12.602  0.0346  0.1530 -0.0259
24355W        W41203   0.860   4.082   4.445  0.0215  0.1218  0.2477
24356W        W41204   1.087   8.742   0.219 -0.0107  0.1802 -0.0160
24357W        W41205   6.496   1.682  12.986 -0.1999  0.2313 -0.1187
24358W        W41206   7.713  11.715   1.629  0.0208  0.0892  0.0073
24359W        W41207   8.916  16.072   0.844  0.0278 -0.0283 -0.0111
24360W        W41208   1.081   1.400  13.019 -0.0765  0.3679 -0.1162
24361W        W41209   5.712   2.836   1.949 -0.1212  0.2278  0.1802
24362W        W41210   0.819   4.149  15.654  0.1161 -0.1098  0.0164
24363W        W41211  14.640   0.881   4.385  0.3875 -0.0077 -0.0802
24364W        W41212   9.931  13.393   1.736 -0.0107  0.0818 -0.1104
24365W        W41213   8.185  17.426  11.012 -0.0066  0.1801 -0.0284
24366W        W41214   3.876   3.180   0.503  0.1114  0.4345 -0.0392
24367W        W41215  12.024   2.346   1.140 -0.2519  0.0899  0.1161
24368W        W41216  10.903  11.162  12.435 -0.3058  0.1175  0.1021
24369W        W41217   8.148   8.145   3.983  0.0213  0.0332  0.4123
24370W        W41218   5.898   8.916   3.186  0.1756  0.0286 -0.0262
24371W        W41219   7.412   9.078  14.665  0.0670 -0.2436 -0.1345
24372W        W41220  12.324  16.438  12.434 -0.1570 -0.2679  0.1047
24373W        W41221  16.076  14.321   1.808  0.1316 -0.0239 -0.0824
24374W        W41222  12.467  18.087  11.689 -0.2411 -0.1105 -0.1939
24375W        W41223  10.863   2.406  11.514  0.0649 -0.0988 -0.0196
24376W        W41224   9.709   9.899  14.145  0.2673 -0.0383  0.0945
24377W        W41225  13.158   4.439   1.647 -0.0941  0.0685  0.2894
24378W        W41226   2.933  10.106  14.665 -0.2081 -0.0273 -0.2076
24379W        W41227  17.957  10.118   4.776 -0.1094  0.1444 -0.1595
24380W        W41228   5.739  12.932  13.272 -0.1927  0.1488 -0.2962
24381W        W41229   7.902  10.123  14.331 -0.0307  0.1150  0.2406
24382W        W41230  17.919  11.874  15.226  0.0477 -0.0464  0.0748
24383W        W41231   7.149   5.879   0.027  0.0868  0.1403 -0.0373
24384W        W41232   2.823  17.451   0.685 -0.0200  0.2394 -0.5423
24385W        W41233   7.372   4.764  11.555 -0.2375 -0.0991  0.0879
24386W        W41234  11.984  17.062   2.099 -0.1833 -0.1369  0.1119
24387W        W41235  13.157   8.046  11.019 -0.1700  0.1933  0.0325
24388W        W41236  18.166   8.197   3.825  0.5452  0.0690 -0.3374
24389W        W41237   2.089   0.188  11.477 -0.0179 -0.0025 -0.0051
24390W        W41238   2.847  12.539  15.028 -0.1108 -0.2810  0.1274
24391W        W41239  10.295  13.216  10.071  0.0141 -0.3382 -0.1437
24392W        W41240   5.066   9.907   0.412 -0.1440 -0.0201  0.0040
24393W        W41241  11.410  13.054   1.303  0.1231 -0.1798 -0.0413
24394W        W41242   3.662   6.280  14.575 -0.1057  0.0318 -0.0980
24395W        W41243  11.770  15.716   1.560  0.1734  0.1890 -0.3108
24396W        W41244  13.597   3.755   2.639 -0.1565  0.3100 -0.1187
24397W        W41245   3.250   8.428  14.115  0.2429 -0.0889  0.1493
24398W        W41246   6.061  14.579   0.658 -0.0621  0.2935 -0.2364
24399W        W41247   9.370   4.081   4.932  0.3960 -0.1306  0.0091
24400W        W41248  14.083   5.297  13.031 -0.1025  0.1156  0.1366
24401W        W41249  16.095   7.387   5.511  0.0084 -0.1744  0.2718
24402W        W41250   0.543   7.336  12.119 -0.2615 -0.2665 -0.1319
24403W        W41251   6.241  10.911   2.185  0.1214  0.0022  0.2632
24404W        W41252   6.395   1.147   6.237  0.1279 -0.2440  0.2539
24405W        W41253  17.625   2.589   3.062  0.0510  0.0503 -0.0889
24406W        W41254  14.254  12.899  11.130 -0.0691  0.2767 -0.0280
24407W        W41255  12.607  11.388  11.408 -0.2618  0.1033  0.0316
24408W        W41256   2.131  14.867  15.935  0.3075 -0.0827  0.3978
24409W        W41257  13.581   5.798   1.628  0.0848  0.1387  0.5444
24410W        W41258   1.331   3.240  12.966 -0.0771 -0.0259 -0.1576
24411W        W41259   7.726  17.024   2.443 -0.2108 -0.2265 -0.3832
24412W        W41260  14.054   5.020  10.837 -0.1099  0.0773 -0.3472
24413W        W41261   1.136   0.799  14.463 -0.0067  0.1410  0.1629
24414W        W41262  16.699  13.240   4.906  0.0612 -0.0893 -0.0371
24415W        W41263   5.426   0.936   1.651 -0.0526  0.0392  0.2468
24416W        W41264   1.278   2.284  15.094 -0.3530  0.1346  0.0217
24417W        W41265  15.154  14.378   4.774  0.1574 -0.0725 -0.1166
24418W        W41266   6.480   3.328   1.821 -0.1974  0.2316 -0.1130
24419W        W41267  16.090  11.496  15.402 -0.1596  0.3365 -0.1735
24420W        W41268  10.079   8.185   4.453 -0.1714 -0.1710  0.0068
24421W        W41269   7.682   2.849  12.467  0.0312  0.2411 -0.2799
24422W        W41270  12.094  10.216   3.089  0.0532 -0.1682 -0.3534
24423W        W41271  16.154   2.428  12.022  0.0192  0.3904 -0.1342
24424W        W41272  15.056   8.618  16.043  0.0334  0.1632  0.1120
24425W        W41273   3.426  10.165   3.463  0.1520  0.0104  0.0128
24426W        W41274  17.418  17.035   0.875 -0.0212 -0.0901  0.1833
24427W        W41275  10.762   1.507  16.056 -0.1344  0.2627  0.2613
24428W        W41276  16.511   4.776  14.273  0.0864 -0.3170  0.1060
24429W        W41277   8.451   8.612   2.350  0.3493 -0.0612  0.2125
24430W        W41278   5.231  14.485   4.868 -0.2009 -0.0906 -0.5910
24431W        W41279  16.702   2.019  15.816 -0.1370  0.0253  0.1307
24432W        W41280  14.270   6.659   4.374 -0.2217  0.0180  0.0230
24433W        W41281  11.412  13.464   2.800 -0.5343 -0.2152  0.3710
24434W        W41282  12.293  13.105   4.817 -0.1652  0.1336 -0.0741
24435W        W41283   2.945   8.692   0.180  0.0582 -0.1025 -0.2152
24436W        W41284  16.398  17.887  12.703  0.0765 -0.0167  0.1697
24437W        W41285   5.739   8.805  13.925  0.0456 -0.0178  0.2051
24438W        W41286  17.283   9.579   3.998 -0.1495 -0.1019 -0.0335
24439W        W41287  11.838  12.516   0.421  0.0880  0.0731  0.0448
24440W        W41288   6.211   7.780   4.917  0.0723  0.1410 -0.1913
24441W        W41289   9.833   8.929  15.737  0.0489  0.1735  0.1436
24442W        W41290   4.508  12.546   4.302 -0.1647  0.0625 -0.1751
24443W        W41291  10.294   5.596  13.161 -0.3375 -0.0170 -0.1035
24444W        W41292   3.549  16.929  15.646 -0.0803 -0.2306  0.0062
24445W        W41293   4.464   9.237   0.245 -0.1359  0.1830  0.2057
24446W        W41294  17.978  12.399   2.957  0.2514  0.2028 -0.2848
24447W        W41295   5.620  11.777  11.269  0.1803  0.2439 -0.1655
24448W        W41296  12.980   2.304  13.643 -0.0537  0.0889  0.3499
24449W        W41297  13.548   1.965  15.586 -0.1880 -0.4818  0.0979
24450W        W41298   5.116  14.593  11.203  0.0275  0.3774 -0.0412
24451W        W41299  10.606   4.590  11.316  0.0812 -0.0425 -0.0647
24452W        W41300  16.946  10.022   3.787  0.1677  0.2825 -0.0713
24453W        W41301  10.204  13.801  13.903  0.2060 -0.1082  0.0023
24454W        W41302   0.192   3.714   2.863  0.4134 -0.1646  0.2069
24455W        W41303   0.415  12.678   2.409  0.1825  0.0226 -0.1729
24456W        W41304  10.065   8.407  15.974 -0.1119  0.0496 -0.1004
24457W        W41305  11.551   4.927   2.687  0.1016 -0.1832  0.0749
24458W        W41306   6.837  13.984  13.290  0.0251 -0.2080 -0.0505
24459W        W41307   5.332  13.439   1.231  0.0046 -0.0278  0.3330
24460W        W41308   2.344   0.965   2.773  0.1979 -0.0098  0.0301
24461W        W41309  15.384  13.968   4.627  0.1542  0.0214 -0.0348
24462W        W41310   1.589  13.598   1.620 -0.1093 -0.0489  0.0409
24463W        W41311  17.847   2.294  14.978 -0.2828 -0.0158  0.2544
24464W        W41312  13.026  10.134  13.359  0.0489  0.2649  0.2167
24465W        W41313   4.810   0.368  15.228 -0.0975 -0.3177  0.0100
24466W        W41314  15.916   3.380   1.714  0.0524 -0.2876  0.2215
24467W        W41315   3.060  12.206  15.794 -0.0471  0.1355 -0.3951
24468W        W41316  10.931   4.305   2.272  0.0229  0.0337 -0.2140
24469W        W41317   3.771   8.126   3.170  0.0695 -0.1247  0.2307
24470W        W41318   0.397  17.433   0.475  0.0217 -0.0877  0.4241
24471W        W41319   0.506  16.262   5.048  0.2146 -0.0682 -0.3306
24472W        W41320  12.091  14.567   3.725  0.0191 -0.0300 -0.4366
24473W        W41321   7.115   9.771   2.560 -0.1156  0.2083 -0.2982
24474W        W41322   1.204   8.276   4.449  0.2516 -0.0654 -0.2126
24475W        W41323   8.132  16.026   3.254 -0.1877 -0.0950  0.0266
24476W        W41324   4.941  11.342  14.029  0.0655 -0.1186 -0.2490
24477W        W41325   6.384  15.726   0.325 -0.0772 -0.2998  0.2667
24478W        W41326   9.406   6.332  11.629 -0.1060 -0.1817 -0.0190
24479W        W41327   5.033   6.239  12.162  0.0986 -0.3348  0.0863
24480W        W41328  14.838  11.106   6.207 -0.3258 -0.2186 -0.1099
24481W        W41329   9.207   6.062   1.418 -0.1255 -0.1055 -0.2353
24482W        W41330   5.573   7.404   4.458 -0.0114 -0.1702  0.1083
24483W        W41331   8.286   7.211   3.804  0.1523  0.0785  0.0725
24484W        W41332   6.338   4.021  14.076 -0.2796  0.1837  0.1688
24485W        W41333   4.747   9.581   3.194 -0.2152  0.1157 -0.1037
24486W        W41334  10.714   7.033  11.988  0.0235  0.0778 -0.2556
24487W        W41335   4.583   5.980   1.264 -0.0575 -0.1485  0.1439
24488W        W41336   1.596   0.509   2.757  0.0313  0.0218 -0.0183
24489W        W41337  14.553  15.278   3.854 -0.3518  0.1313 -0.0607
24490W        W41338   7.932  15.768  11.205  0.1656 -0.1367 -0.0425
24491W        W41339   0.263  10.599   1.707 -0.0004 -0.0384  0.1121
24492W        W41340  16.138  15.942  12.018  0.1276 -0.0103  0.1306
24493W        W41341   0.554   6.366  11.052  0.0851 -0.1385 -0.6063
24494W        W41342   9.531  16.846   4.668  0.4882 -0.3490 -0.1679
24495W        W41343   0.391  17.990  12.412 -0.1030 -0.3810 -0.0277
24496W        W41344   3.573   0.454  15.697  0.1123 -0.1666  0.1635
24497W        W41345   6.527   8.144   5.165 -0.3338 -0.1264 -0.1252
24498W        W41346  16.513   7.726  13.151 -0.2256 -0.1841 -0.2872
24499W        W41347  15.921  12.575   5.681 -0.1746  0.2457 -0.0129
24500W        W41348  10.266   8.725   0.532 -0.0049 -0.3046 -0.0190
24501W        W41349  15.029  16.621  16.121 -0.1533 -0.0627  0.2278
24502W        W41350  11.808  15.159   0.683  0.2278  0.1002  0.2714
24503W        W41351   7.538  14.190  12.650 -0.2039 -0.0694 -0.1229
24504W        W41352  16.645   5.386   0.731 -0.0738  0.0175  0.3160
24505W        W41353   6.966  15.746   4.872 -0.1349 -0.0290  0.0942
24506W        W41354   1.583   7.034   3.840  0.0692 -0.0135  0.1381
24507W        W41355  17.978  16.815  12.469  0.0023 -0.1836  0.1354
24508W        W41356   5.447  15.254  14.059  0.2718 -0.1415 -0.1515
24509W        W41357   0.942  14.830  13.532  0.0970  0.1439 -0.1633
24510W        W41358  14.194  12.008   0.631 -0.0560  0.1316  0.0337
24511W        W41359  12.324  15.958  13.933 -0.0718  0.0047 -0.4371
24512W        W41360  17.927   0.688  12.275  0.2844  0.1137  0.0027
24513W        W41361   8.315  16.248   2.566 -0.0281 -0.0072 -0.1828
24514W        W41362  11.952  17.498   1.386  0.2079  0.2935 -0.1580
24515W        W41363  17.692  14.668  14.914  0.1144  0.1016  0.0459
24516W        W41364  11.295  17.791   0.903 -0.0468 -0.2082  0.2409
24517W        W41365   5.938   4.893   1.065  0.2499  0.0594 -0.1165
24518W        W41366  14.251  13.035   2.008 -0.0282  0.2616 -0.2913
24519W        W41367   6.632   8.914  14.170 -0.0464  0.0118  0.1339
24520W        W41368   0.251  11.339   4.859 -0.0948  0.4053  0.0186
24521W        W41369  13.045  13.357  13.359  0.2397 -0.3088  0.0949
24522W        W41370  11.964  12.560   4.210 -0.0780  0.1864  0.1472
24523W        W41371  17.306  12.767   2.438 -0.0528  0.0057  0.0859
24524W        W41372   5.793  16.368   0.998 -0.0202 -0.1716  0.2285
24525W        W41373  15.859   7.083   1.217  0.5418  0.0432  0.0240
24526W        W41374  17.362   3.911   2.990 -0.1585  0.0331 -0.1700
24527W        W41375   7.680  14.733   1.153 -0.2345  0.0288  0.1667
24528W        W41376   2.352  11.405  15.535  0.1801  0.0973  0.2589
24529W        W41377   1.844   2.978  12.279  0.1541 -0.0778 -0.0641
24530W        W41378  13.663   6.099   3.524  0.2677 -0.0179 -0.3084
24531W        W41379   4.340   3.120   0.637  0.2650  0.2866 -0.4684
24532W        W41380   4.998  14.118  11.333 -0.0185  0.2383  0.1419
24533W        W41381  16.156   4.665   4.298 -0.2286  0.1222 -0.1711
24534W        W41382  10.239  18.170   2.986 -0.1588 -0.0238  0.0166
24535W        W41383  17.263  17.220   3.321  0.1071 -0.1224 -0.0789
24536W        W41384   7.444  15.158   2.679  0.1318  0.1039  0.0025
24537W        W41385  18.164  13.711  14.093  0.1909  0.0229 -0.1208
24538W        W41386  14.917  10.608  15.604 -0.1205  0.1881  0.0276
24539W        W41387   0.593  11.778  14.598  0.1509 -0.0319  0.1689
24540W        W41388   4.460   6.373   0.232  0.2309 -0.1516 -0.1511
24541W        W41389   4.847   4.458   5.112  0.1813  0.1004  0.0946
24542W        W41390  12.533   6.427   3.866  0.1199  0.1158  0.1499
24543W        W41391   0.935   3.607   3.069  0.1867  0.4554 -0.2111
24544W        W41392   5.512   4.596   1.136 -0.0048 -0.0849  0.4010
24545W        W41393  13.734   2.676  14.080  0.3563 -0.0249  0.1718
24546W        W41394   6.429  12.004  14.948  0.0100 -0.2033 -0.0886
24547W        W41395   9.649   4.988  13.202  0.2533 -0.0086 -0.0735
24548W        W41396  17.721   3.688  10.615 -0.4497 -0.3189 -0.0506
24549W        W41397  14.210  11.278   5.302  0.3743  0.5150  0.0113
24550W        W41398  11.646   5.131  12.120  0.1389 -0.2164  0.0524
24551W        W41399   2.926  13.153  14.202 -0.1191 -0.2686 -0.1118
24552W        W41400   0.010  10.255   1.037 -0.1635  0.0019  0.3618
24553W        W41401  11.422   3.872  15.435  0.1028  0.1182 -0.3323
24554W        W41402   8.228   5.879   3.064  0.0654 -0.0787 -0.0413
24555W        W41403   5.489   7.540   1.933 -0.0465 -0.2761  0.2007
24556W        W41404  17.379   0.296  15.622  0.2868  0.0358 -0.0512
24557W        W41405  10.284   4.804  13.285  0.2051  0.0139  0.0532
24558W        W41406   1.916   2.495   3.022  0.1582 -0.0331 -0.0768
24559W        W41407   9.046  15.042   3.137  0.0005 -0.0036 -0.0627
24560W        W41408   6.973   1.105   4.439 -0.1441  0.0111  0.0918
24561W        W41409   4.674  11.073  13.698  0.0123  0.1903  0.0106
24562W        W41410   5.724   6.079   3.496  0.2776  0.0632  0.3035
24563W        W41411   3.419  11.686  11.640  0.0619 -0.3412 -0.3740
24564W        W41412   4.771  11.708   0.304 -0.1196  0.3289 -0.1874
24565W        W41413   2.516   5.866   2.965  0.2512  0.3520 -0.0330
24566W        W41414   2.563  10.689  10.177  0.0007  0.1282  0.3259
24567W        W41415   6.048   4.737  12.195  0.2598 -0.1342 -0.3110
24568W        W41416   8.389   7.298  15.216 -0.0854 -0.1709 -0.2765
24569W        W41417  10.116  15.483  11.384 -0.4291 -0.2256  0.0261
24570W        W41418   4.548   9.118  12.642  0.1742  0.0645  0.1675
24571W        W41419  14.120   8.805   0.209  0.3077 -0.0077  0.3205
24572W        W41420  17.329  15.340   3.867  0.1301 -0.1394  0.0425
24573W        W41421   4.756   2.719  12.968  0.0262  0.0995  0.2201
24574W        W41422   0.946  17.738   1.392  0.0370 -0.0802  0.4856
24575W        W41423   5.806  18.111   1.447 -0.1564  0.2768  0.0412
24576W        W41424   8.398   9.539   4.754 -0.0843  0.1035  0.2363
24577W        W41425  12.902  13.798   2.317 -0.0010 -0.2119 -0.1492
24578W        W41426  11.686  17.249  14.155 -0.0404  0.1200 -0.2381
24579W        W41427   5.860   7.696  13.681  0.2040 -0.0428  0.0819
24580W        W41428  17.644  11.444  13.889 -0.2754  0.1944 -0.2140
24581W        W41429   4.141   3.837   2.051  0.2831  0.1306  0.1238
24582W        W41430   4.825   2.418   3.673  0.0032 -0.1356  0.0899
24583W        W41431  16.946  15.462  12.415 -0.4540 -0.0176 -0.0917
24584W        W41432  10.978  10.217   0.106 -0.2312  0.0324  0.1763
24585W        W41433   6.417  17.269  15.474 -0.1145 -0.1635  0.1507
24586W        W41434  11.528  15.810  12.211 -0.0804 -0.3253  0.0262
24587W        W41435  10.407   7.136  12.829 -0.2117 -0.1503  0.0187
24588W        W41436  17.277   7.747   1.877 -0.1274 -0.3720  0.2125
24589W        W41437   8.504   5.058  11.276  0.4939 -0.0915  0.1605
24590W        W41438   6.891   3.623   4.049  0.0469 -0.0229  0.0224
24591W        W41439  16.844   1.392   0.230  0.2286 -0.2406  0.0891
24592W        W41440  15.148  11.868   4.770  0.0017 -0.3329  0.2899
24593W        W41441   9.811   4.832  15.911  0.2179  0.1106  0.0787
24594W        W41442  10.667  17.194   2.256 -0.1468 -0.0319  0.2869
24595W        W41443   8.926   2.018   0.302  0.1274 -0.1784  0.0967
24596W        W41444   6.893   7.047   0.854  0.1197  0.1155 -0.3337
24597W        W41445  13.719   6.321   2.967  0.0513  0.0759 -0.0521
24598W        W41446   3.757  15.233  16.045 -0.0578  0.2937  0.3842
24599W        W41447  17.508  15.895  12.366 -0.2938 -0.1918 -0.1573
24600W        W41448   1.181  11.305   2.312  0.0885 -0.0999 -0.1403
24601W        W41449  10.495  13.184   3.789 -0.0855 -0.2776  0.2353
24602W        W41450   8.177   9.244   0.785 -0.2375 -0.1278 -0.2102
24603W        W41451  18.016   5.901  11.557 -0.0952 -0.0641  0.0480
24604W        W41452   5.787  11.037  12.186 -0.3591 -0.2994 -0.2409
24605W        W41453   8.674  16.012   1.741 -0.2430 -0.0308 -0.0008
24606W        W41454   7.545  15.989  15.371  0.0512 -0.1936 -0.3759
24607W        W41455   9.288  12.636  14.075 -0.0370  0.0706 -0.1743
24608W        W41456  12.874   3.308   1.670  0.0049 -0.3044 -0.1520
24609W        W41457   1.957  16.084   3.393 -0.3067 -0.1908 -0.0748
24610W        W41458   6.751  10.976  14.637  0.2222  0.2856  0.0890
24611W        W41459   7.450   2.010  12.571  0.0218  0.0673 -0.2051
24612W        W41460   0.988  17.340   4.425 -0.1706  0.2422 -0.0248
24613W        W41461   5.464  17.604  15.206  0.3551 -0.1117  0.0908
24614W        W41462  12.346  17.528  16.065 -0.2068  0.1751  0.0277
24615W        W41463   1.154   9.859   2.269 -0.0575  0.2487  0.1313
24616W        W41464  17.053  17.117  15.362  0.0281 -0.0752 -0.1789
24617W        W41465  16.899  12.518  11.791  0.1568  0.1833 -0.0438
24618W        W41466   7.007   8.376  13.958  0.0733 -0.0658  0.0850
24619W        W41467   1.906  17.468   1.421 -0.1454  0.3236  0.0753
24620W        W41468   7.407  17.455  15.454 -0.3605  0.0568 -0.0252
24621W        W41469   4.176   3.975  13.263  0.0846 -0.0751 -0.1748
24622W        W41470  11.159  15.200  12.868 -0.0679 -0.0711 -0.0511
24623W        W41471  14.776  12.392  15.648 -0.1240  0.0615  0.1028
24624W        W41472   9.986   9.965   4.677 -0.0555 -0.1594  0.2019
24625W        W41473  15.930  14.522  11.339  0.2045  0.4243 -0.1399
24626W        W41474  18.160  10.792   2.272  0.0645  0.0030  0.1027
24627W        W41475  14.441   5.925   3.908  0.1069 -0.0293  0.1186
24628W        W41476  15.221   8.299  12.771 -0.1909  0.2003 -0.0985
24629W        W41477   4.543   7.940  15.468  0.4193 -0.0201 -0.0037
24630W        W41478   4.517   5.302  14.968  0.0253  0.3150  0.3097
24631W        W41479  16.928   6.032   2.195 -0.0566  0.0712  0.2666
24632W        W41480  15.275   9.278  10.997  0.2031 -0.1894  0.2172
24633W        W41481  13.424   0.058  15.486  0.1796  0.0061  0.0524
24634W        W41482   3.540  16.779  11.527  0.2867 -0.0589  0.0935
24635W        W41483  14.604   6.672  13.075 -0.1218  0.0179 -0.0913
24636W        W41484   0.748   9.766   0.633 -0.1819  0.3184  0.2265
24637W        W41485  12.571   2.487   0.990  0.1606 -0.0143 -0.0205
24638W        W41486   8.507  10.252  11.846  0.0709  0.0989 -0.0875
24639W        W41487   9.238   9.346   2.680  0.1964  0.0057 -0.1561
24640W        W41488   8.677   6.991   4.271  0.0424 -0.0553 -0.2923
24641W        W41489   7.525  14.926  11.079 -0.0249  0.0850 -0.0909
24642W        W41490   5.908   9.020  14.648 -0.0644  0.1575  0.1443
24643W        W41491  12.628   7.730   3.830  0.0922 -0.2815  0.3124
24644W        W41492   2.131   2.039  15.166  0.0723  0.1845  0.1587
24645W        W41493   3.855   3.990  12.857 -0.3125  0.0490 -0.1447
24646W        W41494   7.762   0.170  12.334 -0.0113 -0.1137  0.1311
24647W        W41495  10.457  17.289   1.785  0.1990 -0.1399  0.1556
24648W        W41496  15.179   0.389   1.274  0.2374 -0.1619 -0.0355
24649W        W41497   7.176   8.230   3.469  0.0343 -0.1323  0.1516
24650W        W41498   2.223   2.745  12.028  0.3971 -0.2947  0.0793
24651W        W41499   3.907   3.038  12.683 -0.0273 -0.0208 -0.2152
24652W        W41500  10.795   2.229   0.544  0.0193  0.0445  0.4073
24653W        W41501  13.610   1.038   0.821  0.2081 -0.2517 -0.1581
24654W        W41502  14.865  10.071   0.730  0.0952 -0.1617 -0.0704
24655W        W41503   2.197   2.578   5.206 -0.1058 -0.1996  0.0960
24656W        W41504  12.228  14.285   0.480  0.2758 -0.1153  0.3302
24657W        W41505  13.587  16.252  15.366 -0.1945 -0.1121 -0.2796
24658W        W41506   4.126   9.616  15.398 -0.0598  0.1522  0.1345
24659W        W41507  10.392  16.541  13.059  0.0824 -0.0373  0.0643
24660W        W41508   6.814   1.761   0.102  0.0041 -0.6020  0.2484
24661W        W41509  11.335   9.392  11.716  0.0158  0.0404  0.0159
24662W        W41510  14.573   9.453  15.759  0.0349  0.0120  0.0093
24663W        W41511   2.814   4.894  15.948 -0.1909  0.0131  0.2668
24664W        W41512  11.607   0.244   2.883  0.0768  0.0721 -0.3555
24665W        W41513   8.015   5.299  12.247  0.0830 -0.1480  0.0959
24666W        W41514  12.158  17.613  12.440 -0.0121  0.1383 -0.1757
24667W        W41515   1.402   5.884  11.180  0.3083  0.0677  0.1484
24668W        W41516   3.149  14.966   0.613  0.0458  0.2158 -0.0808
24669W        W41517  15.067   6.465  11.226 -0.0149 -0.0730 -0.0674
24670W        W41518  12.519   8.545  13.100  0.0481  0.1551  0.0816
24671W        W41519   9.349  11.763   4.263  0.2296 -0.0721 -0.1416
24672W        W41520   2.842   4.065  10.228  0.3084 -0.0448 -0.4480
24673W        W41521  16.006   2.652   2.355  0.1144  0.3395  0.1728
24674W        W41522   6.356  13.541   0.239  0.1646 -0.0459  0.0185
24675W        W41523   3.247   3.349  12.481 -0.0882  0.0084  0.2725
24676W        W41524  17.208  10.556   4.650 -0.1224  0.3944  0.1367
24677W        W41525   7.277  14.362  13.020 -0.0205 -0.0680 -0.0954
24678W        W41526  16.980  16.764   4.916 -0.1614 -0.0424  0.0056
24679W        W41527   8.341  13.068  11.131  0.2412 -0.0190  0.2503
24680W        W41528   6.859   0.158   5.256 -0.3340 -0.0322  0.0288
24681W        W41529  15.411   9.855   1.570  0.1398  0.0018  0.0491
24682W        W41530   0.127   9.598  15.059  0.1228 -0.0546  0.0577
24683W        W41531   6.157  15.767   2.277  0.4968  0.0552 -0.0404
24684W        W41532   6.692  17.963   0.828 -0.0315  0.0406 -0.2078
24685W        W41533  15.250   5.053   4.294  0.0800 -0.0399 -0.2180
24686W        W41534  14.678  16.408   4.506  0.2122  0.0599  0.1078
24687W        W41535  14.255   3.280   3.289 -0.1082 -0.0976 -0.0408
24688W        W41536  17.147   7.317  15.469  0.2087 -0.0446 -0.4328
24689W        W41537   1.747  17.120   4.895  0.3343  0.0108  0.2028
24690W        W41538   8.939  14.362   3.717  0.1533 -0.1216  0.1893
24691W        W41539  12.776   8.648   1.947 -0.1289 -0.2098  0.0061
24692W        W41540  14.346  17.135   0.903  0.1188 -0.0667  0.1263
24693W        W41541   8.692   2.469  13.877  0.2606 -0.0082 -0.3440
24694W        W41542  10.726  17.717  13.588  0.3801  0.0705  0.1244
24695W        W41543   3.310   5.012  15.224 -0.2453 -0.0275  0.0911
24696W        W41544  10.884  12.660   4.411  0.1324 -0.1864 -0.0294
24697W        W41545   2.136   6.415   0.128 -0.3544 -0.1171 -0.2881
24698W        W41546   8.026   5.612   0.828  0.2756 -0.0027 -0.0434
24699W        W41547  12.350  12.969   3.435  0.3720 -0.0818  0.0314
24700W        W41548  15.754  12.843   3.778  0.1108 -0.0386 -0.2227
24701W        W41549  12.815  11.508   3.949 -0.0819  0.2014  0.0429
24702W        W41550  14.812  11.496   4.562 -0.0175 -0.2451  0.2577
24703W        W41551   9.035  16.682   4.787 -0.1776 -0.0456  0.2093
24704W        W41552  16.052  16.416   3.202 -0.0786  0.5053  0.0762
24705W        W41553   6.941   2.474  12.090  0.1105  0.0249  0.0602
24706W        W41554  13.611   4.514  11.972 -0.0090  0.0405  0.0231
24707W        W41555   8.560  12.857  13.127 -0.2531  0.0196  0.1362
24708W        W41556  10.503  16.851   1.937 -0.1124  0.0502 -0.1126
24709W        W41557  17.337  16.135   1.743  0.0886 -0.1120  0.0340
24710W        W41558   7.338   0.538  11.086 -0.0045  0.0280  0.3264
24711W        W41559  12.949   3.344  11.359 -0.1014 -0.0001 -0.1465
24712W        W41560   1.142  12.815  16.006 -0.2303 -0.0715 -0.1966
24713W        W41561  12.712   6.815   3.577 -0.1554  0.1700 -0.0226
24714W        W41562  15.021  13.959   3.451 -0.2317 -0.0913  0.2003
24715W        W41563   7.163  10.996   1.829 -0.2500 -0.0642 -0.0147
24716W        W41564  13.774  16.197  14.884 -0.1157  0.2960 -0.2397
24717W        W41565  17.703  12.939   0.957  0.0820 -0.0076 -0.2207
24718W        W41566  13.045   3.076   4.276 -0.3501  0.0171 -0.1989
24719W        W41567  14.324  10.749   4.011 -0.1212 -0.0382 -0.1580
24720W        W41568  12.670   9.708   0.977 -0.1200 -0.1249 -0.1955
24721W        W41569  16.190   1.434   0.182  0.0218 -0.3671 -0.1046
24722W        W41570   0.686  13.942  11.098 -0.2104 -0.2811  0.0979
24723W        W41571  11.969   1.628   2.795  0.0874  0.0357 -0.1472
24724W        W41572  16.067   9.143   3.273 -0.1714  0.1208  0.1705
24725W        W41573   4.103   6.159   0.559  0.1919 -0.0323  0.0709
24726W        W41574   2.239   4.592   3.820  0.0156 -0.1457 -0.2052
24727W        W41575  14.797  12.487  14.687 -0.2351  0.1619 -0.0224
24728W        W41576  12.541   0.263   2.161  0.1232 -0.5299 -0.3880
24729W        W41577   9.730  11.152  14.823 -0.1528 -0.0032 -0.2529
24730W        W41578   7.597  13.630  12.470 -0.1258  0.2846 -0.2310
24731W        W41579  14.582   1.864   1.523 -0.1082  0.0942 -0.0543
24732W        W41580  17.531  16.597  14.336  0.0963  0.2263 -0.2853
24733W        W41581   6.596  16.431  14.072 -0.1895  0.0888  0.1765
24734W        W41582   9.615   4.781   4.525  0.1764 -0.1219  0.0715
24735W        W41583  18.165   1.760  11.899  0.0492  0.2794  0.1485
24736W        W41584   1.021   3.196  11.757  0.0242  0.0306 -0.0522
24737W        W41585  12.204  16.953  14.527  0.1412  0.0373 -0.1222
24738W        W41586  16.710  10.404   4.647  0.2909 -0.1812  0.3581
24739W        W41587   3.140   2.294   1.947  0.1217  0.0552 -0.2344
24740W        W41588   1.443   7.058   1.897 -0.4854  0.4168 -0.0675
24741W        W41589   8.428  14.205  11.762 -0.1985  0.0393 -0.0695
24742W        W41590  11.381  10.210  11.571  0.1371 -0.4816  0.2424
24743W        W41591   9.594  14.193   1.456  0.0218  0.0505  0.0376
24744W        W41592  17.698   3.001   3.924  0.0131  0.1881  0.2826
24745W        W41593  13.900   4.535  14.407  0.1770  0.1048  0.0738
24746W        W41594  16.834   0.910   0.559 -0.3042  0.0031  0.0503
24747W        W41595   4.392   8.993  13.590 -0.1535 -0.1217 -0.0983
24748W        W41596   1.603  16.223  11.638 -0.1879 -0.1529  0.0534
24749W        W41597   8.567   6.727   3.712  0.1591  0.1279 -0.0619
24750W        W41598   2.129  17.413   2.096 -0.4137  0.1064 -0.4433
24751W        W41599   7.852   9.210   1.780  0.0457 -0.1736 -0.3485
24752W        W41600   1.214   3.873  14.351 -0.0020  0.0238 -0.1211
24753W        W41601   7.345   7.872  10.608  0.4944  0.0976 -0.0166
24754W        W41602   3.712   7.620  10.022  0.1856 -0.0805  0.1454
24755W        W41603  11.614   3.785  12.942  0.2177  0.2667  0.1205
24756W        W41604   4.021   5.333   2.530  0.1981  0.2518  0.0002
24757W        W41605   5.649  10.940   5.789  0.1896 -0.2220  0.0136
24758W        W41606   4.215   9.617   5.679  0.0370  0.0010  0.1405
24759W        W41607  13.117   1.487   1.407 -0.0296  0.2484 -0.1579
24760W        W41608   4.321   2.357   1.748 -0.2745 -0.2172  0.0049
24761W        W41609   3.372   8.232  13.272  0.2566  0.1958  0.0338
24762W        W41610   8.227  14.370  10.621 -0.0161  0.0239  0.1493
24763W        W41611   3.833   2.472   3.465 -0.0818 -0.0941 -0.1165
24764W        W41612  10.340   6.505   5.257 -0.0893 -0.1610 -0.1909
24765W        W41613   7.489  17.678  14.574  0.1402  0.0882  0.0534
24766W        W41614   8.653  16.656   3.612 -0.1103  0.1094 -0.0116
24767W        W41615  14.726   7.177  16.028 -0.2480 -0.0108  0.1088
24768W        W41616   5.701  18.157  10.150  0.0994 -0.0415 -0.2143
24769W        W41617   3.395   9.355  11.329 -0.1588  0.1087 -0.2168
24770W        W41618  13.606   9.576  11.809  0.0844 -0.0345 -0.2664
24771W        W41619   3.142   8.895  10.683 -0.0674 -0.2428 -0.2480
24772W        W41620  17.892   6.256   1.663  0.2864 -0.0560 -0.0781
24773W        W41621   9.739   4.186  10.668 -0.2346  0.0934  0.1675
24774W        W41622  17.259  15.639  14.503 -0.2674  0.1095  0.3340
24775W        W41623   4.155   3.536  12.973  0.1337  0.0268 -0.2741
24776W        W41624  10.433   8.870  14.434  0.1313  0.0687  0.0711
24777W        W41625   0.014   6.924  14.190 -0.1438  0.2153 -0.2940
24778W        W41626  14.271  15.705   4.036  0.3684 -0.0606  0.1968
24779W        W41627  12.140   7.184   5.185  0.2509 -0.0354  0.0718
24780W        W41628   3.371   4.963   3.886  0.1086 -0.2185  0.1004
24781W        W41629   3.328   9.172  13.158  0.3263 -0.1092 -0.1258
24782W        W41630  15.068   8.707  15.443  0.2468 -0.0025  0.0453
24783W        W41631  17.012  16.193   1.028 -0.0897  0.1176 -0.1641
24784W        W41632   7.312   8.716   3.580 -0.2212 -0.0430 -0.1733
24785W        W41633  15.048   0.160  14.039 -0.1653 -0.1980 -0.0942
24786W        W41634   1.919   0.722   3.705  0.0637 -0.1359 -0.0614
24787W        W41635  12.771  12.192  12.026 -0.1989 -0.4223  0.2366
24788W        W41636  10.574   4.253   0.412  0.2506  0.3408 -0.0944
24789W        W41637  11.036  18.209  13.042 -0.0956  0.1871 -0.0621
24790W        W41638   9.801  17.712   5.598 -0.1672 -0.2462  0.0400
24791W        W41639   0.493  16.566  12.359 -0.1148  0.1001  0.4505
24792W        W41640  16.801   0.341  10.861  0.1064  0.1159 -0.0539
24793W        W41641   6.551  16.689  10.035 -0.0397 -0.0758 -0.1014
24794W        W41642   5.460   3.755   5.390 -0.0696  0.0400  0.0058
24795W        W41643   4.244   8.307   0.495  0.1255 -0.0062  0.2297
24796W        W41644  15.573   5.212  10.635 -0.1036 -0.4627 -0.2473
24797W        W41645  10.277   4.202   4.587 -0.1813 -0.3400 -0.1296
24798W        W41646  13.970   1.463   4.810  0.1247  0.0958  0.1180
24799W        W41647   2.966  10.204   1.002 -0.1064 -0.2267 -0.1797
24800W        W41648  15.211   3.701  12.261  0.0019  0.0160  0.0921
24801W        W41649  11.669  16.979   1.056  0.0700 -0.0050 -0.1093
24802W        W41650  11.464  15.273   4.626  0.2327  0.3242 -0.0398
24803W        W41651   5.945   3.527  12.019  0.0539  0.0941  0.2536
24804W        W41652  15.751   9.471  12.151 -0.1729  0.4079  0.0264
24805W        W41653   5.386   3.903   3.511  0.2543  0.0420 -0.0060
24806W        W41654  13.946   8.427  14.109 -0.4511  0.0312  0.4043
24807W        W41655   1.331   9.422   3.252 -0.0352 -0.1861 -0.2842
24808W        W41656  10.442  17.818  14.474  0.3005  0.0811  0.0291
24809W        W41657   4.312  10.397   3.199  0.2120 -0.0296 -0.3257
24810W        W41658  10.133  11.124  15.301  0.2950 -0.2414 -0.0018
24811W        W41659   7.231   8.656  15.440 -0.0778 -0.2543 -0.0020
24812W        W41660   2.099   0.643  11.956 -0.0227  0.0338 -0.0442
24813W        W41661  10.759  14.512  12.148 -0.2823  0.2918 -0.0272
24814W        W41662  12.389   9.663  12.644 -0.0620  0.1475  0.0196
24815W        W41663   2.039  17.008  11.571 -0.1839 -0.0834  0.0919
24816W        W41664   3.990   1.366   3.554  0.2283 -0.4370 -0.0750
24817W        W41665  12.285  11.387  15.995 -0.0607 -0.0492  0.2381
24818W        W41666  11.782  18.109   0.212 -0.2492  0.0914  0.0799
24819W        W41667  16.143  15.535  11.162  0.0262 -0.3616 -0.1704
24820W        W41668  14.770  10.288  14.626  0.1400  0.2743 -0.3819
24821W        W41669  17.200  13.818  13.032  0.0427  0.1017  0.1604
24822W        W41670  18.032  17.000   2.176 -0.0797  0.2092 -0.0668
24823W        W41671   1.824   6.418   0.984 -0.0882 -0.2072 -0.2387
24824W        W41672  11.799  15.857  15.605  0.1062  0.0323  0.0427
24825W        W41673   9.516   4.920   3.080 -0.2668  0.0610 -0.0186
24826W        W41674  14.053  18.010  13.207  0.2684 -0.1543  0.0255
24827W        W41675   8.264   8.529   6.082  0.0958  0.1874 -0.2447
24828W        W41676  17.545   2.325  14.558  0.0385  0.2162  0.0469
24829W        W41677   1.566   1.156   3.559  0.2552  0.2907  0.5285
24830W        W41678  16.637   0.326  15.150  0.0323  0.0079 -0.1976
24831W        W41679  17.059  10.356   0.156 -0.2530  0.0595  0.3279
24832W        W41680   1.127  16.904  12.852 -0.1694  0.0688 -0.3453
24833W        W41681   0.200   5.324  14.527 -0.0179 -0.0388  0.3036
24834W        W41682  16.305  14.222  14.495  0.1252 -0.0623 -0.0157
24835W        W41683   8.023  15.014  11.180 -0.1457 -0.2155 -0.0235
24836W        W41684   2.860   2.873  13.221  0.0771 -0.2071  0.2100
24837W        W41685   9.927   7.422   0.912 -0.1630  0.1186 -0.1535
24838W        W41686   1.928  16.488  11.233 -0.4649 -0.0927  0.0574
24839W        W41687  15.665   6.693   0.846 -0.1087  0.2241 -0.3001
24840W        W41688   7.451   4.052   5.080  0.1042  0.0892 -0.2107
24841W        W41689  10.934  17.521  11.921  0.1428 -0.0071 -0.0993
24842W        W41690  14.252   4.698  16.027  0.0493  0.0380  0.2375
24843W        W41691   8.774   2.149  11.741 -0.0368  0.1410  0.4409
24844W        W41692   5.349   4.263   2.622  0.4364 -0.3323 -0.0759
24845W        W41693  14.895   4.201  12.992  0.0413  0.1558  0.2726
24846W        W41694  13.027   0.601   2.137  0.2044  0.1739  0.0560
24847W        W41695  10.439  16.030   1.944 -0.0111 -0.2508 -0.1276
24848W        W41696   6.692   8.307   4.277  0.1748  0.1117 -0.3052
24849W        W41697   3.136  15.916   1.495 -0.1394 -0.2053 -0.2441
24850W        W41698   1.344  14.174   0.423 -0.2143  0.2149 -0.0865
24851W        W41699   6.869   2.944  15.884  0.1454 -0.1142  0.0761
24852W        W41700   1.120  11.842  11.367  0.3291  0.3772  0.0631
24853W        W41701  14.575  10.313   5.840 -0.3895 -0.0752  0.2412
24854W        W41702   7.343   5.155  15.353  0.4154 -0.0696 -0.3547
24855W        W41703   6.139   9.116   0.182  0.1186  0.0954 -0.3143
24856W        W41704   2.294  17.921  13.525 -0.0019  0.0538 -0.1504
24857W        W41705   7.728   1.770  13.341 -0.1572 -0.2605 -0.1137
24858W        W41706   0.728   4.846   4.858  0.1155 -0.1924  0.0170
24859W        W41707   7.967  11.012   2.430 -0.3371  0.3536  0.1672
24860W        W41708  17.894  14.068  13.259  0.1866 -0.1764 -0.3702
24861W        W41709   3.153  11.147   0.537 -0.3275 -0.1929  0.1784
24862W        W41710   3.579  10.573  15.896 -0.1636  0.2153 -0.1721
24863W        W41711  11.013  17.347  10.971 -0.1566  0.0817  0.3289
24864W        W41712   2.112   9.665  15.947 -0.3137  0.2005  0.3310
24865W        W41713   9.268  14.802   5.465 -0.2078  0.3173 -0.2121
24866W        W41714  14.096  12.220  12.222  0.0696 -0.3557 -0.0214
24867W        W41715   3.425   4.520  15.220  0.0786  0.2377 -0.2907
24868W        W41716  12.665   8.323   4.625 -0.0425 -0.2761 -0.0077
24869W        W41717   9.277   2.834   0.060 -0.3164  0.1325 -0.0577
24870W        W41718  17.380  17.750   3.708  0.1075  0.0200  0.0598
24871W        W41719  13.312   2.089  11.786 -0.0319  0.0575  0.0765
24872W        W41720   3.123   6.047  14.803  0.2890 -0.0178 -0.2913
24873W        W41721   7.090   5.978  15.281  0.3840  0.0809 -0.0528
24874W        W41722  13.863   5.981   1.212 -0.1843 -0.0531 -0.0809
24875W        W41723   1.446   1.627   0.028  0.2322 -0.0686 -0.1762
24876W        W41724   0.964  12.876  14.988  0.1762  0.1298  0.0980
24877W        W41725   4.869  14.196  15.465  0.0047 -0.2294  0.0253
24878W        W41726   9.832   8.782   2.586  0.0728 -0.0250  0.0353
24879W        W41727   6.392  12.255  13.710 -0.0222 -0.1260 -0.2603
24880W        W41728   6.299   3.273  15.653 -0.1346  0.0747 -0.1488
24881W        W41729   7.794  15.661   4.062  0.1319  0.0861 -0.0796
24882W        W41730   8.941   7.851   1.991  0.0155 -0.0832  0.4558
24883W        W41731  11.200   5.876  15.111 -0.3067 -0.0455  0.1245
24884W        W41732  17.369   9.762   3.493  0.2099 -0.1747 -0.0264
24885W        W41733   8.962  16.071   2.180 -0.1509  0.4171  0.2464
24886W        W41734   9.686   9.847   3.764  0.2215 -0.1300 -0.2833
24887W        W41735  17.468   5.091  10.357  0.0767  0.3078 -0.0573
24888W        W41736  12.802  17.469   3.823 -0.1895 -0.1251 -0.2795
24889W        W41737   6.627   3.259  15.254  0.0294 -0.3107 -0.3005
24890W        W41738   5.430   6.861  14.536 -0.0984 -0.4341  0.0236
24891W        W41739  10.717  17.281   3.108  0.1853  0.2708  0.0562
24892W        W41740  14.637  15.114   4.616  0.2954 -0.0147  0.0656
24893W        W41741  15.436   9.516   0.272 -0.0019  0.0014 -0.0005
24894W        W41742  15.265   3.830   4.794  0.0462 -0.1806 -0.0869
24895W        W41743  15.893  16.891   0.288  0.0865  0.2473 -0.1141
24896W        W41744   2.984  17.010   0.576  0.1788 -0.2491 -0.1048
24897W        W41745   7.606   7.294  13.980 -0.1016  0.2078 -0.1402
24898W        W41746  15.220   4.681  12.135  0.1306 -0.0483 -0.2387
24899W        W41747   0.796  14.440   1.170 -0.2221  0.1223 -0.1137
24900W        W41748   4.771   1.349   4.620 -0.1698 -0.0570 -0.1490
24901W        W41749   7.843   9.332  14.528 -0.0104  0.2506  0.0353
24902W        W41750   9.322  13.505   3.735  0.1602 -0.0235 -0.2153
24903W        W41751   0.683  17.846   1.903 -0.1656 -0.0112  0.7506
24904W        W41752   1.919  14.464   3.907 -0.2131  0.1237  0.1920
24905W        W41753  10.263  14.404  15.999 -0.0334  0.1697  0.0844
24906W        W41754   3.393  14.325   0.530 -0.0199  0.1707  0.0912
24907W        W41755   8.384   7.964   1.539  0.1611 -0.0767  0.0856
24908W        W41756  18.022   2.169  11.233 -0.0957  0.1367 -0.2180
24909W        W41757  10.720   9.106   4.946  0.0002 -0.1100  0.0403
24910W        W41758  14.608   2.865   1.620  0.1180  0.0901 -0.2050
24911W        W41759  11.730   7.211   3.213  0.0393  0.0667 -0.0615
24912W        W41760   1.180   6.913  12.920 -0.0900 -0.3173  0.0497
24913W        W41761  15.566   0.926   1.939  0.1102 -0.0622 -0.0421
24914W        W41762  13.028  10.851   0.340  0.0437 -0.0447  0.0124
24915W        W41763  12.169   9.398   5.097  0.0299 -0.3538  0.0546
24916W        W41764  13.964   4.995  15.673  0.1170  0.0306  0.1107
24917W        W41765  14.158  17.475   1.927 -0.0751 -0.1839  0.0175
24918W        W41766  11.427  12.416   2.107  0.0438  0.1180  0.3831
24919W        W41767   8.668  13.399   1.209  0.2273 -0.2082 -0.1781
24920W        W41768   4.092   1.951   3.493 -0.0493 -0.0706  0.0088
24921W        W41769   5.349   0.830  11.554 -0.2696  0.3565  0.1472
24922W        W41770   8.817   8.851  11.689 -0.0929 -0.0670 -0.2226
24923W        W41771  14.175   1.751   0.373 -0.0270  0.3430 -0.0257
24924W        W41772   5.454  13.292   4.603  0.2601  0.0872 -0.1569
24925W        W41773  11.794   7.754   0.381 -0.0508 -0.1135  0.0019
24926W        W41774   8.517  14.555   4.448  0.0704 -0.0553 -0.0855
24927W        W41775  18.053  10.456   4.325 -0.3966  0.2632 -0.1102
24928W        W41776   4.107   2.689   6.103 -0.1087  0.3668  0.3699
24929W        W41777   5.666   0.520   4.775  0.0975 -0.2245 -0.1315
24930W        W41778   6.235  10.716  12.956  0.1012  0.3655  0.0064
24931W        W41779   5.765  11.382  14.423  0.0980  0.0180  0.2242
24932W        W41780  11.225   1.377   0.273  0.2362  0.0493  0.0740
24933W        W41781   4.832   6.586   4.187  0.1470  0.0109 -0.0668
24934W        W41782   6.575   6.643  13.057  0.0904  0.1455  0.1444
24935W        W41783   3.891   2.069  12.016 -0.3867 -0.0472 -0.1252
24936W        W41784  14.705   2.634  13.686  0.2965  0.2023 -0.0776
24937W        W41785  12.994  12.852   4.600 -0.2449 -0.1393 -0.1620
24938W        W41786   2.407  13.036   1.800  0.1875  0.0395 -0.0621
24939W        W41787   7.142  15.126  16.021 -0.0754  0.0180 -0.3848
24940W        W41788   4.794   7.237   4.419  0.3720 -0.1633 -0.0421
24941W        W41789   2.763  16.522   0.662  0.1404  0.0085 -0.1184
24942W        W41790  17.051   4.240   3.231 -0.3149 -0.2248 -0.2980
24943W        W41791   8.796   5.511   1.954  0.0265  0.0006  0.0043
24944W        W41792   3.047  16.943  11.608  0.0252  0.0040 -0.1895
24945W        W41793   4.692   1.450  13.353  0.2253 -0.1442  0.3920
24946W        W41794   1.378  15.140   0.550 -0.0998 -0.2094  0.0168
24947W        W41795   3.924   3.311   0.963  0.0676 -0.0310 -0.0690
24948W        W41796  15.485   1.598  10.721  0.2543 -0.0412  0.1618
24949W        W41797  17.060   1.542  13.165  0.1594  0.1662  0.5009
24950W        W41798   1.469  11.809   0.361 -0.4903 -0.3937 -0.1205
24951W        W41799  12.948  15.864   1.821 -0.1444  0.0115  0.0864
24952W        W41800  11.470   0.377  10.886  0.1951 -0.1256 -0.1975
24953W        W41801   4.026  11.447  11.203 -0.0434 -0.2059  0.0086
24954W        W41802  18.104   6.523  13.873 -0.4016  0.2166  0.1871
24955W        W41803   6.414  11.369  12.382  0.0502  0.2785  0.0057
24956W        W41804   6.301  10.939  12.081 -0.0556  0.3840  0.1648
24957W        W41805  16.740  16.866  12.640  0.1187 -0.1624  0.2971
24958W        W41806   2.371   8.719  13.198  0.3717 -0.0209  0.2570
24959W        W41807  16.757  12.911   1.058 -0.1829  0.0976 -0.0280
24960W        W41808   2.169   0.447   0.774 -0.0478  0.0904 -0.3494
24961W        W41809   3.408   5.641   3.313  0.1043 -0.0771  0.0684
24962W        W41810   6.909  16.166   1.815  0.1405 -0.2565 -0.0468
24963W        W41811  17.515  12.824  14.376 -0.4283  0.1811 -0.1721
24964W        W41812  16.166  16.774   4.255  0.2511 -0.2669 -0.0062
24965W        W41813   5.266   8.070  13.065 -0.0564  0.1758  0.1145
24966W        W41814   8.531  17.963   3.944 -0.1144 -0.1350  0.1684
24967W        W41815  11.299  13.448  14.980  0.1160  0.0440 -0.4088
24968W        W41816   8.614  17.810  12.476  0.0945 -0.1645  0.2726
24969W        W41817   5.034   5.202   2.245 -0.1914 -0.1729  0.4593
24970W        W41818  11.470   4.696  10.890 -0.3171  0.0067  0.0459
24971W        W41819   2.097   7.924  15.078 -0.0088 -0.2264  0.1004
24972W        W41820  18.221  17.790  11.885  0.0993  0.0186  0.3670
24973W        W41821  12.799   3.012  14.211  0.1241 -0.1256  0.1510
24974W        W41822   3.816   0.805  15.369  0.4430  0.5266  0.2344
24975W        W41823  16.964   7.837  14.354 -0.2108  0.1480  0.1407
24976W        W41824   8.909  17.921  11.531 -0.3200  0.0586 -0.3258
24977W        W41825   4.627   3.494  11.522  0.1631  0.0209 -0.0736
24978W        W41826  11.672   0.521   1.878  0.0595  0.3530 -0.1920
24979W        W41827  16.832   3.730   0.490 -0.3831 -0.0368  0.3960
24980W        W41828  13.271  10.300  14.157  0.4138 -0.0298  0.1618
24981W        W41829  12.422   1.975  11.685 -0.0751  0.1384 -0.1880
24982W        W41830  14.681   2.809   5.701 -0.0024 -0.2253 -0.1067
24983W        W41831   2.923   9.422   2.362 -0.4150  0.2112  0.1571
24984W        W41832  13.854  10.109   2.593  0.0716  0.0837  0.0373
24985W        W41833   9.420   1.091   3.458  0.2198  0.0381 -0.0819
24986W        W41834  17.041  13.232   0.569  0.1228 -0.2286  0.0605
24987W        W41835  15.895  12.009   3.036  0.0273  0.0635 -0.1758
24988W        W41836   4.383   9.898   1.912  0.3049 -0.0598  0.2216
24989W        W41837  17.588   0.508  11.862  0.0343 -0.1398  0.1839
24990W        W41838  14.787   4.074   4.145  0.0167 -0.2275 -0.4453
24991W        W41839   9.525  14.840  14.731 -0.0973 -0.0726 -0.0583
24992W        W41840  10.866  13.192  14.971 -0.2061  0.0597 -0.2976
24993W        W41841   9.137   1.925  14.680 -0.1407 -0.0323  0.1564
24994W        W41842   7.114  17.468  12.537 -0.0337  0.0159 -0.4207
24995W        W41843   7.451  13.285   2.020 -0.0724  0.1267  0.0424
24996W        W41844  14.902   6.138  15.743  0.3274  0.1594  0.2116
24997W        W41845   8.225   7.783   3.210 -0.1557  0.0734 -0.0288
24998W        W41846   3.947   8.413  13.427  0.2027 -0.1288 -0.0082
24999W        W41847  14.760  15.401  11.787  0.0674 -0.1518 -0.2611
25000W        W41848   9.774   6.148   0.491 -0.0092  0.0465 -0.1495
25001W        W41849  14.660   9.076  12.728  0.0363  0.2146  0.1455
25002W        W41850   6.378  15.711  12.304  0.4013  0.0063  0.0015
25003W        W41851  11.356  12.639  16.100  0.2546 -0.0444 -0.0753
25004W        W41852   5.238   4.921  14.513  0.2320  0.1615  0.3444
25005W        W41853  12.881  16.692  12.608 -0.1097  0.1231 -0.0891
25006W        W41854  14.479  15.957   4.484 -0.0557 -0.1483  0.3407
25007W        W41855   6.719  15.380   0.662 -0.1804  0.2912 -0.1491
25008W        W41856  10.221   9.276  12.046 -0.0099 -0.3268  0.1423
25009W        W41857   2.618  17.660   3.053 -0.1922  0.1376  0.1364
25010W        W41858  18.190  15.831   4.842 -0.1157  0.2413 -0.1244
25011W        W41859   5.531  15.427  15.465  0.2085 -0.1000 -0.0606
25012W        W41860   2.414  16.119  11.208  0.3347 -0.0008 -0.1059
25013W        W41861   9.602   0.965  15.838  0.3700  0.0546  0.1526
25014W        W41862   2.855  14.562   3.502  0.0795 -0.1868 -0.0271
25015W        W41863  12.961  10.457  12.387  0.1981  0.1591  0.0219
25016W        W41864   2.544  10.402  10.700  0.2825 -0.0289 -0.2870
25017W        W41865  12.466  16.958  12.450  0.5597  0.0106  0.0101
25018W        W41866   6.060  11.116  12.597  0.1061 -0.1611  0.2168
25019W        W41867   7.386   6.631   6.048 -0.1143 -0.0455  0.1700
25020W        W41868  14.179  11.365   3.042  0.0778 -0.2136 -0.0010
25021W        W41869  18.038   5.436   3.540  0.0305  0.1216  0.0733
25022W        W41870   4.840  14.452   2.361  0.3051 -0.1781  0.0848
25023W        W41871   1.211   2.413   5.017 -0.1304  0.0257  0.0560
25024W        W41872  17.427   6.426  11.969 -0.0959 -0.1223  0.0834
25025W        W41873   1.431   9.986   1.390 -0.1842  0.2398 -0.1322
25026W        W41874  16.144  16.673  12.297  0.0451  0.4293 -0.0701
25027W        W41875   4.355  15.873  12.783  0.0530  0.1811  0.1026
25028W        W41876  12.033   9.776   1.664 -0.1565 -0.0967  0.0537
25029W        W41877  14.833  16.439   1.663  0.0002  0.0617  0.2874
25030W        W41878   0.124  13.855   1.969 -0.0233 -0.3478  0.1089
25031W        W41879  17.502   3.612  14.602  0.3904 -0.1345 -0.2256
25032W        W41880  17.088   1.547   1.320 -0.0381 -0.5572 -0.0026
25033W        W41881   6.127   7.427   2.177  0.0877  0.0773 -0.2293
25034W        W41882   7.333  17.513   4.297  0.0597 -0.0258 -0.0543
25035W        W41883  18.079   7.176  12.734 -0.0698  0.0076  0.0087
25036W        W41884   5.003   3.639   0.366 -0.1761 -0.2568 -0.1055
25037W        W41885   3.271   4.864   9.938 -0.0170 -0.1540 -0.0182
25038W        W41886  14.875   9.060   4.629 -0.1593 -0.1268  0.1603
25039W        W41887   8.322  10.902   0.251 -0.0109 -0.0467  0.0062
25040W        W41888   5.856   7.813  12.069  0.1372  0.1307  0.0230
25041W        W41889  13.590   1.332  11.435 -0.1958  0.0549  0.1450
25042W        W41890   3.822   2.875  14.844  0.1896 -0.0033  0.0782
25043W        W41891   2.261  15.341   4.728 -0.1137 -0.3065  0.0167
25044W        W41892   5.264   1.827   2.951  0.0807  0.1439 -0.0747
25045W        W41893   1.091   6.349  11.214  0.0475  0.1351  0.0761
25046W        W41894   9.104  18.186   5.755  0.3143  0.1784  0.0814
25047W        W41895  15.935   7.906   4.261  0.3240  0.2475 -0.2677
25048W        W41896  12.080  16.228  12.885 -0.0881  0.3239 -0.0216
25049W        W41897  15.304  17.458  15.627  0.0487  0.0247 -0.0779
25050W        W41898  15.642   0.547  15.357 -0.1078 -0.1165  0.4332
25051W        W41899   4.622   0.583  13.640  0.1771  0.1383  0.2252
25052W        W41900  14.158  10.298   1.310  0.0057 -0.1536  0.0894
25053W        W41901   0.649  13.418   0.364  0.2024  0.0529  0.0945
25054W        W41902   4.958   8.443  15.506  0.0871  0.0794 -0.0676
25055W        W41903   4.514   6.979   2.719 -0.3807 -0.2206 -0.2271
25056W        W41904  13.017  10.645  14.488  0.2242  0.3093  0.2111
25057W        W41905  11.821   7.628   4.052  0.1438 -0.0143  0.0617
25058W        W41906  17.874   4.142   1.222  0.1823  0.0948 -0.1904
25059W        W41907   1.112   0.383   0.605  0.2640 -0.1293 -0.1157
25060W        W41908   9.775  11.006  13.131 -0.3043 -0.1034  0.4343
25061W        W41909   1.713  14.589   4.700 -0.1369  0.2617  0.1773
25062W        W41910   8.622   9.017   1.484  0.0980  0.0743 -0.3137
25063W        W41911  11.420   6.329   2.367  0.0043 -0.1907  0.2444
25064W        W41912  17.638   6.605  14.977  0.0214 -0.0654 -0.0163
25065W        W41913  14.994  18.020   2.276  0.1380 -0.3529 -0.1056
25066W        W41914  11.037   4.312  15.568 -0.1570  0.0659 -0.0444
25067W        W41915   1.035   7.090   1.424  0.3009 -0.0087 -0.2957
25068W        W41916  16.859  17.756  12.900 -0.0448  0.1356 -0.1164
25069W        W41917  16.738   7.235  13.015  0.2007  0.4201 -0.1818
25070W        W41918   9.559  14.699  13.913 -0.0421  0.0796  0.1758
25071W        W41919   5.707  17.335  14.843 -0.3130  0.0179  0.1012
25072W        W41920  17.254  11.472   4.475 -0.0496  0.0359 -0.2612
25073W        W41921  17.622   3.108  11.148  0.3780 -0.0148 -0.0463
25074W        W41922   8.153   0.866  14.901  0.0013 -0.2529  0.1235
25075W        W41923   7.530   8.696  13.786  0.4041 -0.1832 -0.0691
25076W        W41924   6.900  17.873   2.029  0.0033 -0.1691  0.3674
25077W        W41925  14.439   4.645   2.241 -0.0422  0.2267  0.0739
25078W        W41926  17.407   6.897  11.763  0.1174 -0.0164 -0.0860
25079W        W41927  11.713  14.016  13.391 -0.0192  0.0717  0.1176
25080W        W41928   8.159  14.026   2.095  0.0777  0.0080 -0.2356
25081W        W41929   6.101  14.282  11.522  0.0882  0.0632 -0.1610
25082W        W41930  11.864  12.642  11.924  0.2596  0.4116 -0.0473
25083W        W41931  17.032   2.945  14.842  0.0083 -0.0220  0.0917
25084W        W41932  14.294   3.748  13.989  0.0104 -0.0905  0.0875
25085W        W41933  17.445   0.257   4.428  0.1918  0.1308 -0.2378
25086W        W41934   2.077   9.499  12.635  0.2619  0.0009  0.2052
25087W        W41935  12.030  10.039  12.645 -0.1078 -0.6372 -0.1066
25088W        W41936  17.131   3.752   4.131 -0.4336  0.1259  0.0918
25089W        W41937   0.066  10.591   4.780 -0.0522 -0.1987 -0.1549
25090W        W41938  17.884   4.623  11.280 -0.3948  0.2076 -0.2663
25091W        W41939   8.872   8.913  14.548 -0.0273 -0.0438 -0.1060
25092W        W41940  14.335   3.748   2.155 -0.2062  0.1481 -0.1155
25093W        W41941  15.550   1.293   5.097 -0.0519  0.0829  0.1213
25094W        W41942   2.348  15.659   0.227  0.1173 -0.0692  0.1907
25095W        W41943   0.903  16.924  15.912  0.0194 -0.1861 -0.0795
25096W        W41944  17.961   3.680  15.559  0.0863 -0.0314 -0.1176
25097W        W41945  10.420   7.548   1.694 -0.2041 -0.0411 -0.1408
25098W        W41946  14.654   4.574   4.843 -0.0846 -0.2712  0.1445
25099W        W41947   0.158  13.500  11.086  0.0247 -0.0723  0.0095
25100W        W41948  14.030  14.338  13.492  0.0671 -0.1555 -0.2600
25101W        W41949  16.634  12.157   3.905  0.3380 -0.0134  0.3109
25102W        W41950  14.184   2.186  14.776  0.1303  0.4453 -0.2489
25103W        W41951   5.850   5.496  15.168 -0.5111  0.1133 -0.0469
25104W        W41952  11.545  14.419  11.422  0.1775  0.0336 -0.2334
25105W        W41953   3.598  11.907  12.445  0.1037  0.3400 -0.3379
25106W        W41954   5.681  10.654   6.172  0.0110  0.0444  0.1458
25107W        W41955  18.063  16.785  10.433 -0.0432 -0.2949  0.0354
25108W        W41956   0.351   6.221   2.531 -0.0778 -0.0033 -0.0886
25109W        W41957   2.730   7.873   1.109  0.4621 -0.0879  0.0616
25110W        W41958  14.061  13.868   3.325  0.1444  0.0095 -0.1883
25111W        W41959  12.819   2.561   3.970  0.2690 -0.0192 -0.0788
25112W        W41960  14.549   2.770   3.406  0.1423  0.0269 -0.0275
25113W        W41961   9.372   8.583   1.153 -0.3939  0.1048 -0.4745
25114W        W41962  10.900   7.302   4.774 -0.5938 -0.3803  0.1557
25115W        W41963   4.477  13.667  12.887  0.0534  0.3807  0.2104
25116W        W41964  16.210   8.231   5.278 -0.4193  0.0748  0.2496
25117W        W41965   5.234   0.824   3.873 -0.2245 -0.0448 -0.0733
25118W        W41966  15.169  12.164  14.635 -0.0289  0.2589  0.3685
25119W        W41967   2.252  11.860  12.677  0.0241  0.2019 -0.3110
25120W        W41968  14.679  13.990  11.133 -0.1577  0.1388 -0.1162
25121W        W41969   5.737  15.425   2.386  0.2284  0.1099 -0.2978
25122W        W41970  12.167  12.796  12.286 -0.2105  0.0306 -0.0047
25123W        W41971   3.797  10.420   2.987 -0.1857 -0.0188 -0.3425
25124W        W41972  11.804   4.984   3.125 -0.0157 -0.0813  0.1168
25125W        W41973  17.769   1.862   5.272  0.2871 -0.1464 -0.0336
25126W        W41974   3.145   4.134   4.227 -0.0307 -0.2100 -0.0082
25127W        W41975  17.267  17.247  14.025 -0.0409  0.1889 -0.2702
25128W        W41976   5.082  10.942  15.422 -0.0184  0.0793  0.1606
25129W        W41977   4.277   2.625   2.655  0.0939  0.1271 -0.1831
25130W        W41978  10.876   3.128  14.059 -0.1940  0.1091 -0.0868
25131W        W41979  10.212  11.174   2.595 -0.2040 -0.0226 -0.1107
25132W        W41980   4.065   6.673   0.699 -0.1811  0.1627  0.1138
25133W        W41981   9.506   5.620   3.152  0.2880 -0.2455 -0.2816
25134W        W41982  13.574   9.518  14.883 -0.2641  0.1006  0.2349
25135W        W41983  17.994   3.187  14.752  0.3657 -0.0407 -0.0874
25136W        W41984   9.093   3.267  11.971 -0.1704 -0.1278  0.3302
25137W        W41985  14.648  16.491  11.973 -0.1231  0.0230  0.0160
25138W        W41986   3.587   8.693  10.577 -0.4120  0.4337  0.0818
25139W        W41987   8.820  17.273  12.227  0.0189 -0.2203  0.2907
25140W        W41988   6.323   9.634  11.785 -0.1885 -0.3610 -0.1440
25141W        W41989  13.278  11.102   4.266 -0.1257  0.1657  0.0814
25142W        W41990  12.204   0.648   3.926 -0.2488  0.0298  0.1595
25143W        W41991  12.716   0.122  12.678 -0.0269 -0.0023  0.1069
25144W        W41992   3.713   9.992   4.912  0.1513 -0.1587 -0.0971
25145W        W41993   9.792  13.638   4.512  0.1089  0.1962 -0.0769
25146W        W41994   6.758  15.196  11.751 -0.2046  0.0903  0.0953
25147W        W41995  17.467   7.426  12.844  0.0711  0.0093  0.2214
25148W        W41996   0.578   4.978   2.923  0.0546  0.0533 -0.2053
25149W        W41997   7.042   8.996   3.958 -0.3385  0.0317 -0.1952
25150W        W41998  17.234   4.299   5.756  0.2084  0.1493  0.0786
25151W        W41999  11.959   0.176  10.992 -0.1402 -0.0874  0.1303
25152W        W42000   7.762   3.675   5.098 -0.3139  0.0929 -0.1935
25153W        W42001   7.725   7.829  11.321  0.1280 -0.1927 -0.2306
25154W        W42002   1.421   6.649  10.439  0.1682  0.3754 -0.3814
25155W        W42003  10.263  11.089  13.104  0.0292  0.1864  0.0161
25156W        W42004  12.729   1.539   3.468 -0.0948  0.2048 -0.1508
25157W        W42005   6.704  10.672  13.104  0.0143  0.3684  0.0868
25158W        W42006  11.786  16.468   3.462  0.0259  0.1991 -0.0347
25159W        W42007  14.460   3.024   0.785  0.4386 -0.2316  0.0792
25160W        W42008  13.285   0.099   5.776  0.1371  0.0118  0.0220
25161W        W42009   7.755  17.932   1.113  0.2271 -0.1719 -0.2064
25162W        W42010  16.119   2.115  11.197 -0.1264 -0.0962 -0.3477
25163W        W42011  11.926  13.251  14.189  0.0598  0.0338 -0.0375
25164W        W42012   1.872   7.279  13.426 -0.3954 -0.1491  0.0596
25165W        W42013  15.122   8.815  14.950 -0.1005  0.0359 -0.0454
25166W        W42014  14.792  14.830   2.298 -0.2789 -0.0631 -0.3113
25167W        W42015   6.181  15.422   2.631  0.0170  0.1849  0.2058
25168W        W42016   9.385   1.400  14.548  0.0083 -0.1175  0.3330
25169W        W42017  13.566  12.470   5.095  0.4369 -0.1579  0.0879
25170W        W42018  16.106   5.470   5.313  0.0080 -0.0975 -0.0385
25171W        W42019   4.896   0.785   4.244  0.0106  0.2509 -0.1026
25172W        W42020   6.302   3.122   0.421 -0.0081  0.0375 -0.1285
25173W        W42021   2.136   1.409   2.903  0.0385  0.1559  0.1519
25174W        W42022  10.341   3.032  15.044  0.1653  0.1103 -0.1621
25175W        W42023   1.156  11.837  11.851 -0.1276  0.2808  0.2034
25176W        W42024   1.904   1.948   3.052  0.0100 -0.2651  0.0899
25177W        W42025   7.544   3.013   0.691 -0.0369 -0.0098  0.1139
25178W        W42026  12.106  11.359  11.530  0.0127 -0.1552 -0.4265
25179W        W42027   8.376  16.409   4.841  0.2747  0.3339 -0.1733
25180W        W42028  10.632   8.974   2.913 -0.5342 -0.2338 -0.1014
25181W        W42029   3.964   0.845   4.443  0.1446 -0.0136  0.1194
25182W        W42030   3.535  11.115   1.996 -0.3228  0.0020 -0.0702
25183W        W42031   9.543   3.282  12.729  0.2492 -0.3377  0.0828
25184W        W42032  17.875  16.268  12.449  0.0279 -0.0486  0.0696
25185W        W42033   8.341  12.261  12.828 -0.0449  0.3092 -0.1958
25186W        W42034   6.158  10.403   4.238 -0.1673 -0.1462 -0.4893
25187W        W42035  17.342  13.479  14.314 -0.0807  0.2522 -0.2022
25188W        W42036  12.666   9.885   2.938 -0.2554  0.3015 -0.2051
25189W        W42037   5.550   5.708  10.674 -0.1762  0.2916 -0.3348
25190W        W42038  16.097   6.809  15.820  0.4267  0.0932 -0.2705
25191W        W42039  13.778   7.866  13.209  0.2196  0.0969  0.3145
25192W        W42040   0.805  13.575   3.720  0.2239 -0.1502 -0.4033
25193W        W42041  12.213   7.133  10.292 -0.1428  0.3100  0.1534
25194W        W42042   8.635   8.033  13.315 -0.0043 -0.1646  0.1883
25195W        W42043   6.761  11.525   0.684  0.1845 -0.1557 -0.1650
25196W        W42044   8.509   4.061  15.936 -0.1688 -0.0449 -0.0555
25197W        W42045  15.921  11.217  11.652  0.1749  0.0001 -0.0735
25198W        W42046  15.435  16.756   0.194 -0.0916  0.0906 -0.0076
25199W        W42047   1.786  15.917   0.485  0.1927  0.1025 -0.3025
25200W        W42048   5.855   2.653  14.692 -0.1578  0.0692  0.0624
25201W        W42049  10.429  12.023  13.891 -0.0754 -0.0939  0.1080
25202W        W42050  16.371  16.902   4.691 -0.3737 -0.3098 -0.2296
25203W        W42051  18.087  16.380   1.307  0.0930 -0.2223  0.2421
25204W        W42052   4.604  13.876  12.289 -0.0767 -0.0213  0.3402
25205W        W42053   7.247  16.104  15.963  0.0840 -0.2352 -0.3977
25206W        W42054   2.556  11.021   3.976 -0.1973 -0.2423  0.2966
25207W        W42055   3.749  11.232  13.505  0.0112  0.5025  0.1205
25208W        W42056  16.418  10.631  10.913 -0.1093 -0.1918  0.0482
25209W        W42057   7.235  15.178   3.720  0.0495 -0.1429  0.0660
25210W        W42058   4.235   6.562  11.797 -0.0137  0.0687  0.0529
25211W        W42059   0.783  15.655  10.166  0.3712 -0.0654 -0.1423
25212W        W42060   1.713  11.259   2.305  0.2392 -0.0584  0.0963
25213W        W42061   0.246  15.857  15.134  0.2320  0.1818  0.1528
25214W        W42062  11.727  11.534   0.505  0.1852  0.0143 -0.1866
25215W        W42063   6.973  15.680  15.296 -0.1956 -0.2388  0.3301
25216W        W42064   5.504   5.432  11.181  0.3652  0.1488  0.1312
25217W        W42065   9.068   4.291  12.371 -0.1059 -0.1626  0.0667
25218W        W42066   3.990  15.336   3.872  0.0611  0.1771 -0.1682
25219W        W42067   4.125   4.870  15.914  0.1187 -0.5309 -0.2417
25220W        W42068   3.117   4.434  14.369 -0.1822 -0.2567 -0.1661
25221W        W42069  11.610   1.456  12.659  0.0122  0.0630  0.1129
25222W        W42070  17.731   2.577   0.865  0.0553 -0.1988  0.0490
25223W        W42071   1.197   8.379  10.773  0.0879 -0.1802 -0.0351
25224W        W42072   5.372   2.505  10.614 -0.0061 -0.0062 -0.1801
25225W        W42073   6.941  17.035  14.096  0.2130  0.0184 -0.4580
25226W        W42074   4.736   7.752   5.171  0.1911  0.2493 -0.0497
25227W        W42075   3.487   7.415  11.430  0.1021 -0.0883  0.0748
25228W        W42076   5.940   4.900   0.145 -0.3536  0.1230  0.0724
25229W        W42077   0.922   1.984  13.051 -0.0937  0.0038 -0.2082
25230W        W42078   8.650   6.070   3.001  0.2283  0.3798 -0.0811
25231W        W42079   7.352  12.042   5.054 -0.0342  0.0993 -0.1877
25232W        W42080   8.153   6.445   4.655  0.1226 -0.0288  0.1814
25233W        W42081  15.229   2.129   2.384  0.0772 -0.0056  0.0702
25234W        W42082  10.705   3.238  13.605 -0.0344 -0.0660  0.0707
25235W        W42083   3.875  18.035   3.791 -0.1482  0.5063 -0.2172
25236W        W42084   3.934   5.794  12.159  0.2383 -0.2293 -0.0964
25237W        W42085   6.548   0.436   5.699 -0.0947  0.4458 -0.0341
25238W        W42086   3.392   8.677   6.093  0.0407  0.3842  0.0219
25239W        W42087   2.438  16.674  11.225 -0.2257 -0.3723  0.2333
25240W        W42088  17.744  15.901  12.799  0.1475  0.2569  0.1835
25241W        W42089   8.579  15.023  15.433  0.3655 -0.1832  0.3790
25242W        W42090   3.982   2.589  15.927 -0.0836 -0.0170  0.1800
25243W        W42091   5.488   3.446  15.843  0.1249  0.0486  0.0409
25244W        W42092  13.353   1.937   0.805  0.3947  0.0876  0.2814
25245W        W42093   0.242   4.312   0.121 -0.2235  0.1594  0.0824
25246W        W42094   8.511   2.589   2.672  0.1450 -0.0596 -0.1324
25247W        W42095  16.777  10.223   2.363  0.0026 -0.0342  0.0128
25248W        W42096   2.850   0.491   3.873  0.2646  0.0451 -0.2252
25249W        W42097   9.383  12.562   0.673  0.1697  0.1505  0.1617
25250W        W42098  11.420   7.954   5.153  0.0171  0.0021  0.0116
25251W        W42099   6.796  12.561  15.627 -0.0366  0.0417  0.0251
25252W        W42100   9.034  12.759  13.170 -0.0750 -0.3542 -0.2293
25253W        W42101  14.579   0.022  11.108 -0.2750 -0.1048  0.2479
25254W        W42102   3.628  11.458   1.072  0.2480  0.3106  0.1000
25255W        W42103   1.702  14.182   0.869 -0.0472  0.2210 -0.0165
25256W        W42104   6.678  15.045  14.094  0.2119 -0.2588  0.0443
25257W        W42105  14.760   9.713   3.283 -0.1984  0.1112 -0.0630
25258W        W42106  10.908   1.879  11.684  0.0301  0.0471 -0.1924
25259W        W42107  13.052  15.663  14.896  0.3207  0.3520 -0.2992
25260W        W42108   9.680   4.962  12.110  0.0176 -0.2707 -0.0830
25261W        W42109  13.324   5.031  13.762 -0.0816  0.0827  0.3483
25262W        W42110   2.245   9.484   2.327  0.0109  0.3365  0.0149
25263W        W42111   9.780  11.207   4.543 -0.1024 -0.0495  0.1108
25264W        W42112  18.009  17.131   2.700 -0.2954  0.1702  0.0148
25265W        W42113  18.001   7.632   4.549  0.1727  0.1252  0.3165
25266W        W42114   1.100   6.447  15.691 -0.0445 -0.0679  0.2946
25267W        W42115  14.065  15.000  14.195 -0.0214 -0.0606  0.1679
25268W        W42116   5.906   9.424   3.241 -0.3975  0.0771  0.0847
25269W        W42117  17.305   2.611  15.631  0.1481 -0.1103 -0.2007
25270W        W42118  12.237   0.275   5.674  0.0587 -0.0313 -0.3005
25271W        W42119   4.400   5.773   1.696  0.0101 -0.1365  0.2103
25272W        W42120   8.361   6.955  11.407  0.1009  0.1967 -0.2477
25273W        W42121  11.977  18.188  12.995 -0.3264 -0.1602 -0.0247
25274W        W42122  13.421  10.066   6.249 -0.1013 -0.0682  0.0047
25275W        W42123   8.389   2.802  14.154 -0.1215 -0.2143  0.0908
25276W        W42124   4.350  13.233   2.169  0.0859  0.1881 -0.1272
25277W        W42125  15.988  10.947   4.103  0.1653 -0.1807 -0.0829
25278W        W42126   4.792  17.465  12.900 -0.1716 -0.1300  0.0525
25279W        W42127  14.392   5.250  14.029 -0.0959 -0.0694 -0.0698
25280W        W42128  15.999   2.870  15.428  0.2295 -0.1097  0.1472
25281W        W42129   8.664  15.091   1.054  0.0622 -0.0238 -0.0414
25282W        W42130   5.750  16.703   3.451 -0.1012  0.1216  0.0781
25283W        W42131   8.372   4.052   3.365 -0.1707  0.0280 -0.1415
25284W        W42132  15.502   5.497   2.827 -0.1884  0.0361  0.1576
25285W        W42133   8.010  10.140   2.924 -0.0503 -0.0409  0.0091
25286W        W42134  12.034   5.255   3.530  0.1353  0.0160  0.1261
25287W        W42135   3.187  12.684   0.417  0.0548  0.1306 -0.1620
25288W        W42136   4.024  12.498  14.468  0.2377  0.0238  0.4612
25289W        W42137  10.524  17.809   2.833  0.0026  0.1226 -0.2701
25290W        W42138   3.197   5.440   4.653  0.1598  0.0816 -0.1361
25291W        W42139   2.609   4.898  12.939 -0.0444  0.1838  0.3359
25292W        W42140   4.096   2.258   0.525  0.0540  0.1618 -0.1062
25293W        W42141   7.573  12.537  12.103 -0.0851 -0.1356  0.1437
25294W        W42142   1.900  14.855   4.280 -0.1702  0.1674  0.0219
25295W        W42143   5.521  11.345  14.879 -0.0449  0.1219  0.2351
25296W        W42144   8.334  10.092  14.112 -0.1774  0.1933  0.1421
25297W        W42145   7.513   2.763  13.645  0.1896  0.1680  0.1037
25298W        W42146   6.308   8.023   4.048  0.1449  0.1527  0.2168
25299W        W42147  10.762   5.058   3.261  0.0749  0.0012 -0.0478
25300W        W42148  16.662  12.727   4.279  0.1313 -0.0319 -0.1819
25301W        W42149  16.810   2.468  15.280 -0.4002  0.0388 -0.2981
25302W        W42150   3.513  14.744  10.004  0.2885  0.1072 -0.0944
25303W        W42151   6.283  10.234   2.762  0.3668 -0.1397 -0.1326
25304W        W42152  10.861   9.831   5.446 -0.0795  0.1150 -0.0566
25305W        W42153   7.845   1.617   0.543  0.2567 -0.2024 -0.2765
25306W        W42154   7.925  16.260   4.090 -0.2320  0.2632  0.1378
25307W        W42155  16.789   9.098   5.068 -0.0726  0.0233  0.2749
25308W        W42156   5.149  14.779  12.285  0.0042 -0.2978 -0.1682
25309W        W42157   8.631  14.652   1.388 -0.1501  0.1711 -0.1414
25310W        W42158   3.689  14.672  13.546  0.1256 -0.1283 -0.0240
25311W        W42159   1.706  10.077  11.535  0.0043  0.3754 -0.1325
25312W        W42160   4.219  15.713  15.315  0.0443 -0.2767 -0.3287
25313W        W42161   8.312  12.307   5.320  0.0487  0.0927  0.0538
25314W        W42162  13.223   1.857   5.181  0.0555 -0.1226  0.3188
25315W        W42163  13.858   9.432  13.061 -0.2246 -0.1096 -0.1029
25316W        W42164  15.545   0.614  11.974  0.2605  0.0311 -0.0069
25317W        W42165  10.272  12.602   3.588 -0.0885 -0.0422  0.1017
25318W        W42166   7.242  18.007  14.971  0.1895  0.0754  0.1094
25319W        W42167  17.623   6.226   5.646 -0.1062  0.2199  0.3550
25320W        W42168  14.867   9.731  11.808  0.3051 -0.0132 -0.1255
25321W        W42169   4.039  17.158   3.400 -0.1705 -0.0087 -0.2073
25322W        W42170   5.639   2.419   1.073  0.2307 -0.1022 -0.0238
25323W        W42171   1.274  10.577   4.289  0.0023  0.3707 -0.2226
25324W        W42172   4.378   8.110   4.075  0.0959 -0.1048  0.1033
25325W        W42173   6.863  16.961  13.363 -0.1781  0.0923 -0.2036
25326W        W42174  11.496  10.146  13.758  0.0707  0.1314 -0.2601
25327W        W42175  16.745   5.431  11.244 -0.1138  0.1544 -0.0049
25328W        W42176   3.676   9.610   2.664 -0.0465  0.1271  0.2246
25329W        W42177  17.028  15.557  16.070  0.0597  0.1912 -0.0839
25330W        W42178   0.144  14.693   3.805 -0.0967  0.0938 -0.0646
25331W        W42179  10.799  15.266   2.263  0.2399 -0.4029  0.1494
25332W        W42180  17.922   8.159  14.334 -0.3603 -0.3830  0.0160
25333W        W42181   8.163   7.900   4.409 -0.1551 -0.0229 -0.1629
25334W        W42182   3.881   6.159   5.219 -0.1612  0.1932 -0.0041
25335W        W42183   0.935  10.170   4.464  0.2294  0.0014 -0.0730
25336W        W42184   4.003   7.633   3.444 -0.3483  0.1772  0.1650
25337W        W42185   0.434  13.256  15.765 -0.1950 -0.0586  0.0107
25338W        W42186  10.752   6.975   6.111 -0.1886  0.2622  0.1703
25339W        W42187   0.582   2.510   2.807  0.0801 -0.2388 -0.0119
25340W        W42188   8.208  10.402  11.413 -0.3277  0.2988  0.1139
25341W        W42189  12.934  12.492   4.236  0.1174 -0.0099 -0.0468
25342W        W42190  12.715   3.230  15.960  0.0641 -0.0938 -0.2014
25343W        W42191   8.000  12.034  15.841  0.3471 -0.2705 -0.0652
25344W        W42192  15.683  17.179  15.853  0.0103  0.2708 -0.0977
25345W        W42193  11.926  16.844  12.485 -0.0966  0.0893 -0.2208
25346W        W42194   2.774   5.202   1.252 -0.0170  0.1278 -0.4975
25347W        W42195   7.579  11.046  13.957 -0.0330  0.1634 -0.0354
25348W        W42196   4.730   2.969   4.535 -0.0134 -0.0805  0.0594
25349W        W42197   6.211   2.659   4.319 -0.3159 -0.0340  0.0782
25350W        W42198   7.228   1.609   5.584 -0.0679 -0.1393  0.1040
25351W        W42199   0.344  15.956   4.446  0.3776 -0.0133  0.1164
25352W        W42200  16.004  15.539   2.771 -0.3051 -0.2944  0.0734
25353W        W42201   7.720   1.855   2.007 -0.0752  0.0361  0.2431
25354W        W42202   6.460  18.037  15.536 -0.4934 -0.0559 -0.2398
25355W        W42203  15.379  16.703   2.829 -0.2155 -0.3192 -0.2422
25356W        W42204   7.361  11.907  12.986 -0.0692  0.1460 -0.1751
25357W        W42205   6.983  10.115   1.154  0.1512  0.0069  0.2497
25358W        W42206  15.380  12.605  13.256  0.2256 -0.1282  0.1312
25359W        W42207  14.523  14.654  14.318  0.3518  0.1564 -0.4521
25360W        W42208  16.340   1.089   1.534 -0.3012  0.3342  0.2610
25361W        W42209  14.457   9.919  13.667 -0.1943  0.2197 -0.2497
25362W        W42210   4.782  10.140   3.281 -0.1045 -0.0698 -0.2800
25363W        W42211  18.078  14.037   0.026 -0.0402  0.0904  0.0265
25364W        W42212   2.986  15.057   0.148  0.1548  0.1501 -0.0137
25365W        W42213   3.950   0.642  13.351 -0.1320 -0.2758 -0.0024
25366W        W42214  11.173   0.599  16.021 -0.1160 -0.3016 -0.0375
25367W        W42215   1.958   3.545   0.361 -0.0330 -0.4180  0.2373
25368W        W42216   2.743   5.568   1.629 -0.0291  0.3040 -0.0275
25369W        W42217   4.886   2.938  15.927  0.0504 -0.0005 -0.2183
25370W        W42218   7.678   6.371   4.445  0.3028  0.2063 -0.2537
25371W        W42219  14.795   5.834   0.728  0.1810  0.0133 -0.1189
25372W        W42220   2.219   5.546   3.319 -0.4014  0.1489  0.0676
25373W        W42221  15.873   3.765   5.430  0.0732  0.0455 -0.0647
25374W        W42222   3.057  16.707  13.175 -0.1050  0.0195 -0.1295
25375W        W42223  11.544  15.618   2.666 -0.2293 -0.0696 -0.0056
25376W        W42224   0.389  11.564   5.565  0.0207  0.0811  0.3859
25377W        W42225   4.250   0.995  12.987 -0.0993  0.0360 -0.1897
25378W        W42226   6.287   0.225   3.132 -0.1319  0.3299 -0.4096
25379W        W42227  18.176   1.687  11.379  0.1059 -0.0381 -0.1804
25380W        W42228  13.559   4.701   4.333  0.3547  0.2199 -0.2035
25381W        W42229  15.596  16.104  14.418 -0.0822 -0.1946 -0.1260
25382W        W42230   3.587  11.434  12.069 -0.3526 -0.2927 -0.0124
25383W        W42231   6.710   9.620  14.571  0.3533 -0.2015  0.0868
25384W        W42232   0.900  10.329   2.248  0.0428 -0.0759 -0.1062
25385W        W42233  17.685  13.051   4.040  0.1529  0.2625  0.0648
25386W        W42234   7.270   9.462   1.331  0.0991  0.1532  0.0015
25387W        W42235   7.788  17.483   5.218 -0.1975 -0.4034  0.2176
25388W        W42236  12.620  12.357   5.600 -0.4225  0.1681 -0.1276
25389W        W42237   4.763  11.065  14.486 -0.0722 -0.1093 -0.1879
25390W        W42238  16.811   1.689   2.534 -0.0795  0.0027 -0.0681
25391W        W42239  10.550   4.642   3.122  0.1444 -0.1424  0.0831
25392W        W42240  10.885  17.297   1.461  0.0931 -0.0034  0.2596
25393W        W42241   5.022  13.185   3.386  0.2361 -0.0843  0.1757
25394W        W42242   4.655  14.004   0.604  0.1023 -0.1890 -0.0736
25395W        W42243  14.158   3.033  11.569  0.3995 -0.0936 -0.2110
25396W        W42244  12.732   6.792   0.387  0.1270 -0.0928  0.3293
25397W        W42245   9.163   7.208  12.136  0.0539  0.0115 -0.1548
25398W        W42246   0.198   7.711   2.180  0.2700 -0.0953 -0.0989
25399W        W42247   7.443   8.326  13.069 -0.1147  0.0548 -0.1387
25400W        W42248  14.318   4.280   4.496 -0.1014 -0.3378  0.2060
25401W        W42249  11.743   5.939   1.080  0.0951 -0.1130 -0.0283
25402W        W42250  11.643  17.961   4.585 -0.1355  0.3397 -0.1196
25403W        W42251  17.401  14.046   2.511 -0.1080  0.1850  0.1601
25404W        W42252   3.143   0.202   0.773  0.2835  0.0112 -0.2888
25405W        W42253  17.333   5.473  12.665 -0.0193 -0.0055 -0.2059
25406W        W42254   7.329  10.067   2.238 -0.1133 -0.0590  0.1568
25407W        W42255  14.532  12.625  16.033  0.3149  0.2298  0.2750
25408W        W42256  14.622   3.665   2.573  0.1954 -0.0371 -0.3048
25409W        W42257  10.088  11.290  11.129 -0.2545  0.1055 -0.0045
25410W        W42258   0.713  14.136   0.072  0.0550  0.1410  0.3781
25411W        W42259   0.758  11.842  15.420 -0.0525 -0.1608  0.0563
25412W        W42260   6.530  10.363  12.765  0.0543  0.2870 -0.2075
25413W        W42261  16.096   9.521   5.369  0.1904  0.4069 -0.0954
25414W        W42262  16.253   6.992  14.930  0.1031  0.1267 -0.1686
25415W        W42263  16.050   8.514  12.476  0.1597  0.3167 -0.2519
25416W        W42264   8.293   7.649  10.840 -0.1340  0.3117 -0.3800
25417W        W42265   2.334  11.446   3.661 -0.2259 -0.0756 -0.0213
25418W        W42266   1.282  10.743   5.138 -0.5174  0.2355  0.1699
25419W        W42267   2.407   7.637  14.243  0.1760  0.0801  0.1261
25420W        W42268   1.281   8.014   2.790 -0.3079 -0.1170 -0.1740
25421W        W42269  15.179  10.170   1.992  0.2542  0.1173 -0.0170
25422W        W42270   4.709  17.400   4.133 -0.1131  0.0839  0.3059
25423W        W42271   9.905   2.232  12.627 -0.1286  0.0655 -0.1068
25424W        W42272   0.492  15.787   1.005 -0.1513  0.1928  0.1354
25425W        W42273   8.670   3.604   4.630  0.1114 -0.0144  0.1388
25426W        W42274  11.931   5.102  12.557  0.1419  0.2381 -0.2057
25427W        W42275  15.613   3.399   2.685  0.0656 -0.1224  0.0301
25428W        W42276  10.254  14.458  10.155  0.0035  0.2689 -0.1242
25429W        W42277   9.271   5.826  12.301 -0.0434  0.4341 -0.0420
25430W        W42278   4.140   1.627  10.994 -0.1174 -0.3028 -0.2299
25431W        W42279  15.116   5.634   3.565 -0.1782  0.1250  0.1050
25432W        W42280  17.674  13.524   3.924  0.1134 -0.0584  0.0728
25433W        W42281  14.637  13.090   2.308  0.2718  0.2348 -0.3779
25434W        W42282  10.035  16.348  11.997 -0.3335 -0.4056 -0.0855
25435W        W42283  14.601   7.156  14.135  0.1466  0.1492  0.1847
25436W        W42284   3.673   3.914  15.988 -0.1179  0.2285  0.0475
25437W        W42285  15.028   0.117  15.995  0.0132 -0.2172  0.3781
25438W        W42286   2.124   2.896   3.818 -0.0823 -0.0453  0.0468
25439W        W42287   8.120  12.948  15.368  0.0195  0.4651  0.1907
25440W        W42288   0.267  13.018  14.878  0.0871  0.3117  0.1164
25441W        W42289  14.572   9.673   4.572 -0.1140  0.0617 -0.1382
25442W        W42290   1.245   9.655  12.684  0.3127 -0.0212  0.1271
25443W        W42291  11.646  13.537   0.157 -0.0062  0.0209  0.2689
25444W        W42292   1.264  12.912   3.810 -0.0833 -0.4645 -0.2434
25445W        W42293  17.425  12.074   0.606 -0.0376 -0.3658 -0.1940
25446W        W42294  14.702  16.020  12.775 -0.0000 -0.0253 -0.2201
25447W        W42295  15.246   7.331  12.524  0.0858  0.1540 -0.0835
25448W        W42296   9.346  15.770  12.090 -0.0724  0.1298 -0.1104
25449W        W42297   4.595  15.387   3.764 -0.0366  0.0595  0.0676
25450W        W42298  15.831   2.628  12.467  0.3713 -0.1664 -0.0539
25451W        W42299  12.859   0.571  13.759  0.1617 -0.0021  0.0093
25452W        W42300   5.177   9.792   1.698 -0.3366 -0.0624 -0.0980
25453W        W42301   7.014   4.259  14.670 -0.1625  0.0387 -0.1721
25454W        W42302  11.925   3.194   2.219 -0.4086 -0.2166 -0.0397
25455W        W42303  14.664  16.671  14.655  0.1333  0.0611  0.1702
25456W        W42304  18.120  16.161  10.980 -0.2047 -0.1571  0.3250
25457W        W42305   7.499   8.566  16.093  0.0433 -0.4286 -0.3765
25458W        W42306  17.460  12.359   2.170  0.1543 -0.1612 -0.0163
25459W        W42307  14.794  14.241  12.891 -0.3055  0.1809  0.0422
25460W        W42308   1.828   3.135  10.660 -0.2168 -0.1149  0.3422
25461W        W42309   2.622   6.087   0.708  0.0065  0.0638  0.2047
25462W        W42310  15.113   1.461  12.069 -0.0551  0.1337  0.0310
25463W        W42311  10.829   6.379  12.611  0.3446  0.1000 -0.1886
25464W        W42312  11.549   8.701   3.680 -0.1780  0.0407 -0.1427
25465W        W42313   2.908  10.795   3.658 -0.2593 -0.1264  0.0496
25466W        W42314   8.657  13.411  15.253 -0.0975 -0.3335  0.1018
25467W        W42315   1.233   3.945  15.917  0.0497  0.2491  0.1564
25468W        W42316   5.557  15.355  13.139  0.3704  0.0748  0.1420
25469W        W42317  11.255   1.757  13.070 -0.0148  0.2807  0.1990
25470W        W42318   5.011   5.037   1.077 -0.0135  0.0658 -0.0984
25471W        W42319  12.033   5.408   5.172 -0.0375 -0.1919  0.0207
25472W        W42320  14.572  11.151   0.536  0.1226 -0.0129  0.0618
25473W        W42321  13.253   1.411  10.934 -0.0802  0.1206  0.3304
25474W        W42322   4.987  10.508  12.309 -0.2677 -0.1043  0.0798
25475W        W42323  18.187   4.496   1.674  0.0977 -0.3198  0.1475
25476W        W42324   3.767   4.481   1.388 -0.1741  0.1913 -0.0825
25477W        W42325  14.411   9.922  11.647  0.0846 -0.3029 -0.1236
25478W        W42326   2.684   0.229  16.012  0.1549 -0.1631  0.3893
25479W        W42327   1.096   4.083  11.285  0.0560  0.0808  0.2747
25480W        W42328   0.570   1.675  13.352 -0.1189  0.0900  0.1284
25481W        W42329   6.392   2.028   1.976 -0.1039 -0.2647 -0.2569
25482W        W42330  12.960   9.526   2.118 -0.1287  0.0897 -0.1742
25483W        W42331  10.451  17.252   5.452  0.2540  0.1091  0.1285
25484W        W42332   6.713  12.264  11.224  0.0631 -0.2279 -0.2731
25485W        W42333  17.740   7.370  12.443 -0.0942  0.4711  0.1763
25486W        W42334   0.120  12.757   2.846  0.2158 -0.1206 -0.1556
25487W        W42335   8.978   3.913  15.780  0.1297 -0.1615 -0.0513
25488W        W42336   5.662  16.980   5.911  0.0139 -0.2173 -0.0312
25489W        W42337   1.560  17.108  11.586 -0.2267 -0.0114 -0.0552
25490W        W42338   1.012  14.510  11.081  0.3137 -0.0468  0.2945
25491W        W42339   1.747  17.159   3.964 -0.0721  0.1846  0.2288
25492W        W42340  15.802  16.593   1.948  0.0872  0.4224 -0.0900
25493W        W42341  12.452  11.329  10.411  0.4813  0.0424 -0.1829
25494W        W42342  10.687  17.852  13.049  0.0636 -0.0024  0.1133
25495W        W42343   1.631   9.779   0.531 -0.0679 -0.0141 -0.0398
25496W        W42344  17.698  13.373  14.824 -0.1763 -0.1209 -0.1618
25497W        W42345  12.175   6.114   3.291 -0.1760 -0.0306 -0.0969
25498W        W42346   3.759   6.448   3.799 -0.0700 -0.2267  0.0077
25499W        W42347  10.179   4.793   2.609  0.0054  0.0937  0.0929
25500W        W42348  11.532   1.564   4.568 -0.1166 -0.0440  0.2539
25501W        W42349   3.778   3.038   4.200  0.1294  0.0218  0.1629
25502W        W42350   2.597  11.643   1.075 -0.1336  0.1131  0.1853
25503W        W42351   7.377   5.786   1.449  0.0886  0.1611  0.1613
25504W        W42352   0.579  17.900   2.483 -0.0126  0.0158  0.1713
25505W        W42353   7.126  14.840   2.601 -0.2536  0.1901  0.1200
25506W        W42354  15.616   3.444   4.558  0.2084 -0.1006 -0.0565
25507W        W42355   2.966   3.833   0.419 -0.0938  0.0623 -0.0540
25508W        W42356   4.111   3.798   5.127  0.1347 -0.1166 -0.0384
25509W        W42357   4.274   5.750   2.775 -0.2643 -0.1603 -0.0513
25510W        W42358  13.984   5.788   3.651 -0.3258  0.1990 -0.0922
25511W        W42359  14.954   2.965  14.728  0.1751  0.2673  0.1044
25512W        W42360   6.999   6.151   0.405 -0.1170 -0.2426 -0.1063
25513W        W42361   9.193   2.697  15.260 -0.3335 -0.0169  0.1279
25514W        W42362  10.620  16.531  13.980  0.0373 -0.0953  0.3024
25515W        W42363  14.716  15.815   2.983  0.0285  0.0693 -0.0007
25516W        W42364   8.126   3.415  11.729 -0.0201  0.0045 -0.2125
25517W        W42365   9.600  17.702  16.063 -0.0432 -0.1253  0.1099
25518W        W42366   4.029   4.157   1.042  0.0727  0.0456 -0.2619
25519W        W42367   3.525  10.759   0.517 -0.2171 -0.2511 -0.1628
25520W        W42368   9.339   1.042  10.856  0.1296 -0.0830 -0.3976
25521W        W42369   7.805   6.199   2.865 -0.0520 -0.0434 -0.1287
25522W        W42370   4.229   1.198  14.742 -0.2278 -0.1490  0.2291
25523W        W42371  14.201   7.678   4.405  0.2320  0.0372 -0.2871
25524W        W42372  15.985  15.053  10.380 -0.1008  0.2213  0.3310
25525W        W42373   1.220  10.511  10.148 -0.0942 -0.3545 -0.1056
25526W        W42374   5.773  10.729   2.032  0.2665 -0.1542  0.2015
25527W        W42375  16.200   4.397   3.106 -0.2146  0.4225 -0.1706
25528W        W42376  17.200   4.560   6.200  0.0755 -0.0076  0.0562
25529W        W42377  13.067   5.721  10.888  0.0291 -0.0860 -0.0075
25530W        W42378   4.254   2.149   4.274 -0.0208 -0.2071 -0.0387
25531W        W42379   3.401  10.990   4.519  0.2614  0.0567 -0.1222
25532W        W42380  14.932   3.648   4.405 -0.2515 -0.1027  0.1398
25533W        W42381   9.777   5.135  15.052  0.0982 -0.1150 -0.0663
25534W        W42382  15.800   4.695   3.274  0.3657  0.2795 -0.1504
25535W        W42383  14.240  14.318   2.917 -0.0118  0.0091  0.0293
25536W        W42384   1.164   8.095  15.624  0.2727 -0.3713 -0.0929
25537W        W42385   2.420   4.893   2.149  0.0302 -0.1579  0.0757
25538W        W42386   8.302   1.959   4.265 -0.1199 -0.3693 -0.0777
25539W        W42387   2.708   2.520  12.863 -0.1101  0.1333 -0.0733
25540W        W42388   0.411   4.487   1.391 -0.0333 -0.0523  0.1899
25541W        W42389   6.210  14.232   3.165  0.2734 -0.0331 -0.0616
25542W        W42390   8.965  14.250   4.787 -0.0071 -0.0392  0.0801
25543W        W42391  16.692   2.112  14.927 -0.0600 -0.0472 -0.0351
25544W        W42392   9.586  12.320   1.017 -0.0999  0.2505 -0.0202
25545W        W42393   9.683  10.846   0.761  0.0086  0.2590 -0.3960
25546W        W42394   6.252  16.890  12.453 -0.0688  0.1108 -0.0025
25547W        W42395   4.988   7.547   2.100 -0.2088  0.1861 -0.0614
25548W        W42396   2.834   8.607   4.815  0.0971  0.2367 -0.1246
25549W        W42397   3.543  10.580  14.949 -0.1855 -0.3988  0.3986
25550W        W42398  16.481   4.061   1.171  0.1564  0.2931 -0.1459
25551W        W42399   4.567   1.410  12.850  0.0549  0.1807 -0.0931
25552W        W42400  17.856   5.025  16.042  0.2230 -0.0390 -0.0984
25553W        W42401   8.228  11.835   3.517 -0.2114 -0.1103 -0.4158
25554W        W42402   2.831   3.507   0.836 -0.1643  0.1089 -0.0713
25555W        W42403   6.271   5.351   5.104  0.2712  0.0742  0.0464
25556W        W42404  10.232  12.676  14.102 -0.0209  0.1892 -0.1592
25557W        W42405  14.509   9.668   0.182 -0.0921  0.0776 -0.0128
25558W        W42406  14.465   6.830  12.537 -0.3085 -0.2296  0.4098
25559W        W42407   7.159   5.664  12.457 -0.1185 -0.2701 -0.0799
25560W        W42408  11.402   1.951   2.230 -0.0006 -0.0269  0.0640
25561W        W42409   4.432  14.293  13.465 -0.0720 -0.2067 -0.0093
25562W        W42410  17.257   5.168  11.767  0.1071  0.1897  0.0624
25563W        W42411  13.837   4.230   4.614  0.0167  0.0196  0.2552
25564W        W42412   5.081  14.988  13.711 -0.1622  0.1250 -0.1623
25565W        W42413   6.674   3.822   4.946 -0.2134  0.0006  0.1074
25566W        W42414  13.125   9.900  12.924  0.2123 -0.0823 -0.3685
25567W        W42415   4.305   9.036  11.734 -0.3929 -0.0876  0.0095
25568W        W42416  15.672   9.974  11.937 -0.0947 -0.0270  0.1137
25569W        W42417  10.819  16.399   2.128  0.1479  0.1522  0.3553
25570W        W42418  14.426  16.663   2.844 -0.0137 -0.0488 -0.2304
25571W        W42419  15.438   9.750  11.165 -0.2670  0.3165 -0.1406
25572W        W42420   2.716  14.622  11.897 -0.0482  0.0709 -0.4679
25573W        W42421  13.756   5.858   0.027 -0.3385  0.1385  0.0767
25574W        W42422  11.624  10.005  12.277  0.0735 -0.2308 -0.1893
25575W        W42423  12.536  13.884   0.689 -0.0626 -0.2733 -0.2340
25576W        W42424  15.375   4.369   2.232  0.1529  0.1002  0.3647
25577W        W42425  18.063  11.060   4.575 -0.2099 -0.2450 -0.4606
25578W        W42426   6.884  10.573  15.997  0.1103 -0.0664 -0.0519
25579W        W42427   6.396  17.092   9.653 -0.1882 -0.2243 -0.0661
25580W        W42428  14.314   8.285   8.630 -0.1836 -0.1183 -0.1039
25581W        W42429  13.369   5.622  14.875 -0.2350  0.1743 -0.1395
25582W        W42430   8.440   5.383  11.944 -0.4486 -0.3234 -0.1844
25583W        W42431  10.299  10.841   4.598 -0.1716  0.0458 -0.0090
25584W        W42432   2.189  12.080  11.321 -0.1081  0.2303  0.2250
25585W        W42433  16.282   7.862   1.779 -0.1409  0.0411 -0.1952
25586W        W42434   5.961  12.268   4.555  0.0996 -0.2422  0.0651
25587W        W42435   5.988  11.840   0.084 -0.1511 -0.3365  0.1401
25588W        W42436   5.576  12.075  10.773  0.0599 -0.0165  0.1715
25589W        W42437   6.810  15.305   1.578  0.2575 -0.0500  0.0552
25590W        W42438  13.393  16.702  12.690  0.1244  0.3466 -0.0457
25591W        W42439   1.390  16.464  15.414  0.0077  0.1031 -0.0081
25592W        W42440  16.450   6.239  11.504 -0.1976  0.0102 -0.0605
25593W        W42441  15.124   0.355   0.299 -0.2045 -0.0869  0.2010
25594W        W42442  15.209   5.446  10.508 -0.1621  0.0036 -0.0126
25595W        W42443   2.667   7.613   3.599 -0.0568 -0.1576  0.4012
25596W        W42444   4.253   2.053  13.937  0.0509  0.1907 -0.1035
25597W        W42445   2.856  15.967  10.939  0.1751 -0.0759 -0.0164
25598W        W42446   0.565  12.340  13.129  0.4697  0.1938  0.1321
25599W        W42447  11.622   0.804  14.115 -0.0448  0.0454 -0.1648
25600W        W42448   5.635   3.334   1.034  0.4655  0.2977  0.0193
25601W        W42449  16.509  12.942  15.404 -0.1807  0.2881 -0.0835
25602W        W42450   0.310   7.128  11.636  0.0261 -0.0986 -0.0571
25603W        W42451  15.275  17.930  11.815  0.1549 -0.0560  0.2288
25604W        W42452   1.590   6.580   1.929 -0.0946 -0.0884  0.0538
25605W        W42453   8.350  10.931  14.565 -0.0267 -0.1040 -0.0086
25606W        W42454   0.564   9.722   2.829  0.3198  0.0697 -0.1249
25607W        W42455   9.702   2.358   4.627  0.0607 -0.1582 -0.1035
25608W        W42456   4.654   6.921  13.707 -0.0735 -0.0395  0.1677
25609W        W42457   8.822  15.349  14.890  0.1711  0.0204  0.0631
25610W        W42458  14.558  10.709   3.567  0.3427 -0.0370 -0.0668
25611W        W42459   6.322  14.592   1.144 -0.0635  0.0083 -0.1384
25612W        W42460  15.333  15.595   1.171 -0.0681 -0.2955  0.0569
25613W        W42461   2.631   9.038   0.945  0.3799 -0.1363 -0.0505
25614W        W42462   5.973   5.100   5.856  0.3212 -0.0842  0.2318
25615W        W42463  17.639  10.620  12.730 -0.1710  0.1226  0.0701
25616W        W42464   8.143   4.928  15.134  0.1845 -0.2565  0.0303
25617W        W42465  10.118  13.846  12.476  0.0598 -0.0544 -0.0796
25618W        W42466  18.111  10.256  15.763  0.0536 -0.1621  0.0461
25619W        W42467   9.484  15.078   3.349 -0.0459 -0.0497 -0.3676
25620W        W42468   1.551   3.558  14.648 -0.1510  0.3600  0.1318
25621W        W42469   3.857  16.503   4.340  0.1739 -0.1448 -0.0944
25622W        W42470   6.926  10.293   2.016 -0.1191 -0.0361 -0.2199
25623W        W42471   4.534  14.563   3.862 -0.0070  0.0796 -0.0134
25624W        W42472  11.594   0.032   1.807  0.2603 -0.1849  0.1397
25625W        W42473  15.243  11.531  12.260  0.1167  0.3307  0.0821
25626W        W42474  14.476  14.844   3.659 -0.2114  0.0523  0.2427
25627W        W42475  10.766  15.126   1.672  0.4035  0.3682  0.1131
25628W        W42476  17.578   1.911  13.701 -0.2882 -0.1471  0.1300
25629W        W42477  15.009   8.600   1.489  0.0018 -0.0134 -0.3357
25630W        W42478   6.439   6.526  13.692 -0.0097  0.0321 -0.1144
25631W        W42479  17.979  10.874  14.946 -0.2685 -0.1794  0.0418
25632W        W42480   0.159  17.318   1.087  0.0002 -0.3091  0.1675
25633W        W42481   4.167  17.716  12.233  0.5569  0.2291 -0.2320
25634W        W42482   7.083   4.343  12.403  0.0950  0.1698 -0.0468
25635W        W42483  12.958  15.076   0.201 -0.0506  0.1759 -0.0730
25636W        W42484   9.070  16.981  14.860 -0.1455 -0.2362 -0.2169
25637W        W42485  18.130  12.927   0.669 -0.0045 -0.4769  0.0931
25638W        W42486   9.783   2.686   5.005 -0.3313  0.3282  0.1424
25639W        W42487  12.375  16.308  13.319  0.0345  0.2942  0.1276
25640W        W42488   4.434  13.402  13.916  0.0729  0.3088 -0.4124
25641W        W42489   6.990   3.385   4.580 -0.2226  0.2897  0.0325
25642W        W42490   6.933  14.023  14.312 -0.0790 -0.2127 -0.2804
25643W        W42491   1.567   8.166   1.516 -0.0508  0.4043  0.0405
25644W        W42492   1.449   7.209  11.826 -0.2386 -0.1511 -0.2266
25645W        W42493  11.712  10.760  11.114 -0.1093  0.3025  0.2523
25646W        W42494  12.077  13.325   0.100  0.1363 -0.3639  0.0976
25647W        W42495  10.049   3.983   4.104 -0.0249  0.0785 -0.1441
25648W        W42496   7.567   9.796  11.328  0.1166  0.1181  0.0465
25649W        W42497  13.502  15.840   2.555  0.1352 -0.1707  0.2126
25650W        W42498  18.208   1.694  15.037 -0.2091 -0.0488 -0.1455
25651W        W42499  16.532  13.485  13.724  0.2708 -0.1503 -0.2114
25652W        W42500  17.766  18.077  11.776 -0.0792  0.1296  0.1611
25653W        W42501   2.418  13.504   4.154 -0.0688 -0.0992 -0.0845
25654W        W42502   6.826  14.885   0.252  0.0177  0.2243  0.1434
25655W        W42503  11.772  10.849  12.946 -0.2165 -0.1181 -0.0119
25656W        W42504   7.972  17.710  14.607  0.4542 -0.0255 -0.1731
25657W        W42505  14.070   7.857  12.587  0.1992  0.3983 -0.0499
25658W        W42506   6.580   5.016  14.967 -0.2198  0.2691  0.1004
25659W        W42507   3.233   7.054  11.208  0.0077 -0.3233  0.2736
25660W        W42508   6.855  12.242   0.528 -0.0265 -0.1488  0.2386
25661W        W42509   8.860  17.403  13.625 -0.2244 -0.1357  0.0205
25662W        W42510  14.934   7.842  12.480  0.0458 -0.1151 -0.1259
25663W        W42511   5.304  14.736  12.773 -0.1100  0.0309 -0.0026
25664W        W42512   1.798  10.279   1.651 -0.0912 -0.1168 -0.1466
25665W        W42513  18.165  17.787   4.036  0.1135  0.0158 -0.0283
25666W        W42514   4.255   1.769  11.874 -0.2368 -0.1579  0.3237
25667W        W42515  13.000  16.685  13.103 -0.1893 -0.4226  0.2097
25668W        W42516  17.206   5.426  15.999 -0.2184  0.0066 -0.1661
25669W        W42517   9.411   9.094   3.939  0.0259  0.1544 -0.0687
25670W        W42518   8.399   3.751  12.975 -0.2004  0.0622  0.0245
25671W        W42519   1.949  17.970  15.737  0.0195  0.0562  0.0828
25672W        W42520  15.906  11.706   5.171 -0.1419  0.0493  0.2666
25673W        W42521  16.988   7.360  13.989 -0.1044 -0.1067  0.1842
25674W        W42522  16.883   1.692  12.370 -0.2080 -0.3056 -0.0452
25675W        W42523  18.153   1.523   4.122 -0.1231 -0.0284  0.1606
25676W        W42524   8.705   6.120  11.511  0.0417  0.1289 -0.1064
25677W        W42525  18.076  15.071  12.477  0.3233  0.0722  0.0538
25678W        W42526   8.974   7.446   4.439  0.0287  0.4067 -0.0506
25679W        W42527  15.280  15.634   3.810 -0.2537  0.2694  0.0329
25680W        W42528  17.434   0.989   2.652 -0.1981  0.3198 -0.1021
25681W        W42529  15.890  17.954   1.925 -0.2553 -0.2209  0.0256
25682W        W42530   8.978  12.198   2.579  0.0679 -0.0425 -0.2952
25683W        W42531   3.109   4.095   2.194  0.0437  0.1141 -0.0582
25684W        W42532  11.998   3.083   3.672 -0.0333  0.2668  0.1952
25685W        W42533  14.611  17.718  11.389  0.0090 -0.2267  0.1277
25686W        W42534  17.037  10.187  13.708 -0.1490  0.0253 -0.2695
25687W        W42535   8.998   4.145   1.914  0.0215  0.2045 -0.1041
25688W        W42536   5.359   3.285   5.180 -0.0035 -0.1755  0.1343
25689W        W42537  16.332   1.171  14.773  0.2401 -0.0824  0.0958
25690W        W42538  13.610   2.022   1.742 -0.3707 -0.4279 -0.0361
25691W        W42539   1.257  17.625  14.532  0.2003 -0.1796  0.1148
25692W        W42540  16.730   5.220  14.256  0.1141  0.0650  0.1294
25693W        W42541  11.247   0.292   2.061 -0.1959  0.1417  0.1033
25694W        W42542   2.886  17.553  13.088 -0.2621 -0.0892 -0.3119
25695W        W42543   0.062   5.982   0.955 -0.1177 -0.0352 -0.0331
25696W        W42544  18.209  14.132  15.624 -0.3708 -0.0332  0.1243
25697W        W42545   7.360   8.803   0.706 -0.4284 -0.4057  0.1896
25698W        W42546  16.652   0.245   1.102  0.0399 -0.3214 -0.0469
25699W        W42547  16.132   8.642  13.039 -0.1837  0.1613 -0.2363
25700W        W42548  15.818   8.502   0.914 -0.0018 -0.0477 -0.1686
25701W        W42549  14.394   4.322  11.872 -0.1338  0.2168  0.1798
25702W        W42550   7.735  17.888   4.390 -0.3020  0.3894  0.0951
25703W        W42551   7.052  13.365   2.818 -0.2891 -0.1116  0.2909
25704W        W42552   8.162  15.056   3.085 -0.4244  0.0025 -0.1414
25705W        W42553  13.976   7.913   2.987 -0.1222 -0.2366 -0.1431
25706W        W42554  14.306  11.800   2.814 -0.1204  0.0697 -0.1319
25707W        W42555   6.849   3.824  16.114 -0.2827 -0.0229  0.0331
25708W        W42556  12.979  13.188   2.909  0.0553 -0.0241  0.0721
25709W        W42557   5.916  15.828   0.918  0.2466  0.1104  0.0610
25710W        W42558   9.279  12.432   0.167  0.3219 -0.0770 -0.0141
25711W        W42559   7.461   2.010   0.549 -0.0759  0.0492 -0.3534
25712W        W42560  12.285   7.084  13.125 -0.1284 -0.0159 -0.0749
25713W        W42561  17.095  13.084  14.432 -0.1620  0.0139  0.1368
25714W        W42562   8.588   8.248   3.359 -0.0855 -0.0235  0.1085
25715W        W42563   9.615   8.733  12.159 -0.3817 -0.2001  0.2146
25716W        W42564  13.323  12.612  13.811  0.1918  0.2537 -0.0733
25717W        W42565   7.241  10.755   2.325  0.2870  0.0864 -0.1644
25718W        W42566  15.422  14.311  14.235 -0.0397 -0.2575  0.0317
25719W        W42567  11.008  13.985   1.819 -0.1573 -0.0121  0.1832
25720W        W42568   9.124  17.873   4.781  0.1921 -0.3697  0.0346
25721W        W42569   4.392  11.197  14.800  0.0153 -0.0800 -0.1572
25722W        W42570  11.298   2.700   4.028 -0.1650  0.0315 -0.2338
25723W        W42571   8.719   1.132  12.574 -0.0325 -0.2262 -0.2522
25724W        W42572  10.616   0.056   3.669 -0.3741 -0.0467  0.0964
25725W        W42573   0.075   1.241  15.128 -0.0357  0.2910  0.1124
25726W        W42574   6.011  16.966   4.576  0.1305  0.2042 -0.2728
25727W        W42575  13.476  12.787   4.655 -0.2575 -0.1884 -0.1727
25728W        W42576  15.494   8.747   3.098  0.0914 -0.0581  0.0253
25729W        W42577   5.096  12.592   0.905 -0.2226  0.0272  0.1196
25730W        W42578   4.659  17.241  15.373  0.0623 -0.1654  0.5924
25731W        W42579   9.977  11.463  14.522 -0.0203 -0.1020  0.0362
25732W        W42580  15.096   4.331  10.387  0.1849  0.0533 -0.2454
25733W        W42581  11.068  16.631   1.704 -0.0027 -0.0898  0.1018
25734W        W42582  12.448  12.091   6.344  0.0568 -0.0190 -0.0232
25735W        W42583   9.933   6.956  11.118 -0.1882  0.1654  0.3724
25736W        W42584  14.094   7.924   1.643 -0.0081  0.3436 -0.0155
25737W        W42585   4.457   3.772  12.700 -0.0769  0.2974 -0.0444
25738W        W42586   8.111  10.216   3.394  0.1650  0.1075  0.3106
25739W        W42587   7.068  14.945  12.204 -0.2819  0.1103 -0.2954
25740W        W42588   4.187  11.438   4.244 -0.0114  0.0794 -0.1744
25741W        W42589   1.737   0.024   2.575 -0.3283 -0.2491  0.0271
25742W        W42590   2.766   6.632   1.468  0.2445  0.2957 -0.0764
25743W        W42591  14.650  10.289   2.587 -0.0023 -0.3162  0.2996
25744W        W42592   8.906  13.346   3.534  0.0661 -0.1376  0.1161
25745W        W42593  10.100  15.657   5.033  0.0104 -0.3203 -0.2102
25746W        W42594   5.714  12.991  12.610  0.0435 -0.2789 -0.0012
25747W        W42595   9.487   2.957  14.755 -0.2364  0.1192 -0.0769
25748W        W42596   9.676  12.998  12.583  0.0095  0.0195  0.0843
25749W        W42597   2.701  10.932  10.605  0.3030  0.0629 -0.1768
25750W        W42598  11.487  16.123  11.841 -0.0795  0.0503 -0.4539
25751W        W42599   7.721  11.571  12.756 -0.0213  0.1914  0.1673
25752W        W42600  14.525  16.816  13.956 -0.1368  0.1041 -0.0388
25753W        W42601   9.147  17.457  14.524 -0.1687  0.0829 -0.2550
25754W        W42602   0.291   6.624   5.229  0.2024  0.1562  0.0115
25755W        W42603  16.640  12.369   0.220  0.2379  0.5722  0.0202
25756W        W42604   6.489  14.267  11.239  0.0090 -0.0007 -0.1354
25757W        W42605  13.443  10.404  13.270 -0.1592  0.2491  0.0728
25758W        W42606  14.487  16.922   4.357 -0.2117  0.2009  0.0296
25759W        W42607  17.938   3.325   2.759  0.0988  0.2065 -0.2856
25760W        W42608   5.942  10.083   3.497 -0.2008 -0.2683 -0.0763
25761W        W42609  17.250   7.231   5.501  0.0950  0.1981 -0.1502
25762W        W42610   6.103   7.220   2.949  0.0492  0.3593 -0.2274
25763W        W42611  17.392  13.234  11.035 -0.4054  0.0455  0.0248
25764W        W42612   8.994  17.835   3.084 -0.4260  0.0493  0.2314
25765W        W42613   5.426  17.539   6.039 -0.2181  0.3471  0.0201
25766W        W42614  14.300   2.445   1.415  0.1735 -0.0350 -0.3436
25767W        W42615  10.008   6.735   2.797 -0.1423  0.2188  0.2943
25768W        W42616   2.861  18.088  13.222  0.0486  0.0140 -0.2134
25769W        W42617   9.524  15.154   2.279 -0.0291  0.1774 -0.3817
25770W        W42618   1.299   4.218   1.726 -0.0797 -0.2290 -0.1315
25771W        W42619   1.503   7.094   0.303 -0.2146 -0.1164 -0.1289
25772W        W42620   1.838  12.527  12.042 -0.0159 -0.1097 -0.1458
25773W        W42621   0.152   8.159   0.346 -0.1213  0.2042  0.2050
25774W        W42622  11.957   7.026  14.422 -0.1932 -0.1029  0.5559
25775W        W42623   1.605   7.599  13.729 -0.0573 -0.1164 -0.0090
25776W        W42624  16.128  13.812  11.346  0.2654 -0.0918 -0.0038
25777W        W42625   0.777   1.832  10.991 -0.1151  0.0270 -0.0458
25778W        W42626   4.286   1.421   5.904 -0.0715 -0.1698 -0.3311
25779W        W42627   3.491  12.383  12.344 -0.0813 -0.0003  0.0492
25780W        W42628   6.541   8.819   1.985 -0.2159  0.0204 -0.1196
25781W        W42629  10.813  17.438  16.097 -0.0326 -0.1960  0.1948
25782W        W42630  15.192   7.189   0.520  0.0219 -0.0238  0.1353
25783W        W42631  14.605   0.724  13.935  0.1434 -0.0081 -0.1536
25784W        W42632   1.227   2.818   2.778 -0.1220  0.1076  0.3124
25785W        W42633  14.136   2.419  11.413  0.3729 -0.0020 -0.0348
25786W        W42634   3.934  11.623  14.442  0.2213 -0.0742  0.1148
25787W        W42635   8.197   4.406  15.506  0.0728 -0.1081 -0.0597
25788W        W42636   0.605   9.222   5.158  0.4050 -0.3075  0.4833
25789W        W42637   0.080  15.266   1.808  0.1883  0.1071 -0.0332
25790W        W42638   3.784  16.229  15.829  0.2746 -0.0011 -0.0350
25791W        W42639   5.294   5.467   0.178 -0.0723  0.1605  0.1590
25792W        W42640  13.972  14.469   0.823  0.0668  0.2429 -0.0717
25793W        W42641  15.862  10.436   3.359  0.1091  0.1505  0.1585
25794W        W42642   0.719   5.998   4.731 -0.0256 -0.0201  0.1713
25795W        W42643   3.935   9.179  15.626 -0.0141  0.0106  0.0275
25796W        W42644  14.559   3.059  13.428 -0.0188  0.0115  0.1043
25797W        W42645  10.422   2.019   3.424 -0.0593 -0.1128  0.2176
25798W        W42646  14.791   4.046   4.721  0.2794 -0.0510  0.3840
25799W        W42647   8.620   2.121  14.681  0.2013 -0.0489  0.0426
25800W        W42648  12.147  11.848  11.825 -0.1414  0.1061 -0.1170
25801W        W42649  10.574  12.010  15.772  0.0218 -0.3075 -0.0422
25802W        W42650  11.272  12.960  11.322 -0.2948  0.0401 -0.0285
25803W        W42651  13.316   9.473   0.838 -0.2058  0.0427 -0.0695
25804W        W42652  13.164   1.368   0.419  0.1606 -0.1009 -0.1633
25805W        W42653  11.325   3.303  14.209  0.1675  0.2905  0.0789
25806W        W42654   0.608  13.203  12.606  0.0945  0.3261 -0.0964
25807W        W42655  11.250  11.779  11.430  0.0842 -0.0329 -0.3288
25808W        W42656   9.604  10.236  13.584  0.1724  0.2058 -0.0582
25809W        W42657   7.653   0.931  11.155 -0.3227  0.2748  0.0028
25810W        W42658   0.009   1.216   1.083 -0.0627 -0.0574 -0.1704
25811W        W42659   6.769   0.147  14.866 -0.2934  0.1673 -0.2861
25812W        W42660   2.827  12.033  12.745 -0.0298 -0.3251 -0.1054
25813W        W42661  11.720   2.136  13.818 -0.1878 -0.4152  0.0005
25814W        W42662   6.507   2.375   0.365 -0.1554 -0.1541 -0.0660
25815W        W42663  16.838  12.736  14.162  0.0494 -0.1235 -0.0523
25816W        W42664   0.166  11.115   3.225 -0.1714  0.1076  0.0342
25817W        W42665  15.693   5.865   0.527  0.0871  0.2102  0.2840
25818W        W42666   7.940  10.174   0.963  0.2456  0.3484  0.0503
25819W        W42667   9.259   6.113   1.944 -0.1786 -0.1814  0.0915
25820W        W42668   8.580   8.935  13.546  0.0730 -0.1798  0.0271
25821W        W42669  10.723  15.950  10.830  0.2048 -0.2373  0.0665
25822W        W42670  12.258  15.135  11.156  0.0273  0.1695 -0.1310
25823W        W42671  10.548  15.971  13.617 -0.3379  0.1566  0.0975
25824W        W42672  15.186   9.498  15.576  0.2642  0.1677  0.1845
25825W        W42673   0.450   1.250   4.169  0.1048 -0.1693 -0.1216
25826W        W42674  13.394  13.640  12.690 -0.3010 -0.0432  0.1114
25827W        W42675  16.845  14.593   5.358 -0.4003  0.1018  0.0213
25828W        W42676   4.535   8.908   2.326  0.1080  0.0538 -0.1592
25829W        W42677   8.217   1.275   0.361 -0.1339 -0.0758  0.4438
25830W        W42678  11.951  16.167  15.205  0.2133  0.1883 -0.0690
25831W        W42679  12.088   6.362   4.723  0.3021 -0.1917 -0.1113
25832W        W42680  11.090  11.420   5.735  0.2115  0.0670  0.1397
25833W        W42681   0.592   6.076   0.814  0.1166  0.0320 -0.1419
25834W        W42682   1.910   7.342   1.156  0.1363  0.2495 -0.0666
25835W        W42683   9.454  12.239   3.518 -0.0717 -0.0494 -0.2577
25836W        W42684  12.222   5.762  11.374  0.1292 -0.2971  0.1939
25837W        W42685  13.176   6.900  13.391  0.1121  0.0703  0.0015
25838W        W42686   3.185  14.189  10.701 -0.2184  0.0771 -0.0268
25839W        W42687  10.383   5.348   1.437 -0.0994 -0.3098  0.0201
25840W        W42688  13.687  16.819  10.426  0.2549  0.1010 -0.2834
25841W        W42689   5.577  15.172   3.196  0.0039  0.2506 -0.2529
25842W        W42690   0.740  14.406  12.119  0.2492  0.0382  0.2745
25843W        W42691  17.326  18.015  15.580  0.4596 -0.0776 -0.2773
25844W        W42692   9.689   1.355   2.437 -0.1372 -0.1506 -0.1293
25845W        W42693  11.701   1.391  10.755 -0.1370  0.2907  0.0779
25846W        W42694   5.328  14.347   0.057  0.0598 -0.1061  0.2089
25847W        W42695  13.294   9.420  16.046 -0.3755  0.0665 -0.1707
25848W        W42696   8.420   3.084   0.750  0.1537 -0.0132 -0.0963
25849W        W42697  16.108   5.953  15.281 -0.0080  0.1154  0.2951
25850W        W42698   8.969  11.421   0.981  0.2276 -0.1525  0.4270
25851W        W42699  11.878  14.519   0.003 -0.1962 -0.1029  0.1240
25852W        W42700  16.784  13.999  12.801  0.1757  0.1120 -0.1296
25853W        W42701  14.146   0.596  12.055  0.2456  0.1473 -0.2338
25854W        W42702  17.293   0.597  10.729 -0.0033  0.3652  0.0860
25855W        W42703   9.187  10.150   3.694  0.0487  0.1712  0.1603
25856W        W42704  17.666  11.187  14.699 -0.1440  0.1476 -0.1045
25857W        W42705  17.627   5.235  14.690 -0.0790 -0.0968 -0.0967
25858W        W42706  13.778  10.273   4.405 -0.0351 -0.3411 -0.0799
25859W        W42707   0.715   3.155  14.652  0.4134  0.1613 -0.1757
25860W        W42708   2.954  15.461   3.022 -0.0365  0.1359 -0.1045
25861W        W42709  14.233   8.358   1.015 -0.2958 -0.1441  0.0311
25862W        W42710  11.925  14.833  11.456  0.1182 -0.2137 -0.2735
25863W        W42711  11.531  12.190  15.376 -0.0166  0.1578  0.3640
25864W        W42712   7.819   1.895   3.899  0.0839 -0.1343  0.0180
25865W        W42713   6.867   9.790   2.072 -0.1686  0.0799  0.1759
25866W        W42714   7.648   0.718  13.234 -0.0381  0.2470  0.2101
25867W        W42715  13.087  17.825  13.874 -0.0608  0.0024 -0.0922
25868W        W42716   3.417  11.447  12.649  0.1788 -0.0831  0.1133
25869W        W42717  11.401  10.057  10.320  0.2632 -0.0082 -0.1073
25870W        W42718   7.735  10.564   3.728 -0.0731 -0.1272 -0.0679
25871W        W42719  16.592  10.977   0.088 -0.0847 -0.0687  0.0633
25872W        W42720  14.265   7.003  13.110  0.3023  0.0535 -0.0958
25873W        W42721  13.997  16.038  13.991  0.0020 -0.0870  0.1258
25874W        W42722  17.068   4.562   0.196 -0.1658  0.2147  0.0849
25875W        W42723  10.465  11.663  11.165 -0.1368 -0.0910 -0.1507
25876W        W42724  12.400   9.910   4.436 -0.0480 -0.1328 -0.1003
25877W        W42725  12.214  15.041  13.454  0.0496 -0.0668  0.1239
25878W        W42726  12.200   8.736  13.846 -0.1297  0.1202  0.1505
25879W        W42727   9.639  16.714  15.595  0.1464  0.0574 -0.3200
25880W        W42728  16.498   8.702  12.642  0.0051 -0.2393  0.2317
25881W        W42729   8.416   3.805  15.004  0.2658 -0.3836 -0.1866
25882W        W42730  15.595   7.206   1.625  0.3738 -0.3049 -0.0780
25883W        W42731   0.672   3.606   5.122  0.1417  0.2710  0.0674
25884W        W42732  17.288   8.612  13.697  0.1507  0.0985 -0.2932
25885W        W42733  12.241   5.943   3.907 -0.0711 -0.0314 -0.0747
25886W        W42734   7.783   4.627   3.656 -0.0925 -0.4764 -0.2137
25887W        W42735   9.495  14.882   1.019 -0.3349 -0.2168 -0.0745
25888W        W42736   2.635   7.797  12.275  0.2539 -0.2015 -0.0544
25889W        W42737  17.602   9.568  15.881  0.0117  0.0761 -0.0696
25890W        W42738   2.598   1.228   0.117  0.0609  0.2971 -0.0500
25891W        W42739  10.325   2.175   0.433  0.6120  0.0796  0.1055
25892W        W42740   8.671   1.438  12.949  0.1119  0.1292 -0.3097
25893W        W42741   9.195   1.902   5.248  0.0732 -0.1251 -0.2097
25894W        W42742   0.441   6.186   3.516 -0.1206 -0.1334 -0.1080
25895W        W42743  18.161  13.027   1.227  0.0558 -0.1491  0.4094
25896W        W42744  11.236   9.541   5.713 -0.3850 -0.1505 -0.2223
25897W        W42745   7.785  13.666  10.757  0.1527  0.2746  0.0248
25898W        W42746  16.327   3.665   3.811 -0.1194  0.1019  0.2027
25899W        W42747   5.500  13.147   5.051 -0.0306 -0.0453  0.0106
25900W        W42748  16.448  14.809   0.504 -0.0609 -0.4163 -0.1494
25901W        W42749   5.257   8.328   4.074  0.2509  0.4471 -0.0235
25902W        W42750   7.140  14.011   2.171  0.0431  0.1613 -0.0982
25903W        W42751  14.182   8.065   5.284 -0.0813 -0.1387 -0.1276
25904W        W42752  12.163  12.207   5.169 -0.0497 -0.3541  0.0440
25905W        W42753  16.613   3.675  14.985  0.0743  0.0683  0.0971
25906W        W42754  14.244   9.166   3.329  0.0002  0.0111  0.0087
25907W        W42755   8.145  15.513   4.433 -0.1720  0.2043 -0.2797
25908W        W42756   8.651  13.729   2.609  0.0524  0.0928  0.1466
25909W        W42757  11.866   1.477  12.182 -0.2808 -0.1503  0.0074
25910W        W42758   7.832   4.705   1.079 -0.1025 -0.1914 -0.0682
25911W        W42759  14.968   8.352  14.237 -0.0616  0.0722  0.0695
25912W        W42760   4.485  11.834   1.410 -0.0166 -0.3453  0.1051
25913W        W42761   4.784   1.318   2.262 -0.0295  0.2715 -0.0752
25914W        W42762  13.489   1.069  15.391 -0.1115  0.0175  0.4296
25915W        W42763  13.163  15.080  11.870 -0.0254  0.0448 -0.1753
25916W        W42764   7.155   0.445   1.553  0.1092  0.2222 -0.2387
25917W        W42765  10.652   6.102   0.895  0.0390  0.3885  0.0612
25918W        W42766  18.052   4.557  12.640  0.1645  0.4924  0.3034
25919W        W42767   0.685  12.906  12.192  0.0949 -0.1016  0.1867
25920W        W42768   6.987   2.237  14.599  0.1435  0.2122  0.3586
25921W        W42769  15.216  16.007   3.063 -0.2308  0.1423  0.0603
25922W        W42770  11.105   8.564   4.486  0.2841  0.0640  0.1780
25923W        W42771  12.309   9.368   4.491  0.0934 -0.0206  0.3796
25924W        W42772  16.630   0.214  11.622  0.0949 -0.4143 -0.1482
25925W        W42773  11.822   7.119  16.083  0.0835  0.0902  0.1858
25926W        W42774   2.125   0.488   4.338  0.0941  0.2935 -0.0434
25927W        W42775   3.050   7.965   4.150 -0.2159  0.0548  0.3250
25928W        W42776  11.031   1.561  13.994  0.1475 -0.3813  0.3193
25929W        W42777  10.249  15.061  11.078  0.1821  0.5021 -0.0436
25930W        W42778   8.665  12.683  12.677  0.1750 -0.2708  0.2887
25931W        W42779  10.545   3.782   4.658 -0.1559 -0.1719 -0.1645
25932W        W42780   8.166   9.313   6.507  0.0109  0.1608  0.0647
25933W        W42781   5.946   7.129   5.621  0.1158  0.2460  0.0178
25934W        W42782  18.192   8.642  11.952  0.3037  0.0352  0.1910
25935W        W42783  13.967   0.271  13.478 -0.2427  0.3505  0.1848
25936W        W42784  14.708   9.893  14.907  0.0858  0.2670 -0.0959
25937W        W42785  13.803   8.800  15.906 -0.2877 -0.1205  0.2152
25938W        W42786  11.369  13.876  15.961  0.5303  0.0236  0.1341
25939W        W42787   5.333  14.894  11.521  0.3435  0.3677  0.0258
25940W        W42788  16.991  16.917  15.977  0.1311 -0.1552 -0.3446
25941W        W42789  12.785   5.543  15.683 -0.1094 -0.3914  0.1029
25942W        W42790  17.237  13.978  14.103 -0.0396  0.0811  0.1956
25943W        W42791  12.878   6.692   3.138 -0.2649  0.3884 -0.1353
25944W        W42792   3.786  11.628  15.506 -0.2233  0.3454  0.3818
25945W        W42793  11.965   3.970  11.264 -0.3367  0.1324 -0.0541
25946W        W42794  11.716  16.770   5.114  0.0603 -0.0155 -0.2522
25947W        W42795   6.370   6.216  14.664 -0.1322  0.2499 -0.0210
25948W        W42796   6.921  13.172  11.940  0.1051 -0.0927  0.1026
25949W        W42797   4.237  16.955  13.770 -0.0216 -0.2674 -0.0396
25950W        W42798   3.831  15.594   4.839  0.2202 -0.1124 -0.2942
25951W        W42799   8.191   4.010   1.373 -0.1392 -0.0490  0.0371
25952W        W42800   1.505  15.667   2.098  0.4657 -0.0868  0.0443
25953W        W42801   4.310   6.362  15.099 -0.1752  0.0542  0.5544
25954W        W42802   4.186   8.377   4.479  0.1293 -0.1883  0.1606
25955W        W42803  16.011   0.993   3.914  0.0291  0.1190 -0.0426
25956W        W42804  11.940  16.033  11.422 -0.0195 -0.0268  0.2235
25957W        W42805   6.595   5.261  15.703 -0.0481 -0.0897  0.1454
25958W        W42806  14.824  17.662   4.066  0.1136 -0.0412 -0.1274
25959W        W42807   2.659   6.926   2.141  0.3210 -0.0816  0.1435
25960W        W42808  14.279  14.062  15.289  0.1329 -0.0045 -0.0717
25961W        W42809   7.184  16.233  10.826 -0.0728 -0.0898 -0.1768
25962W        W42810   4.151   4.051   4.351  0.1758  0.0231  0.0327
25963W        W42811  14.660  15.131  14.668 -0.2302  0.1465 -0.0796
25964W        W42812   1.613  11.111  13.895 -0.2356 -0.0797  0.2265
25965W        W42813   5.482  12.222  12.077 -0.1579 -0.3752  0.3119
25966W        W42814   7.594  10.875   1.502  0.0193  0.0886  0.3309
25967W        W42815   3.599   0.133   1.298  0.4228  0.2693 -0.6168
25968W        W42816  14.869  10.296   3.352  0.1716  0.2823 -0.0016
25969W        W42817  12.123   2.773  11.231  0.1514  0.0162  0.0889
25970W        W42818  12.251  14.774  12.893  0.3221  0.0315 -0.0654
25971W        W42819   4.786  14.671  15.308  0.1827  0.3294  0.0395
25972W        W42820  11.369  13.215   5.217 -0.0327 -0.0882 -0.2435
25973W        W42821  16.350   8.338   0.265 -0.1839  0.0528 -0.0249
25974W        W42822  12.772   0.061   3.255  0.0412 -0.2579 -0.0736
25975W        W42823   7.318  14.443  11.818  0.0770 -0.4538 -0.0811
25976W        W42824   0.922  12.353   1.431 -0.0923  0.1160 -0.0942
25977W        W42825   3.737  13.499   4.402  0.3337 -0.1038 -0.1692
25978W        W42826  13.098   4.640  11.757 -0.0448  0.0122  0.1423
25979W        W42827  10.379   3.805  11.816 -0.1289  0.0976  0.1389
25980W        W42828   7.928  17.030  11.599 -0.1139  0.2041  0.1462
25981W        W42829  15.090   7.203  15.654  0.1873 -0.0179 -0.1396
25982W        W42830   5.144   4.407   3.226 -0.0759 -0.0358 -0.0449
25983W        W42831  14.146   1.646   1.361  0.0017  0.1477 -0.0095
25984W        W42832  11.447  16.335  14.359 -0.2201 -0.0643  0.1823
25985W        W42833   4.833   3.680  10.479  0.1160  0.1412  0.1816
25986W        W42834   0.237  13.756  12.426 -0.2495  0.0300  0.2161
25987W        W42835  18.182   8.610  11.239 -0.0038  0.0726  0.2653
25988W        W42836   4.698   5.007   5.055  0.0145  0.1403 -0.3900
25989W        W42837   2.981   0.516   2.220 -0.2952  0.0892 -0.0103
25990W        W42838   7.143   6.243  12.980 -0.2166 -0.0102 -0.2385
25991W        W42839   8.230   4.989   1.321 -0.3236  0.0551  0.3165
25992W        W42840   7.432  18.031  15.404  0.0697  0.0006 -0.0224
25993W        W42841  12.352  11.546  12.756 -0.2416  0.2033 -0.2708
25994W        W42842  17.621  17.067  10.400  0.3530 -0.0381 -0.0470
25995W        W42843  13.850  13.350   3.316  0.1027  0.1076 -0.2863
25996W        W42844   2.807  17.824  12.186 -0.2634 -0.2663  0.0339
25997W        W42845  13.722   5.263  12.609 -0.2163  0.1485 -0.1199
25998W        W42846   1.441  17.250   3.399  0.0617  0.1102 -0.0721
25999W        W42847   6.926  14.584   2.243 -0.4659 -0.1976 -0.0489
26000W        W42848   0.715   7.440   4.644 -0.0909  0.2124 -0.3493
26001W        W42849  17.160  14.496   3.947  0.2951 -0.1136  0.3105
26002W        W42850   3.501  13.091   0.357 -0.1300  0.2692  0.1288
26003W        W42851  10.264  10.577  12.637 -0.0339  0.2916 -0.2263
26004W        W42852   6.986   9.606  15.674  0.1076 -0.2455 -0.0448
26005W        W42853   4.397  12.183   2.902  0.1461  0.0293  0.0763
26006W        W42854   4.254  15.682  14.528  0.0936 -0.2196 -0.1708
26007W        W42855   7.127  15.274  14.994 -0.0590  0.1021  0.1842
26008W        W42856   1.059   3.100  13.918 -0.0162  0.0598  0.2893
26009W        W42857  13.570  17.567  12.685  0.3223  0.0533 -0.1964
26010W        W42858   2.651   0.508   1.868 -0.2192 -0.5571  0.0812
26011W        W42859   8.420  12.963   3.186  0.2554  0.2868  0.2667
26012W        W42860  14.859   3.892   3.056 -0.1583 -0.1331  0.4205
26013W        W42861   4.978   2.462  14.660 -0.0332  0.0176  0.4057
26014W        W42862   4.742  10.890   0.186  0.1048  0.1731  0.2250
26015W        W42863   6.644  12.998   2.678  0.0598 -0.3375  0.1695
26016W        W42864  13.527  13.758   5.120  0.0931  0.0240 -0.0574
26017W        W42865   4.957   3.329   2.098 -0.3368  0.0209 -0.2585
26018W        W42866   0.241  12.653   1.346 -0.0795  0.2773 -0.3651
26019W        W42867  17.367   0.394  14.463 -0.1206  0.3191 -0.1504
26020W        W42868   9.548  13.227   1.451  0.0308 -0.2812  0.2782
26021W        W42869  12.972   1.348  12.840  0.1900 -0.1062  0.1844
26022W        W42870  17.121   7.725  15.721 -0.0364  0.3277  0.0879
26023W        W42871   9.531   5.407  11.884 -0.0994  0.1519  0.0044
26024W        W42872   0.019   8.999   2.514  0.0477 -0.3420  0.1248
26025W        W42873   9.214  14.296  11.791 -0.1892 -0.1408  0.3755
26026W        W42874  17.175   3.135  11.257  0.0496 -0.0413 -0.1908
26027W        W42875   2.564  12.609   2.890  0.0876 -0.2595 -0.2082
26028W        W42876  15.768  14.106   0.743  0.1952 -0.1717  0.1130
26029W        W42877   9.372  15.795   1.286 -0.0946 -0.0524 -0.0440
26030W        W42878  12.350   7.404  12.305  0.1609 -0.3567  0.0280
26031W        W42879   0.609   3.318  12.090  0.2625  0.0070  0.1715
26032W        W42880  14.411   9.546   1.870 -0.0681 -0.0322  0.0127
26033W        W42881   7.985   2.668  12.115  0.2299  0.0273 -0.2182
26034W        W42882   2.425  14.096  14.825 -0.0187  0.0565 -0.1009
26035W        W42883   0.866  15.473   4.778  0.0226  0.1049 -0.2446
26036W        W42884  15.157   8.950   1.155 -0.1137  0.1737 -0.0333
26037W        W42885   0.036   4.475   1.048 -0.0174  0.1424 -0.1004
26038W        W42886  17.650   0.552  10.065  0.0458  0.1585 -0.1481
26039W        W42887   7.454  17.574  13.397 -0.2583  0.2202 -0.0871
26040W        W42888  15.198   9.853  14.311  0.1577 -0.1634  0.3653
26041W        W42889   2.802   6.798  11.731 -0.0374  0.0799  0.0668
26042W        W42890   1.922  16.347  12.609 -0.0610  0.1102  0.0764
26043W        W42891   6.604  17.333  11.166  0.0822  0.3047 -0.1115
26044W        W42892  12.590   3.410   4.291 -0.0438  0.1224 -0.3654
26045W        W42893   8.929  18.109  10.323 -0.3025 -0.0794 -0.1724
26046W        W42894   4.477   5.413  12.871 -0.1691 -0.2906 -0.3245
26047W        W42895   1.594   8.316  12.186  0.1280 -0.0286  0.2083
26048W        W42896  12.306  16.280   3.273  0.0330  0.1406 -0.2309
26049W        W42897   5.787   3.485  14.821 -0.0505 -0.1536  0.2909
26050W        W42898   2.648  10.608   1.684  0.0211  0.1673 -0.1344
26051W        W42899  10.961  12.269   2.366 -0.3534  0.0216 -0.0368
26052W        W42900  15.002   2.790  11.030  0.0209  0.1013  0.2735
26053W        W42901   0.029  16.356   4.851 -0.3368  0.3717  0.0626
26054W        W42902   8.934   2.491   0.146  0.0323 -0.1264 -0.0313
26055W        W42903  13.016   7.362   4.681 -0.1348  0.4753 -0.1324
26056W        W42904   7.703  12.107  11.252  0.0109  0.1499 -0.0669
26057W        W42905  11.182   7.080  11.613  0.0064  0.0254  0.0466
26058W        W42906   4.226  10.364   2.676  0.0389  0.0717  0.0490
26059W        W42907   5.344   7.542  15.263  0.1282 -0.1403  0.3466
26060W        W42908   4.779  14.258   1.203 -0.0592 -0.0922  0.0507
26061W        W42909  11.915   8.809   3.389 -0.2828  0.1956  0.3753
26062W        W42910  17.753   7.820   1.855  0.4956  0.1607 -0.2646
26063W        W42911   5.249  18.175  13.204 -0.0006 -0.3429  0.2688
26064W        W42912   6.041  14.965  11.158 -0.1122 -0.3262 -0.0607
26065W        W42913  11.261  16.996   1.360  0.0365 -0.1484 -0.1335
26066W        W42914   1.190   1.771  10.665  0.0351 -0.1778  0.1971
26067W        W42915  13.147  15.673   4.762  0.0159  0.0603 -0.0864
26068W        W42916   3.399   8.174   1.288  0.1486  0.2322  0.0302
26069W        W42917   0.061  13.482   1.046 -0.0137  0.2151 -0.1243
26070W        W42918   8.282  16.583   3.131 -0.2090  0.0447 -0.1125
26071W        W42919  15.460  11.196   2.514  0.0429 -0.2169 -0.1126
26072W        W42920  10.230  17.482   2.237 -0.0990 -0.1011 -0.1681
26073W        W42921   5.846   9.969   2.417 -0.1082  0.1209  0.1960
26074W        W42922   5.791  10.720   0.993 -0.1738  0.1375 -0.0125
26075W        W42923  12.831   9.696   4.683 -0.1441 -0.1568  0.0459
26076W        W42924   7.768  15.219   0.315  0.1803  0.0910  0.0507
26077W        W42925  13.404   2.013  13.651 -0.0959 -0.1796 -0.0527
26078W        W42926   7.387   0.693  11.539  0.0634  0.1111  0.1966
26079W        W42927   0.897  10.764   2.492  0.0616  0.2067  0.2750
26080W        W42928   0.672   8.955  13.971  0.1861 -0.2933  0.2027
26081W        W42929   8.566   5.390   1.473 -0.1544 -0.0083  0.0678
26082W        W42930  15.889   8.980   2.795 -0.2535  0.0724  0.1386
26083W        W42931   3.714   3.365  14.554 -0.0023 -0.0163  0.0641
26084W        W42932   6.779  12.537   0.159  0.0504 -0.1133  0.2258
26085W        W42933   5.853   6.841  12.428 -0.2902 -0.1820 -0.0431
26086W        W42934  13.677  10.718   3.244 -0.2880 -0.2962  0.1654
26087W        W42935  16.906  14.615   0.987  0.1157 -0.1450 -0.2051
26088W        W42936   6.185  13.005  14.809 -0.1714  0.1450 -0.0970
26089W        W42937  15.282   5.684  14.445  0.3244 -0.1504 -0.0818
26090W        W42938   3.083  11.532  13.079 -0.3002  0.0326  0.3242
26091W        W42939   7.334   0.297   2.745 -0.0444  0.0460 -0.1103
26092W        W42940   6.134   0.204  15.638 -0.1191 -0.1786  0.1161
26093W        W42941  11.428   6.585   5.277 -0.0052 -0.3577  0.0031
26094W        W42942   2.217   6.694   1.373 -0.3135 -0.1392 -0.4290
26095W        W42943  15.063   6.054  13.953  0.3173  0.0727  0.2664
26096W        W42944  14.167  13.206   4.569  0.1632 -0.0847  0.0702
26097W        W42945  13.824  11.706   3.164 -0.3957  0.0404  0.2607
26098W        W42946   4.681  15.917  15.384  0.2529 -0.0828  0.3711
26099W        W42947  15.620   6.582   1.982  0.2532  0.0574 -0.1432
26100W        W42948  15.033  10.910   2.330 -0.0475 -0.1079 -0.0973
26101W        W42949   5.870  14.783   1.131 -0.1679 -0.0712  0.0480
26102W        W42950  15.439  15.328   2.573 -0.3899  0.0949 -0.1209
26103W        W42951   6.073  12.087  14.589 -0.3552  0.1423  0.0470
26104W        W42952   9.547  15.818   2.977 -0.2815 -0.1316 -0.0440
26105W        W42953  14.283  17.302   1.405 -0.1279  0.2747 -0.0534
26106W        W42954   2.167  16.996  12.044 -0.0096 -0.3136  0.0323
26107W        W42955   5.144   4.423  15.989  0.1199  0.1618  0.2634
26108W        W42956  10.750   9.846   4.454 -0.0585  0.0022  0.1036
26109W        W42957   0.615   3.403   3.877 -0.0128  0.1965 -0.2709
26110W        W42958  16.518  14.247   2.748  0.0282 -0.0897 -0.0288
26111W        W42959  15.372   2.367   5.210 -0.3419 -0.0585 -0.1734
26112W        W42960  14.236   2.133   1.787 -0.1121 -0.1034 -0.1282
26113W        W42961   8.896  11.049   4.971 -0.0234  0.2502  0.0939
26114W        W42962   0.059   1.408   3.301  0.1521 -0.0245  0.1742
26115W        W42963  13.433   0.948  11.142  0.1610  0.0071 -0.5063
26116W        W42964  12.304   0.566   4.444  0.1317  0.2745  0.2255
26117W        W42965  17.877   1.344  15.341  0.3893  0.2948 -0.2432
26118W        W42966  13.544  12.403  12.871 -0.4676  0.3808 -0.1328
26119W        W42967  13.078   9.567   3.028 -0.0262 -0.1591  0.1528
26120W        W42968  13.314  12.324   4.567  0.0889 -0.0350  0.0732
26121W        W42969  18.202  14.048   4.790  0.0657  0.3180 -0.0262
26122W        W42970   9.448   8.108   3.893  0.0801 -0.1808 -0.5194
26123W        W42971   3.773  16.542  13.180 -0.4367 -0.2383 -0.0396
26124W        W42972  15.880  10.597   0.302 -0.0196  0.0441  0.2005
26125W        W42973  13.282  17.927  15.202 -0.0922 -0.2436 -0.2517
26126W        W42974  13.674  14.728  14.968  0.5405 -0.1853  0.0104
26127W        W42975   9.306   9.822   6.224  0.1437  0.0830 -0.0948
26128W        W42976  13.220  14.239  12.620  0.3978  0.0664  0.1223
26129W        W42977   7.576  12.811  14.659 -0.0440 -0.2218  0.3176
26130W        W42978  12.783  16.903   1.067  0.1921  0.0462 -0.2829
26131W        W42979  16.011  12.955  14.188  0.0544  0.0113  0.4039
26132W        W42980   8.904   2.479  13.270 -0.2181  0.1999 -0.0848
26133W        W42981   8.183   6.441  14.048  0.1086  0.3806 -0.1817
26134W        W42982   0.654   2.519  11.607  0.2713 -0.1428  0.0594
26135W        W42983   3.663  11.313   0.542  0.3139  0.2258  0.0675
26136W        W42984  16.782   1.117  14.602  0.3606 -0.1688  0.4674
26137W        W42985  15.516  10.692   0.694 -0.0479 -0.0206 -0.0354
26138W        W42986  11.533  17.879  15.220  0.2181 -0.2160  0.3225
26139W        W42987   4.115   7.175   3.270  0.0664  0.1898  0.2389
26140W        W42988   3.056  12.497  10.334  0.1087  0.3284 -0.1636
26141W        W42989  15.404  13.561  14.152 -0.2198 -0.1411  0.1135
26142W        W42990  12.416   5.211  13.779  0.0166 -0.1721 -0.3198
26143W        W42991  10.317   8.273   0.914  0.1694 -0.2016  0.0715
26144W        W42992  15.056  14.375   3.116 -0.2322 -0.4044  0.0581
26145W        W42993  14.406   1.613  13.369 -0.1533  0.0946  0.0931
26146W        W42994   9.770  17.531   0.526  0.2641 -0.0022 -0.2554
26147W        W42995  16.374  18.073   1.864 -0.1910  0.1733 -0.2717
26148W        W42996  14.929   1.264  14.003 -0.3207  0.1651 -0.0959
26149W        W42997  15.603   8.590  11.502 -0.0430 -0.3152 -0.1586
26150W        W42998   2.185  11.442   2.129 -0.0114  0.1021 -0.4591
26151W        W42999  13.765   1.350   2.103 -0.2070  0.3065  0.5384
26152W        W43000  16.025   6.556  13.272  0.0735  0.1196 -0.1420
26153W        W43001   2.281   0.769   1.271  0.3526 -0.0255 -0.3166
26154W        W43002   0.707   2.959   0.564  0.0228 -0.3671 -0.0500
26155W        W43003   5.460   5.715  11.837 -0.0413 -0.3343 -0.1228
26156W        W43004   6.988   9.222   0.618 -0.3153  0.1913 -0.0165
26157W        W43005  15.801  14.681  11.814 -0.3116  0.0538 -0.1728
26158W        W43006  16.779  10.925  14.817 -0.1941 -0.0077 -0.3839
26159W        W43007   3.094   3.301  15.901 -0.2036  0.0129 -0.3391
26160W        W43008   5.208  15.025   4.339 -0.1011 -0.0110 -0.2528
26161W        W43009   3.818  13.022   3.715 -0.0497  0.1149  0.1327
26162W        W43010   6.473  14.992  15.212  0.4318 -0.1876  0.0149
26163W        W43011   5.548   1.792  11.577  0.0709  0.3796 -0.0433
26164W        W43012  10.906  13.528   2.722  0.1095  0.1625 -0.1998
26165W        W43013   2.397   0.080  13.199 -0.0233 -0.1695 -0.3046
26166W        W43014  15.436  13.518  16.043  0.0694  0.1268 -0.0507
26167W        W43015  12.741  11.507  12.321  0.0406 -0.0001 -0.0002
26168W        W43016   0.701  17.306  12.951 -0.1000 -0.3366 -0.1970
26169W        W43017  10.272   9.236   2.698  0.2717 -0.3647 -0.0465
26170W        W43018  17.070  11.284  13.224  0.2660  0.0884  0.0243
26171W        W43019   9.568  11.738   2.735 -0.2342  0.0673 -0.0040
26172W        W43020  10.539  11.599  14.095 -0.2678  0.2566 -0.2510
26173W        W43021  14.384   5.379   0.576 -0.0954 -0.0318 -0.1785
26174W        W43022   8.328  13.622   3.814 -0.3228 -0.0694 -0.0899
26175W        W43023   1.109   1.289   1.192 -0.2128 -0.1638 -0.0798
26176W        W43024   6.946   3.783  14.369 -0.1390 -0.2873 -0.1368
26177W        W43025  10.343  13.021   4.414 -0.0951  0.1137 -0.0517
26178W        W43026   7.563   1.476   2.279  0.0889 -0.0596  0.0788
26179W        W43027   2.272   4.514  14.632  0.0018 -0.2740 -0.1323
26180W        W43028   1.548   5.395  11.109 -0.3252  0.1140 -0.1265
26181W        W43029  17.490   7.404  13.760  0.0005 -0.0735  0.2403
26182W        W43030   4.089  12.747  12.906  0.4115  0.2871  0.0478
26183W        W43031  12.987   7.502  14.553 -0.4220 -0.0510  0.2354
26184W        W43032  10.396   7.189   3.155  0.1256 -0.2106 -0.0496
26185W        W43033   5.721  12.506   3.286  0.0961 -0.1076 -0.0164
26186W        W43034  15.735   4.500  15.597  0.0339  0.2853 -0.3621
26187W        W43035  14.038   7.500  13.441  0.2252 -0.0740  0.3012
26188W        W43036  14.707   1.623   1.993 -0.1432  0.0857  0.3198
26189W        W43037  14.298   5.399  15.526  0.2601  0.0752  0.3434
26190W        W43038   0.336   5.326   3.213  0.2754  0.4295 -0.0382
26191W        W43039   2.752   4.706  14.609  0.2304  0.0265 -0.1598
26192W        W43040  16.783   0.025   3.128  0.0545  0.0284 -0.0694
26193W        W43041  10.943   6.088  15.606 -0.1603 -0.3456  0.1615
26194W        W43042  10.539  10.073   5.083  0.4005  0.3521 -0.1555
26195W        W43043  12.527   3.459   0.235 -0.1906 -0.1872  0.0325
26196W        W43044   0.648  16.759  15.356 -0.0023  0.0046 -0.2533
26197W        W43045  13.910   1.203  15.066 -0.0794 -0.2890 -0.1293
26198W        W43046   4.137   2.499  14.921  0.0626  0.0726  0.3245
26199W        W43047   9.508  13.488   4.955 -0.1926 -0.0451  0.1595
26200W        W43048   9.764  13.884   1.805  0.0611 -0.0330 -0.0090
26201W        W43049  10.957  13.039   1.025  0.3267  0.3113 -0.2017
26202W        W43050  16.606   0.491   3.185  0.0933  0.0563  0.0837
26203W        W43051   5.468   3.591   0.222  0.2215 -0.2086 -0.0883
26204W        W43052   9.034  17.144  16.075  0.0996 -0.1798  0.2472
26205W        W43053  10.268  10.452   1.493 -0.2462 -0.2318  0.0761
26206W        W43054  14.781   0.665   3.178 -0.2774 -0.1575 -0.3621
26207W        W43055   2.650  16.737  15.307  0.1350  0.0923  0.0487
26208W        W43056   2.074   6.491   3.069  0.0597  0.0046  0.2431
26209W        W43057   2.865   2.853  14.573  0.1226 -0.0036  0.0134
26210W        W43058  13.414   4.876   4.933 -0.1688 -0.1431 -0.0913
26211W        W43059  10.733  15.508  13.527  0.1354  0.1690 -0.0887
26212W        W43060  10.518   1.673  12.577  0.0366  0.0508 -0.0963
26213W        W43061   7.945   3.683   3.313  0.0935  0.0864 -0.1683
26214W        W43062  15.412   5.867  13.692 -0.0395 -0.0870  0.1402
26215W        W43063  11.272   0.063   0.075 -0.0872  0.1722 -0.0820
26216W        W43064  13.913   8.796   1.850  0.0454  0.0827 -0.1625
26217W        W43065   4.755   5.198  12.126  0.1868  0.0871  0.2896
26218W        W43066  10.293   0.885  13.532 -0.1466 -0.0398 -0.2058
26219W        W43067   3.750   2.529  14.515 -0.0278 -0.1456 -0.1216
26220W        W43068   9.098  12.042  14.962  0.1785  0.1357  0.1905
26221W        W43069   0.943  14.891   4.606  0.0387 -0.1365  0.1564
26222W        W43070  16.485  12.270  10.993  0.0659 -0.0841 -0.0495
26223W        W43071   6.177  10.028  15.362 -0.0812 -0.2145  0.1711
26224W        W43072   3.299  16.372   1.262 -0.0148 -0.1365  0.0580
26225W        W43073   8.719  13.939   3.052 -0.4164  0.2047 -0.4326
26226W        W43074  15.161  13.949   3.927  0.1628 -0.0804  0.1298
26227W        W43075   2.240   0.446   0.286 -0.0428  0.0908 -0.1104
26228W        W43076   0.043   6.811  13.150 -0.0674 -0.1761  0.4171
26229W        W43077   7.668  13.474  11.598 -0.2635  0.0775  0.1297
26230W        W43078  13.108   5.412   0.810 -0.2548 -0.3779  0.0192
26231W        W43079   7.698  14.624  11.570  0.0930 -0.2765  0.3343
26232W        W43080   3.660  11.893   2.429  0.0927  0.0593  0.2494
26233W        W43081   0.935  12.615   3.556  0.1309 -0.0246 -0.0468
26234W        W43082   5.736   0.922  11.064 -0.1258  0.1893 -0.2270
26235W        W43083   7.795   5.255  15.238 -0.2400  0.0590 -0.0995
26236W        W43084  13.970   0.443   2.312  0.1264  0.0907  0.3111
26237W        W43085  11.235  17.581   4.535  0.0195  0.1563 -0.0442
26238W        W43086  12.196   1.358  15.538 -0.5670  0.2086 -0.0339
26239W        W43087   3.319  13.090   2.949  0.0243 -0.0781  0.0987
26240W        W43088  11.833  10.349  10.333 -0.3526 -0.0651 -0.0464
26241W        W43089  16.253   3.750  15.377  0.0327 -0.1280  0.2381
26242W        W43090   1.500   7.425   1.480  0.2106  0.1273 -0.4258
26243W        W43091   1.348  13.686  15.630  0.1692  0.1969  0.2364
26244W        W43092   9.613  14.868   5.154 -0.0744 -0.3665 -0.2064
26245W        W43093   6.045   3.665   0.107 -0.0272 -0.1545  0.2680
26246W        W43094  10.793   7.613   3.980  0.2400  0.1299  0.0825
26247W        W43095  11.802  12.363   4.786 -0.2105  0.1530 -0.0407
26248W        W43096   5.075  15.984   4.306  0.0375  0.0626  0.2139
26249W        W43097   1.993  12.783   1.704  0.1156 -0.0455 -0.1240
26250W        W43098  12.891   8.142  14.064 -0.4999  0.2844  0.0089
26251W        W43099   9.503   9.651   0.156 -0.2802  0.2101  0.1217
26252W        W43100   8.886   9.251   5.962  0.0521 -0.2480 -0.3924
26253W        W43101  10.457  17.041   4.199  0.1718  0.0419 -0.0081
26254W        W43102   6.185   9.868  12.988 -0.4361  0.2997  0.0805
26255W        W43103   3.599  16.326   3.878 -0.2280 -0.2752  0.0455
26256W        W43104  15.018   4.781  14.871  0.1211 -0.1552  0.2103
26257W        W43105   3.098   1.740   3.787 -0.1607 -0.1604 -0.0899
26258W        W43106  12.298   6.042  14.940 -0.0471 -0.0889 -0.0315
26259W        W43107  16.675  13.162  13.241 -0.0879  0.0887 -0.2623
26260W        W43108   0.215   5.483  12.435 -0.1360  0.2050 -0.2543
26261W        W43109  17.648   9.741  12.321  0.1295 -0.3246  0.3047
26262W        W43110  11.933   2.779   1.370  0.1918  0.1558 -0.2601
26263W        W43111   3.573   7.235   3.214  0.0676  0.0518 -0.0228
26264W        W43112   4.038  15.008   1.196 -0.1487 -0.2288  0.0534
26265W        W43113   1.350   0.957  10.621  0.0664  0.2309  0.4100
26266W        W43114   0.479   8.741  15.509 -0.2067 -0.0719  0.2675
26267W        W43115   0.304  12.016  15.281 -0.0213 -0.2250  0.0070
26268W        W43116   1.691  14.964   0.204 -0.2891  0.0349 -0.1936
26269W        W43117   5.229   6.526   2.764 -0.0926 -0.0731 -0.0059
26270W        W43118  17.008   9.105  11.352  0.1122 -0.2354 -0.1720
26271W        W43119   0.451  18.219  11.380  0.1191  0.0710  0.2610
26272W        W43120  10.813  15.985   2.839 -0.2181 -0.0252 -0.1489
26273W        W43121  15.225  10.143  12.063  0.1251 -0.0342 -0.1077
26274W        W43122   8.848   0.498   3.674  0.1959  0.2684  0.1770
26275W        W43123  10.072   9.864   3.156 -0.2932 -0.1191 -0.0285
26276W        W43124  14.868  17.670  14.362 -0.0548 -0.1450  0.3449
26277W        W43125   3.812   0.305  13.794  0.0023  0.2427 -0.3118
26278W        W43126   6.137  14.869  14.803 -0.1569  0.4929  0.1078
26279W        W43127  13.948  15.193   2.982 -0.4066 -0.2014 -0.1198
26280W        W43128  17.847   5.620   3.993 -0.0599 -0.1744  0.0742
26281W        W43129   0.936  12.504  14.000 -0.0497 -0.2350 -0.0527
26282W        W43130   6.678   0.858  13.401 -0.0969 -0.1577 -0.1678
26283W        W43131  10.765   7.816  11.145 -0.3232  0.1464 -0.2719
26284W        W43132  12.334   0.480   0.825  0.0764  0.3647  0.1017
26285W        W43133   7.201   8.865   2.520  0.1777 -0.2359 -0.1383
26286W        W43134  17.645   6.511   2.647 -0.0321  0.0752 -0.0179
26287W        W43135  12.154   3.815   3.409  0.0346 -0.3460 -0.2233
26288W        W43136   8.426   7.537   1.064  0.1275  0.1218  0.0344
26289W        W43137  14.118  11.904  11.836 -0.0985 -0.2166  0.3054
26290W        W43138   3.725  10.922  14.575  0.1841 -0.1545  0.2769
26291W        W43139  17.750   3.439   6.115 -0.2161  0.0440  0.0734
26292W        W43140   2.630  10.291   2.956  0.2772 -0.0678 -0.1837
26293W        W43141   6.662  13.978   0.488  0.0378  0.1703  0.1464
26294W        W43142  13.039  13.940   0.821  0.0314 -0.0373  0.1485
26295W        W43143   4.076  15.762   0.383  0.2956  0.2033 -0.0018
26296W        W43144   4.374  17.334  11.930  0.0939 -0.1793  0.3586
26297W        W43145   3.595  11.883   1.252 -0.1276 -0.1603 -0.2459
26298W        W43146   1.086  14.535  15.054  0.2486  0.0547 -0.1006
26299W        W43147  11.845  15.585   1.088 -0.1632 -0.0422  0.1449
26300W        W43148  11.204   9.691   3.816  0.1686  0.0619 -0.0689
26301W        W43149  13.625   7.329   5.803  0.3456  0.0889 -0.1665
26302W        W43150   4.393  14.334   0.315  0.0210  0.3880  0.0871
26303W        W43151   1.563   6.806   1.355 -0.2803 -0.0606 -0.1150
26304W        W43152   4.007  10.922   1.821  0.3021 -0.0007 -0.1617
26305W        W43153   0.541   9.941   4.161  0.0112  0.2349  0.0298
26306W        W43154   1.742   6.556   3.913  0.1870 -0.0289  0.0058
26307W        W43155   6.828   6.051  13.815  0.0972 -0.1974 -0.0130
26308W        W43156  14.714  10.351   3.965 -0.1325  0.0734  0.0981
26309W        W43157   1.538  10.996  11.376 -0.1194 -0.2325 -0.2198
26310W        W43158   2.795   7.135   0.585 -0.0701 -0.4356 -0.2899
26311W        W43159  17.744   2.608   5.676 -0.4096 -0.2098 -0.2294
26312W        W43160  10.852   1.412  12.829  0.3477  0.0920 -0.1318
26313W        W43161   5.787   7.990  12.790  0.6946 -0.1376  0.2910
26314W        W43162  14.936   2.524   2.067  0.1630  0.0457 -0.0702
26315W        W43163   3.066   6.544   5.204 -0.0477 -0.0408 -0.2375
26316W        W43164   9.448   6.464   4.054  0.1945  0.2408  0.0531
26317W        W43165   8.782   6.557   4.851  0.3338 -0.3011 -0.0837
26318W        W43166   2.301   4.365  12.948 -0.2180  0.1608  0.0446
26319W        W43167  16.473   6.265   0.811  0.3009  0.0162  0.1629
26320W        W43168  14.927   8.736   3.007 -0.1854 -0.3322  0.1323
26321W        W43169   5.190  17.212  15.565 -0.1997  0.1934 -0.0360
26322W        W43170   0.468  10.750  13.111 -0.0170  0.4345 -0.1138
26323W        W43171   4.922  17.661   3.577 -0.1086 -0.2597 -0.4528
26324W        W43172  11.513   5.964   0.588 -0.1040 -0.0440 -0.0797
26325W        W43173  10.894  10.421   1.147  0.2175  0.3290  0.2336
26326W        W43174   9.509   9.676   3.317  0.1710  0.0248  0.3211
26327W        W43175   2.374   6.830   0.402 -0.0570 -0.0757 -0.4119
26328W        W43176   4.067  16.808   5.156 -0.2798 -0.2450 -0.3239
26329W        W43177   4.191   2.438  11.917 -0.0533 -0.0386  0.4041
26330W        W43178  14.968  14.939  14.307  0.1759  0.2949 -0.1538
26331W        W43179  13.202   0.031  13.563  0.0231  0.0932 -0.0127
26332W        W43180   7.351   3.924  12.150 -0.1400 -0.1360  0.1006
26333W        W43181  15.438  14.095   0.071 -0.3580 -0.0915  0.2033
26334W        W43182   6.896  10.719  11.510  0.0402  0.2402 -0.2748
26335W        W43183   0.529  17.443  14.029 -0.0505 -0.2168 -0.1737
26336W        W43184  11.315  11.226   3.092  0.0778  0.2856 -0.1372
26337W        W43185   8.971  12.548  15.140 -0.2540 -0.0148 -0.1451
26338W        W43186   0.876   9.572   3.841  0.3619 -0.0122 -0.2667
26339W        W43187  11.627   8.950  15.665  0.0846  0.3983 -0.1870
26340W        W43188   9.431  15.185   1.806  0.0672  0.1592 -0.0799
26341W        W43189   6.227  13.688   3.143  0.0468  0.2469 -0.0414
26342W        W43190   3.509   6.583  12.251  0.0094 -0.1594 -0.1067
26343W        W43191   0.365   9.714   5.168 -0.0635  0.2574 -0.0514
26344W        W43192  16.947   5.026   0.785 -0.0971 -0.0399 -0.1852
26345W        W43193   0.417  12.095   5.770  0.0144  0.1601  0.0784
26346W        W43194   9.591  13.100   4.031  0.0768  0.0672 -0.0673
26347W        W43195   1.158  12.800   1.552  0.3059 -0.2522  0.1728
26348W        W43196   4.687  12.119   4.000 -0.3563  0.0209 -0.0612
26349W        W43197   7.623  14.094   2.023 -0.0622 -0.1661  0.2599
26350W        W43198   6.989  14.802  10.054  0.1043  0.0109 -0.1671
26351W        W43199  16.394   5.397  10.897 -0.1060 -0.0913 -0.1611
26352W        W43200   0.664   5.834  12.846  0.0105  0.1283  0.0469
26353W        W43201  12.803   2.633  12.931 -0.0004 -0.1358  0.0086
26354W        W43202   1.124  14.839  15.763  0.2895  0.2408  0.1427
26355W        W43203   7.974  12.908   4.560  0.0923 -0.0924 -0.2480
26356W        W43204  13.855  16.569  15.691 -0.0633 -0.3774  0.1907
26357W        W43205  14.656  12.905  12.121  0.0858 -0.0437 -0.2588
26358W        W43206   3.193   3.610  13.680 -0.0426 -0.1406  0.0913
26359W        W43207  16.764   0.731   2.540 -0.1087  0.0103  0.0411
26360W        W43208   7.705  15.779  12.205  0.2508 -0.3714  0.1393
26361W        W43209   2.870  16.323   0.159 -0.3516  0.0211  0.0421
26362W        W43210   7.674  10.413   0.349 -0.2299  0.2568  0.2579
26363W        W43211  11.251  13.436  15.867 -0.0387 -0.3030 -0.1843
26364W        W43212   6.509   2.172   4.260  0.1102  0.0563  0.0488
26365W        W43213  13.512   9.022   0.656 -0.1590  0.3406 -0.2499
26366W        W43214   9.581  11.732  12.367  0.2146 -0.2793  0.3942
26367W        W43215   3.600   3.524   1.308  0.1662  0.2377  0.0691
26368W        W43216   6.956  16.654   1.631 -0.2207  0.0305 -0.2074
26369W        W43217   7.982  11.894   2.997 -0.0049  0.0915 -0.0148
26370W        W43218  11.994  17.264   3.010 -0.2117 -0.2645  0.2137
26371W        W43219  14.641   2.136   3.802 -0.0552 -0.1353 -0.3649
26372W        W43220   2.138  13.956  12.322  0.1719 -0.0917 -0.3867
26373W        W43221   7.147  18.040   2.955  0.0146 -0.2999 -0.2949
26374W        W43222  15.762   3.132  15.048  0.3791  0.2396  0.0097
26375W        W43223  10.998   8.913  11.882 -0.1220  0.1783  0.3298
26376W        W43224   5.859  11.982  12.243  0.1697 -0.2380  0.1607
26377W        W43225  14.447   0.674   3.578  0.2199  0.2187  0.2468
26378W        W43226  14.770  16.920   3.061 -0.0612 -0.1272 -0.1291
26379W        W43227   1.065   4.339  14.315  0.1919  0.2538  0.0163
26380W        W43228   7.241   8.641   1.768 -0.1555  0.0631  0.2562
26381W        W43229  11.420  17.350   3.262 -0.1190  0.1605 -0.2141
26382W        W43230  11.400  12.538   2.613  0.0857 -0.3475 -0.0318
26383W        W43231  16.719  15.571   4.249 -0.1605 -0.2179 -0.1770
26384W        W43232   2.033   8.815   4.241 -0.1344 -0.0279 -0.1129
26385W        W43233  13.146   7.850  14.906 -0.2856 -0.0087  0.2580
26386W        W43234   9.295   1.614   0.310 -0.3432 -0.1821 -0.0119
26387W        W43235  17.663  17.555   1.639 -0.1932  0.3415 -0.2217
26388W        W43236  15.183  14.961   0.494  0.1605 -0.0988 -0.1834
26389W        W43237   1.750  16.472   0.689 -0.0191 -0.0761  0.0451
26390W        W43238  13.975  12.137   3.488 -0.1949  0.0896  0.0655
26391W        W43239   2.582  17.437   0.183 -0.1527 -0.0812 -0.3582
26392W        W43240  11.270   4.760  14.697  0.0721  0.1011 -0.2686
26393W        W43241  12.228   5.563  15.837 -0.2995 -0.1542 -0.5207
26394W        W43242   3.094  13.747  15.598 -0.1940  0.0410  0.3898
26395W        W43243  13.580   4.778   2.093  0.2006 -0.0955 -0.2088
26396W        W43244  11.321   8.576  14.116  0.0941 -0.1658 -0.4015
26397W        W43245  17.132   2.891   3.102  0.2563 -0.4318  0.0111
26398W        W43246  10.219   3.498  14.818  0.2634 -0.3554  0.1739
26399W        W43247  10.593   4.576   4.168  0.4146  0.0831  0.0574
26400W        W43248  15.611  15.604  13.071  0.1002  0.0363  0.2021
26401W        W43249   2.774   4.934   3.719  0.0385 -0.3053  0.0934
26402W        W43250  10.224  16.990   2.322 -0.0195  0.1206  0.0245
26403W        W43251   4.763  14.378  12.185  0.0541  0.0394 -0.0096
26404W        W43252   9.747   5.786  13.568 -0.2202 -0.1067 -0.1974
26405W        W43253   4.120   7.020  10.944  0.1081 -0.1427  0.2902
26406W        W43254  13.918   7.429   0.920 -0.0111 -0.0328 -0.0279
26407W        W43255   9.488   6.526   0.012  0.4369 -0.2625 -0.0039
26408W        W43256  11.322   3.039  15.479 -0.0087 -0.0417  0.1544
26409W        W43257   7.391  14.075  13.375  0.2528 -0.1606  0.3180
26410W        W43258  14.574   5.737  13.947 -0.2228  0.2168 -0.0299
26411W        W43259   8.382   3.900  14.033  0.0697  0.0818 -0.1084
26412W        W43260   9.610   3.131   3.579  0.0686  0.2991  0.2974
26413W        W43261   9.895  11.462   0.027 -0.0646  0.2440 -0.3046
26414W        W43262  18.009   1.686   2.972  0.2341 -0.0288  0.0678
26415W        W43263  12.089  10.699  13.323  0.0819  0.5147 -0.2682
26416W        W43264  13.227   8.975   5.436  0.1544 -0.0952  0.0463
26417W        W43265   8.418   9.597   4.220  0.1809 -0.0868 -0.0627
26418W        W43266   2.530   7.076   3.463 -0.0075 -0.0881  0.2068
26419W        W43267   2.633  14.477  15.149 -0.1303  0.0768  0.2872
26420W        W43268   8.307   7.652  13.369  0.0836 -0.0408 -0.0423
26421W        W43269  17.580   1.439  13.789 -0.0211  0.1581 -0.1704
26422W        W43270   1.340   7.196   5.846  0.1523 -0.1640  0.2179
26423W        W43271  15.493  13.465   0.815 -0.1670 -0.1319 -0.0398
26424W        W43272   6.655   7.797   4.507  0.0995 -0.1690 -0.1253
26425W        W43273   3.801   8.151   1.675 -0.0949 -0.2891  0.2147
26426W        W43274   6.390  13.520   4.489 -0.1613  0.1783 -0.0855
26427W        W43275   5.349   2.449  15.007 -0.1224 -0.4706  0.1396
26428W        W43276  15.683  17.627   5.395  0.1121  0.0730 -0.0521
26429W        W43277  15.327   6.073  13.261 -0.1166  0.1368 -0.3764
26430W        W43278   1.822  16.701  12.249 -0.0045 -0.1888 -0.2131
26431W        W43279   8.172  11.838  15.346 -0.2136 -0.1532  0.0827
26432W        W43280   6.377  15.629   3.342  0.1698 -0.0828  0.2561
26433W        W43281   6.660  13.784  12.788  0.0172 -0.0665 -0.1208
26434W        W43282  11.399  17.089   4.128 -0.2974  0.2085  0.3625
26435W        W43283  11.066   5.422  10.373  0.2855  0.0397  0.2269
26436W        W43284   0.993  10.204  10.428  0.0511  0.0692 -0.2418
26437W        W43285   8.237   6.212  15.048 -0.0476 -0.2996 -0.0101
26438W        W43286   7.371  16.360  11.565  0.1149  0.2317 -0.1345
26439W        W43287   3.785  12.259  12.755 -0.0010  0.1258  0.0012
26440W        W43288   3.056   3.332  14.582 -0.0654  0.1173  0.2269
26441W        W43289   3.343  10.040  12.210 -0.1114 -0.0399 -0.1121
26442W        W43290   9.337  11.620  14.828  0.0561  0.0061 -0.0496
26443W        W43291   4.832  16.080   3.333  0.2806 -0.1103 -0.3384
26444W        W43292  16.095   4.383  14.233 -0.3450 -0.1380  0.2315
26445W        W43293  12.064  12.390  15.983  0.0625  0.1770  0.1893
26446W        W43294   1.810  13.973   4.067  0.1214  0.1860 -0.0302
26447W        W43295   9.376   5.789  11.075 -0.1003 -0.2752 -0.1493
26448W        W43296  11.714   3.859  15.873  0.2059  0.1652  0.2533
26449W        W43297   6.041   4.886   2.744 -0.1026  0.0130  0.3222
26450W        W43298  16.763   4.914   1.627 -0.0436  0.0542  0.0862
26451W        W43299  17.813  11.696   0.515  0.1389  0.0325 -0.2162
26452W        W43300   5.135   4.750   3.643  0.0104 -0.1722  0.1179
26453W        W43301   9.680  17.752   1.434  0.0326  0.1314 -0.2614
26454W        W43302   9.343   6.874  14.948 -0.2006  0.0918 -0.0562
26455W        W43303   2.051  11.639  13.054  0.4288 -0.0212 -0.0061
26456W        W43304   9.738   5.157   5.518  0.1292  0.1777  0.3247
26457W        W43305  10.562   7.765   4.858  0.0634 -0.0171 -0.0418
26458W        W43306   5.705   7.100   2.229  0.2360  0.0402 -0.0823
26459W        W43307   9.585   6.557   3.035  0.2811 -0.2380  0.2364
26460W        W43308   8.757   7.489   3.043 -0.0085  0.1373 -0.0885
26461W        W43309  11.241   7.430  14.069 -0.0561 -0.0638 -0.0555
26462W        W43310   5.740   0.352   0.607  0.1412 -0.2587 -0.0205
26463W        W43311   5.722   0.847   3.218  0.0326 -0.2815  0.0742
26464W        W43312   7.473  15.351  13.494 -0.1070 -0.1905 -0.0339
26465W        W43313   7.325  17.872   2.275 -0.2626 -0.1746 -0.1480
26466W        W43314  10.743  15.241   3.583  0.1699  0.3812 -0.1614
26467W        W43315  11.529   7.613  11.251 -0.5505  0.3950 -0.0694
26468W        W43316   6.377  17.036   4.164  0.0095  0.2725  0.2336
26469W        W43317   3.872   1.333   2.663  0.2501 -0.0517 -0.1715
26470W        W43318   8.261   3.226   4.537 -0.0814  0.2207 -0.3119
26471W        W43319  13.150  17.448   0.034  0.0480  0.0417 -0.2497
26472W        W43320   0.122   5.469   1.037  0.0627 -0.2527 -0.0131
26473W        W43321   7.853   9.012   5.813  0.2746  0.2253  0.2085
26474W        W43322   0.503   4.028  15.220  0.2208  0.1146  0.0403
26475W        W43323  11.688   6.303   4.957  0.1530 -0.0914  0.0191
26476W        W43324   9.808  14.296   2.100  0.3974 -0.2202  0.0173
26477W        W43325  17.890  13.528   0.300 -0.1270 -0.2512 -0.1204
26478W        W43326   7.887   1.049  16.040  0.0652 -0.1667  0.0769
26479W        W43327   4.704   6.245   4.870  0.1400  0.0492  0.2950
26480W        W43328   0.419   0.664   2.171 -0.4500  0.2744  0.3823
26481W        W43329   0.390  13.704  11.446  0.0898 -0.1429  0.0960
26482W        W43330  11.840  10.418  15.480  0.0430 -0.4192 -0.0662
26483W        W43331   5.944  14.021   1.918 -0.0577 -0.1911  0.1634
26484W        W43332  15.871   2.085  15.593  0.0725  0.1910  0.1179
26485W        W43333  16.922  17.715  11.909 -0.0784  0.0179 -0.1168
26486W        W43334   9.616   2.220  11.406 -0.2972  0.2793 -0.1643
26487W        W43335   9.711   6.109   3.275 -0.2074 -0.2343 -0.0822
26488W        W43336  12.876   6.748   4.043 -0.0094  0.0431 -0.0023
26489W        W43337  13.147   0.814   4.552 -0.1104  0.0900 -0.0969
26490W        W43338   6.116  10.200  16.012  0.1873  0.0158  0.1267
26491W        W43339   8.462  11.773   4.458  0.1329 -0.0316 -0.1112
26492W        W43340   5.749   8.106  14.851 -0.1171  0.1827 -0.3352
26493W        W43341   7.928  10.052  14.874  0.1960  0.0458 -0.0811
26494W        W43342  11.446   6.017  12.905 -0.2627  0.3907  0.2398
26495W        W43343  16.007   5.175   0.603 -0.0708  0.1622  0.1297
26496W        W43344   1.429   7.444   4.082 -0.1776  0.0904  0.1060
26497W        W43345  17.082   8.213  15.844  0.0084 -0.1241  0.0654
26498W        W43346   2.282   9.722  10.718  0.1850  0.0636 -0.1495
26499W        W43347   5.514   6.091  12.150 -0.0904  0.0867 -0.2275
26500W        W43348   1.594  13.918   2.543 -0.1970  0.2697 -0.0723
26501W        W43349  10.069   4.832  14.711 -0.4419 -0.2521  0.0762
26502W        W43350   8.802   5.299  14.153  0.0714  0.2076  0.1013
26503W        W43351   7.862  17.714  13.151  0.0440  0.1112 -0.1008
26504W        W43352  14.946  15.049  13.828  0.0795  0.2302 -0.4176
26505W        W43353  14.014   6.125  15.198 -0.1812  0.3723 -0.1336
26506W        W43354   1.073   9.334  11.306 -0.0418  0.1820  0.1861
26507W        W43355  13.127   0.081  10.841 -0.1952  0.1600 -0.0713
26508W        W43356   4.870   8.893  13.326 -0.2016 -0.3857 -0.1996
26509W        W43357  15.651  13.995  11.147 -0.0549  0.0204  0.2260
26510W        W43358   7.567  13.083  15.924  0.1103 -0.3424 -0.1401
26511W        W43359  15.539  12.067   4.939 -0.0079 -0.1759 -0.0508
26512W        W43360  12.546   0.440  13.416 -0.2478  0.0044 -0.2477
26513W        W43361  12.763  17.636   2.452 -0.1359  0.1210 -0.0307
26514W        W43362   9.840   9.781  15.851  0.2024  0.1207 -0.1793
26515W        W43363  16.224   7.326  13.067  0.1801 -0.0898 -0.2050
26516W        W43364  15.584  15.046  13.087  0.2177  0.0708  0.0982
26517W        W43365  14.579   2.296  15.701 -0.0035 -0.1275 -0.1412
26518W        W43366   8.753  15.826   5.738 -0.1533  0.0941  0.0222
26519W        W43367   5.815   3.464   5.116 -0.1176  0.2988  0.2827
26520W        W43368   5.860  15.994   0.039 -0.0234 -0.4441  0.0891
26521W        W43369   7.514  17.634  12.752 -0.2118  0.1835  0.0395
26522W        W43370   2.143   5.000  13.352 -0.2465  0.1278  0.1045
26523W        W43371  12.988   2.332   4.420  0.0843  0.0213  0.1223
26524W        W43372   6.556   8.066  11.761  0.2148 -0.3356 -0.1084
26525W        W43373   5.710  17.616   1.842  0.0883  0.3195 -0.0483
26526W        W43374  17.954   3.064   3.478 -0.0236 -0.2646 -0.2543
26527W        W43375  12.839   3.079  10.899 -0.3395  0.2651 -0.2421
26528W        W43376  14.298   8.540  15.790 -0.1215  0.2304 -0.5271
26529W        W43377   8.726  10.280  15.885  0.3749 -0.0053 -0.3380
26530W        W43378   3.785   8.357  13.973 -0.0757 -0.1234 -0.2166
26531W        W43379  16.068  11.601  11.218 -0.1275 -0.2036 -0.3048
26532W        W43380  12.767   6.223   3.488  0.1432 -0.0484  0.0772
26533W        W43381  12.271   8.283  10.395  0.2301  0.3052  0.0420
26534W        W43382  10.374   9.508  11.621 -0.1347 -0.1394 -0.0516
26535W        W43383   4.309  11.070  11.196 -0.0474 -0.0887 -0.2306
26536W        W43384   3.514   8.637  12.048 -0.2394  0.0776 -0.2125
26537W        W43385   6.677   5.897   3.683 -0.3598 -0.0541 -0.0900
26538W        W43386   0.877  11.044  13.035  0.0778 -0.0244  0.0743
26539W        W43387   1.909  17.028  12.631 -0.0823  0.3727  0.1237
26540W        W43388  10.192  12.459  15.906 -0.0434  0.3451 -0.0283
26541W        W43389  17.797   0.993   1.332 -0.2300  0.0226 -0.0558
26542W        W43390   5.537  16.133   5.551  0.0788  0.2102  0.1712
26543W        W43391   4.604  13.698   4.501 -0.1014  0.0820 -0.2682
26544W        W43392   7.491  16.842  14.097  0.0772  0.0840  0.1219
26545W        W43393   6.690   5.658   4.950 -0.1189  0.0534 -0.0931
26546W        W43394   0.778   2.060  11.502 -0.1470 -0.0415  0.1786
26547W        W43395   7.771   8.018   2.785 -0.1561 -0.2840 -0.0519
26548W        W43396   6.074   5.354  14.240 -0.2169 -0.1812 -0.1868
26549W        W43397   0.646  14.914  12.847  0.3501 -0.0686  0.0208
26550W        W43398  14.590  10.066  12.165 -0.0446  0.4814 -0.2315
26551W        W43399  13.374  14.256   1.133 -0.1192 -0.2456  0.2272
26552W        W43400   8.516   9.260   5.177 -0.3071 -0.3854  0.0175
26553W        W43401   4.417   5.320   4.584 -0.0368 -0.2490  0.0728
26554W        W43402  17.017   1.411   5.111 -0.0356  0.0159  0.1089
26555W        W43403   9.279  10.383   2.747 -0.0832  0.0891 -0.1743
26556W        W43404  15.180   6.943  14.550 -0.2142  0.2852  0.0399
26557W        W43405   6.962  14.450   3.923 -0.1327  0.2430  0.1587
26558W        W43406   3.135   4.819  10.423  0.0361  0.2777  0.1901
26559W        W43407  10.055   7.505   2.338  0.0556  0.0065 -0.1356
26560W        W43408  17.163  10.397  12.816 -0.1089 -0.0808  0.2446
26561W        W43409   3.543  13.920  16.072  0.0636 -0.2168  0.1804
26562W        W43410   5.423   2.132  11.182  0.1925 -0.1747  0.1064
26563W        W43411  10.069   6.030  13.298 -0.3362  0.2930 -0.1137
26564W        W43412   5.650  12.020   4.161  0.1105  0.1973 -0.2239
26565W        W43413  17.950  11.212   5.543 -0.2719 -0.2110  0.4249
26566W        W43414  11.777  17.675  12.828 -0.1634 -0.1536  0.0118
26567W        W43415   0.514   3.135  12.916 -0.4669 -0.2602 -0.5211
26568W        W43416   6.426   3.362   0.006  0.0438 -0.1250 -0.0692
26569W        W43417   9.771  14.436  16.054 -0.0389 -0.2203  0.0793
26570W        W43418  14.787  15.328   2.496 -0.0556  0.1583  0.1141
26571W        W43419   4.948  17.151  14.488 -0.0102  0.0040  0.0781
26572W        W43420  16.851   6.307  12.389  0.4840 -0.1521  0.2325
26573W        W43421  12.023   6.077   0.612  0.2644  0.1668  0.3245
26574W        W43422  12.461   3.179   0.675 -0.1444  0.1155 -0.1057
26575W        W43423  16.749  10.395   2.889 -0.2390  0.2816  0.1316
26576W        W43424  17.799   2.364   4.508  0.0251 -0.0849 -0.3333
26577W        W43425  15.866   8.306  14.885  0.2720  0.2185  0.2149
26578W        W43426  15.899   9.453  13.676  0.0085  0.2440  0.2609
26579W        W43427   3.498   3.861  12.540  0.3843 -0.0709  0.0181
26580W        W43428  11.127  12.104   1.007 -0.2606  0.2046 -0.2420
26581W        W43429   2.373  15.622  12.563 -0.0243 -0.1260  0.0402
26582W        W43430  14.035   6.725  14.563 -0.1392  0.2019 -0.1041
26583W        W43431   9.146   6.055   4.074  0.1206 -0.0938  0.1907
26584W        W43432   8.680  11.978   0.270  0.3231  0.0626 -0.0402
26585W        W43433  12.458  11.294   4.259  0.1286  0.2439  0.1628
26586W        W43434   0.461   5.143  15.948 -0.0957 -0.1763  0.1085
26587W        W43435   5.657  13.371   2.469 -0.2198 -0.1215  0.0927
26588W        W43436   9.743  10.261  12.774 -0.0090 -0.1367 -0.2314
26589W        W43437  15.969  16.004  11.538  0.1244  0.0529  0.1628
26590W        W43438  16.134   0.702   1.264 -0.0218 -0.0869 -0.1608
26591W        W43439  12.014  14.655   1.355  0.0605  0.3345  0.0380
26592W        W43440  12.193   8.406  13.469 -0.2392 -0.0557 -0.1773
26593W        W43441  16.019   1.495   4.366 -0.0111 -0.0489 -0.1246
26594W        W43442   8.572   3.710   5.085 -0.1557  0.2691 -0.2585
26595W        W43443   5.728   9.875   4.602  0.0175 -0.4659 -0.0483
26596W        W43444   3.822  12.982   1.295 -0.0065 -0.0710  0.0165
26597W        W43445  16.150   5.678   1.340  0.0975 -0.2671 -0.2354
26598W        W43446  11.848   5.369  13.776  0.4000 -0.0370 -0.4318
26599W        W43447  12.792  17.856  12.382  0.4081 -0.0679  0.0244
26600W        W43448  12.044  10.915   3.608  0.2465 -0.0734  0.1739
26601W        W43449   1.872  11.178   2.938  0.0908  0.0232 -0.0864
26602W        W43450  17.982   5.359   0.239  0.0969  0.0011  0.1366
26603W        W43451   5.302   5.554  14.724 -0.4244  0.2652  0.1356
26604W        W43452  12.062  15.354   2.309 -0.0657  0.1606 -0.2082
26605W        W43453  10.562   5.303  13.561  0.1282  0.2996  0.0032
26606W        W43454  13.666  17.520  15.420  0.2565  0.0204 -0.2160
26607W        W43455  13.729  17.312  10.376 -0.0035  0.4472 -0.1560
26608W        W43456  15.021  10.760  11.511 -0.0749 -0.0093 -0.0681
26609W        W43457   0.296  14.421  13.012  0.0001 -0.0427  0.0728
26610W        W43458  17.517  12.778   0.019 -0.3000  0.3978  0.0152
26611W        W43459  18.151   8.264   2.823 -0.0121 -0.0223  0.0932
26612W        W43460   8.738   4.658  11.453  0.0626  0.0165  0.3169
26613W        W43461   3.266   3.859   1.013 -0.1103 -0.1922  0.0714
26614W        W43462  16.273   0.469   4.511 -0.2762  0.0375  0.3089
26615W        W43463   6.047  13.269   5.399  0.0589  0.1447 -0.4156
26616W        W43464   7.793  17.313   4.427  0.0562  0.2554  0.1963
26617W        W43465  15.107   7.839  14.166 -0.1165  0.0955 -0.2569
26618W        W43466   6.432   1.093  15.676 -0.2796 -0.1537  0.1065
26619W        W43467   9.630   7.496   0.491 -0.2958  0.0615  0.3410
26620W        W43468   7.083   6.586   4.306 -0.1344 -0.0270  0.1663
26621W        W43469  15.282   6.624   2.959  0.0165 -0.1039  0.1984
26622W        W43470   7.584   2.405  15.800 -0.2716 -0.0671 -0.1639
26623W        W43471  16.579   0.501  12.988  0.0045  0.0791  0.0973
26624W        W43472  11.586   6.651  14.476  0.1300 -0.2677 -0.3844
26625W        W43473  16.914  11.795  14.295  0.1004  0.0599 -0.1113
26626W        W43474   9.847   5.584   5.178  0.0795 -0.0171 -0.0798
26627W        W43475  11.778  15.604   0.453 -0.0972  0.3730  0.2397
26628W        W43476  15.917   5.611   3.377  0.0198  0.0803  0.2343
26629W        W43477   0.331  12.424   4.119  0.0551 -0.4035 -0.2859
26630W        W43478  10.557  17.153  14.850  0.2558 -0.1741 -0.1367
26631W        W43479  11.706  10.598   4.463  0.0423 -0.0385  0.2847
26632W        W43480  10.244   7.781  11.092 -0.0565 -0.0720  0.0350
26633W        W43481   1.872  17.712   4.379 -0.0170 -0.2165 -0.0855
26634W        W43482   8.600  12.991   1.682  0.0165 -0.0903  0.0450
26635W        W43483  17.161  10.135  14.670 -0.2444  0.1386  0.0593
26636W        W43484   5.883   5.510  13.087  0.0871 -0.2528  0.0111
26637W        W43485  16.342  17.897   1.353 -0.1111  0.0266  0.0850
26638W        W43486  10.923  14.122   3.592 -0.2372  0.2468  0.0974
26639W        W43487  10.778   7.026   3.378 -0.0699  0.0058 -0.1646
26640W        W43488  16.852   5.885  12.663 -0.0685  0.0151  0.2862
26641W        W43489   3.638   9.809  13.925 -0.2131  0.1035  0.1718
26642W        W43490   1.081  14.464   0.043  0.0346 -0.0488 -0.1586
26643W        W43491   8.438   5.195  16.110 -0.0989  0.2713 -0.1433
26644W        W43492   9.322   9.773  12.598 -0.1487  0.3741  0.0914
26645W        W43493   5.086  17.016   4.419  0.0049  0.1394 -0.0902
26646W        W43494  14.864  17.738   0.764 -0.0306 -0.0281  0.2131
26647W        W43495   1.817   8.689  12.472 -0.1396  0.1546 -0.1984
26648W        W43496  17.109   8.749  14.211 -0.0683  0.2012 -0.2305
26649W        W43497   6.324   5.296   1.032 -0.2305  0.0238  0.3386
26650W        W43498  17.655   8.192   2.832  0.2505  0.0006 -0.1098
26651W        W43499   5.657   4.347   4.638 -0.0633  0.3442 -0.1017
26652W        W43500  16.602  11.042  15.296  0.1282  0.1033 -0.1658
26653W        W43501   8.179  16.644  14.940  0.0752 -0.2697 -0.1569
26654W        W43502   7.718   2.377  13.323  0.3237 -0.1893 -0.0278
26655W        W43503   6.083  14.701  15.362  0.1291 -0.0755  0.1094
26656W        W43504   5.712  12.766   2.573  0.3795  0.1682  0.3369
26657W        W43505   1.380   2.508  14.455 -0.2945  0.2088 -0.0806
26658W        W43506  15.073  12.763   4.121 -0.1848 -0.1743  0.3292
26659W        W43507  17.278   1.395  10.969 -0.0729  0.0209  0.4799
26660W        W43508   6.676   5.050  13.456 -0.3897 -0.0344  0.0078
26661W        W43509   3.260  10.464   3.047 -0.1264  0.1435  0.1150
26662W        W43510  11.524   6.743   1.968  0.4049 -0.1135 -0.1475
26663W        W43511   6.599  11.682   4.498  0.2585 -0.1336 -0.3467
26664W        W43512  14.370   2.383   2.918  0.0588 -0.0962  0.1115
26665W        W43513  15.159  18.080   4.003  0.0759 -0.0381 -0.4234
26666W        W43514   9.767  17.756   2.317 -0.0776  0.0229  0.1350
26667W        W43515  11.007  17.910   3.641  0.0083 -0.2766 -0.0304
26668W        W43516  17.692   1.884  11.576 -0.2862 -0.1731 -0.0857
26669W        W43517  11.532  13.543  13.622  0.1750  0.0157  0.0181
26670W        W43518  11.993   2.387   4.943 -0.4988  0.4089 -0.1483
26671W        W43519   1.903  15.892  11.310 -0.1213  0.0221 -0.0321
26672W        W43520   0.309   0.879  12.227 -0.1996  0.3141 -0.0965
26673W        W43521   1.099  13.563  13.280 -0.0011 -0.0027 -0.0787
26674W        W43522  11.078  18.051  13.520 -0.0008 -0.3742  0.1857
26675W        W43523  17.237  12.572   4.824 -0.1289  0.0810  0.4435
26676W        W43524  13.723   0.352   1.224 -0.1093  0.0305 -0.1712
26677W        W43525   5.093  18.113  11.094 -0.1878  0.0980 -0.1528
26678W        W43526  12.294   0.330   4.911  0.0411 -0.0790  0.1678
26679W        W43527  12.972  10.460  15.401 -0.2230 -0.1145  0.1133
26680W        W43528   2.783  15.078   1.513  0.0675  0.3611  0.0978
26681W        W43529   2.078   4.315  15.388  0.2962  0.0578 -0.1847
26682W        W43530   2.318   0.597  12.829  0.0324  0.0616  0.0561
26683W        W43531   9.731   5.509   2.078  0.0766  0.0105  0.1307
26684W        W43532  12.064   4.033   0.639  0.2418 -0.0402  0.0805
26685W        W43533  14.648  14.598  13.488  0.0354 -0.0109  0.2847
26686W        W43534  17.511  15.116   3.418  0.4292  0.1085 -0.0492
26687W        W43535   0.042  12.597  14.622 -0.0556 -0.2507  0.3018
26688W        W43536   1.515  15.920  12.897 -0.0158 -0.1049 -0.0238
26689W        W43537  10.131  16.478  14.190 -0.1898 -0.0693  0.0918
26690W        W43538   2.227   5.648  11.280  0.2687 -0.0896  0.0378
26691W        W43539   1.879  10.809   2.497  0.1596 -0.1121 -0.0172
26692W        W43540  12.990   7.678   2.944 -0.1209  0.0399  0.0653
26693W        W43541  16.487  17.288  12.627  0.1937  0.0156 -0.0341
26694W        W43542   6.908   2.546   0.025  0.3741  0.2913 -0.0737
26695W        W43543   2.943   1.478  13.621 -0.1123  0.1409 -0.2215
26696W        W43544   2.758   8.040  13.925 -0.0243  0.0548  0.0717
26697W        W43545   0.477   0.411  14.772 -0.0520  0.0669 -0.0643
26698W        W43546  17.457   7.959  11.468 -0.0729 -0.1075  0.1739
26699W        W43547  12.337   8.251  12.609  0.1442  0.0804  0.0867
26700W        W43548   0.757  13.865   4.139  0.0224 -0.1227 -0.2009
26701W        W43549   3.723  12.135  15.583  0.0538 -0.2129 -0.1836
26702W        W43550   5.780  17.773  14.061  0.1247 -0.0692 -0.3316
26703W        W43551  14.498   7.647  12.688 -0.1735  0.0693  0.1425
26704W        W43552  13.784  13.658   2.884 -0.1325  0.0135 -0.0682
26705W        W43553   3.180  15.903  14.215 -0.1336 -0.0140  0.0517
26706W        W43554   8.322   3.362  12.209 -0.0491 -0.0765 -0.0970
26707W        W43555  14.868   3.708  12.999  0.2192 -0.2675 -0.0757
26708W        W43556   1.762   1.972  14.281 -0.1761 -0.2451 -0.0806
26709W        W43557  17.009  17.253  10.957  0.0236  0.0864 -0.0346
26710W        W43558  12.449  13.484   1.510 -0.1177  0.1331 -0.1635
26711W        W43559   1.011   0.867  13.353 -0.0763 -0.2691 -0.4757
26712W        W43560   4.535  10.429  11.486  0.1303  0.3937  0.0375
26713W        W43561  14.050   4.781   0.651 -0.0933  0.2453 -0.1567
26714W        W43562   5.875   7.561  12.480 -0.0501 -0.2459 -0.0004
26715W        W43563  13.591  11.775  11.682  0.0620  0.1754  0.0579
26716W        W43564   5.478   6.034   1.259  0.0036  0.1420  0.1080
26717W        W43565   5.732   6.083  12.968  0.0875  0.1139 -0.1160
26718W        W43566   2.480  17.882  15.729  0.0162 -0.0318  0.1295
26719W        W43567  12.190  12.923  13.290 -0.3862 -0.4485 -0.0081
26720W        W43568   5.080   6.501   0.397  0.0585 -0.1305 -0.0110
26721W        W43569  16.515  17.159   5.610  0.0643 -0.0698  0.1530
26722W        W43570   5.353   7.413  13.742 -0.0376  0.1644 -0.1154
26723W        W43571  17.145   5.822  11.071 -0.1382  0.2622  0.1812
26724W        W43572  16.294  12.485  12.365 -0.0465 -0.2923  0.3148
26725W        W43573   0.657   1.249  10.927 -0.0473 -0.0974 -0.1020
26726W        W43574  17.418  17.637  12.510 -0.0705  0.0198 -0.1034
26727W        W43575  16.498  13.417  11.335 -0.2101 -0.1185 -0.1889
26728W        W43576  14.351  13.451   3.542  0.2650  0.1321  0.0777
26729W        W43577  15.463   2.053   4.439 -0.0359  0.1831 -0.5116
26730W        W43578   3.893  12.098  14.178 -0.0331  0.0039 -0.2171
26731W        W43579   0.022  11.095  13.950  0.3946  0.2432 -0.3219
26732W        W43580  15.313   5.008   1.317  0.3636 -0.3927  0.0084
26733W        W43581   8.843   3.833  12.573  0.0582  0.2357  0.1150
26734W        W43582   9.454  16.548   0.581  0.1317  0.3320  0.0041
26735W        W43583   4.355  16.973   1.757 -0.0531  0.1436 -0.0890
26736W        W43584   0.130   1.717  12.907  0.0250 -0.1927 -0.0785
26737W        W43585  17.639   8.417   0.658 -0.1522  0.4773 -0.1494
26738W        W43586   0.603  11.559   0.648  0.1361  0.0664  0.2134
26739W        W43587   0.022   0.465  13.132 -0.0784 -0.2736 -0.0007
26740W        W43588  15.016   7.414  13.261  0.2485  0.1958  0.4300
26741W        W43589  16.203  10.211   4.262 -0.1554  0.2804  0.1507
26742W        W43590   5.204   2.971   4.396  0.1875 -0.0580 -0.1667
26743W        W43591   4.578  11.513  11.096  0.0959  0.1449 -0.1549
26744W        W43592  17.332   3.582  13.542 -0.3501 -0.0948 -0.1410
26745W        W43593  10.167  10.128  14.078  0.1159 -0.4593  0.1958
26746W        W43594  11.751   3.609   2.440 -0.1010  0.1267  0.0957
26747W        W43595   7.702  15.378   4.586 -0.1164  0.1655  0.3046
26748W        W43596   3.613  15.365  15.589  0.1745  0.3759  0.2103
26749W        W43597  13.254  11.590  14.674 -0.0436 -0.2238 -0.0443
26750W        W43598   1.491  16.301  14.552  0.3001 -0.1175 -0.2066
26751W        W43599   4.165  13.598   1.586  0.1314  0.2184  0.1708
26752W        W43600  14.332   5.495  14.559  0.1511  0.0838 -0.2052
26753W        W43601   1.562  15.919  13.716  0.1886  0.1637  0.4007
26754W        W43602  13.254   9.533  12.545  0.0457 -0.0574 -0.0927
26755W        W43603   3.896   1.302  11.981 -0.1585 -0.2245  0.2182
26756W        W43604   7.058   1.505   4.801  0.0823  0.0982  0.0951
26757W        W43605   3.781   9.051  14.837  0.1069  0.0880  0.0498
26758W        W43606   4.140   5.057   0.336  0.0903  0.2096 -0.0636
26759W        W43607  15.721   0.617   0.676  0.1259  0.2728 -0.1309
26760W        W43608   0.977   9.066   2.014  0.0568 -0.0113 -0.0271
26761W        W43609  11.896  11.205   2.502 -0.2708  0.1815  0.0242
26762W        W43610  16.484  12.827  14.453 -0.0321 -0.2476 -0.2214
26763W        W43611  16.722  17.551   0.546 -0.2580 -0.0390 -0.1608
26764W        W43612   3.272  12.319   0.981 -0.1673  0.1686 -0.2535
26765W        W43613   0.195  17.459  15.335 -0.0384  0.1668 -0.0396
26766W        W43614   4.780   9.182  12.097  0.0309 -0.1489  0.2392
26767W        W43615   6.596  10.319  15.191 -0.2778  0.0344 -0.1437
26768W        W43616  13.731  13.362   4.779  0.1790 -0.0465 -0.1302
26769W        W43617   3.254   6.753   3.339 -0.1324 -0.0450  0.1942
26770W        W43618   1.658   5.730   0.219  0.3164  0.0362 -0.0317
26771W        W43619   8.587  11.580  15.569 -0.0939 -0.1318  0.0440
26772W        W43620   8.063   7.391   4.278 -0.0830  0.2337  0.1830
26773W        W43621   0.579   7.815   2.567  0.0528 -0.1174  0.0916
26774W        W43622   1.811   6.931   2.193 -0.3684 -0.0365  0.2700
26775W        W43623  11.318  11.857   4.780 -0.0201  0.0575 -0.1933
26776W        W43624  15.074   6.441   0.042  0.2215 -0.1705  0.1551
26777W        W43625   4.733   4.082  12.316 -0.0883  0.0441 -0.1405
26778W        W43626  12.993   9.794  15.973 -0.0473  0.4909 -0.2243
26779W        W43627  17.590   7.207   5.129 -0.1126  0.0212  0.2665
26780W        W43628  15.918  10.039  14.965 -0.2210  0.0865 -0.2439
26781W        W43629  15.870   1.090   1.538 -0.0749 -0.1710 -0.1166
26782W        W43630  17.537  15.088  13.452 -0.2728  0.1097  0.4864
26783W        W43631   1.796  16.680   3.235  0.0512  0.0622  0.2448
26784W        W43632   6.512   7.189  12.979  0.3563  0.0070  0.2861
26785W        W43633   6.539   9.350   0.459  0.5521  0.0485 -0.2020
26786W        W43634   1.115  10.004  12.275 -0.1569 -0.1111  0.1436
26787W        W43635   4.725  12.696   4.724  0.2482 -0.1101 -0.3247
26788W        W43636  12.466  13.430   2.208 -0.0016 -0.0151 -0.0149
26789W        W43637   6.860  13.655  15.712  0.0002 -0.0428  0.2679
26790W        W43638   3.959   3.553   2.486  0.1341 -0.2622 -0.2635
26791W        W43639   1.260   1.989  14.064 -0.1790  0.0306 -0.2108
26792W        W43640  11.892  13.858   3.389 -0.0181 -0.3947 -0.0725
26793W        W43641   3.190   7.797  11.566 -0.1054 -0.3710  0.0265
26794W        W43642   3.056  15.869   2.501 -0.1555  0.2357 -0.0658
26795W        W43643   6.424  13.835  15.824 -0.2346 -0.0853 -0.3827
26796W        W43644   9.894  15.318   1.414  0.1773  0.0463  0.1370
26797W        W43645   5.440   3.882  10.596  0.0038 -0.1695  0.0025
26798W        W43646  13.269  14.267  11.297 -0.1343  0.0219  0.1843
26799W        W43647  17.419   5.911  13.282 -0.1502  0.1921 -0.2610
26800W        W43648   9.045   8.479   2.698  0.2549 -0.3520 -0.4205
26801W        W43649   5.877  16.063  11.549 -0.3038 -0.1088 -0.2061
26802W        W43650   7.383   7.296   2.999  0.0644  0.0151  0.1255
26803W        W43651   4.001  18.089  13.977  0.0995 -0.2007  0.2050
26804W        W43652   9.935   9.844  15.393  0.1226 -0.0495  0.3216
26805W        W43653   9.943  10.153  13.172 -0.0164 -0.0280  0.2181
26806W        W43654  11.312  13.637  12.099 -0.3280 -0.3874  0.1612
26807W        W43655   0.286  16.061  13.616 -0.1551 -0.1426 -0.2713
26808W        W43656  11.380   0.671   2.694 -0.0614  0.3284  0.0521
26809W        W43657  11.113  15.978  13.152 -0.2533  0.1757  0.3309
26810W        W43658   4.941  10.165  14.337 -0.0635 -0.3524 -0.2342
26811W        W43659   4.835   0.579   0.860 -0.2467  0.1026  0.0670
26812W        W43660  17.458  10.239  12.172 -0.0292  0.3731 -0.0314
26813W        W43661  10.545  12.788  13.058  0.0731  0.1628  0.2062
26814W        W43662   9.063  12.375  13.547  0.0179 -0.0400 -0.1018
26815W        W43663  12.272   1.941   2.014  0.3236 -0.4702  0.0926
26816W        W43664  12.766   6.046  14.257 -0.0156 -0.2208 -0.0182
26817W        W43665   3.641   9.009  12.757 -0.2230 -0.0227  0.2689
26818W        W43666   9.193  12.224   4.076 -0.2227 -0.4150  0.0354
26819W        W43667   9.636   6.254   0.998 -0.0342 -0.0145 -0.0544
26820W        W43668   5.864  17.473   3.512  0.4473 -0.2194  0.1700
26821W        W43669   6.433  11.039   4.365  0.3075  0.1516  0.2391
26822W        W43670   1.989   8.825   1.748 -0.0686  0.1508 -0.0407
26823W        W43671   6.189   0.879  13.459  0.0038 -0.3499 -0.0546
26824W        W43672   4.905   6.823  15.706  0.1600 -0.3501 -0.0904
26825W        W43673   0.279  11.557  12.137 -0.1001  0.3236 -0.2740
26826W        W43674  13.606  12.106  12.101 -0.2708  0.0149 -0.1383
26827W        W43675  11.636   6.413   2.834  0.1548  0.1921  0.3275
26828W        W43676   4.058   6.253   4.130  0.1107  0.3307 -0.3036
26829W        W43677  18.087   5.051  14.693  0.3763 -0.1851  0.1295
26830W        W43678   5.299  12.395  15.826  0.1268 -0.0018  0.0745
26831W        W43679   4.953  15.311   0.900 -0.0668 -0.2644  0.0019
26832W        W43680  10.809  13.126   4.449  0.0586  0.2415  0.2467
26833W        W43681   2.463   1.531  13.410 -0.1769 -0.0224 -0.2421
26834W        W43682  11.611  15.144  13.445 -0.0354  0.0530 -0.3314
26835W        W43683   0.603  14.110  13.323 -0.0074 -0.1147  0.0635
26836W        W43684   5.413  14.756   3.476  0.0861 -0.0257  0.3904
26837W        W43685   8.418   4.732   0.320 -0.2940  0.0087  0.0405
26838W        W43686   1.386   6.318   5.226 -0.1510  0.2334 -0.5091
26839W        W43687   3.979  15.027  12.562  0.0916  0.0294 -0.2795
26840W        W43688  13.367  13.433   2.675 -0.1087  0.1172  0.3195
26841W        W43689  15.128   3.910  14.703 -0.0001  0.2049  0.4732
26842W        W43690  11.005  13.414  15.425  0.0077 -0.0632  0.1545
26843W        W43691   0.053   8.989  13.121 -0.1714  0.0298  0.0846
26844W        W43692   7.146   2.495  13.216 -0.0851 -0.2201  0.0672
26845W        W43693   1.767  12.118   1.699 -0.4306  0.1267  0.3738
26846W        W43694  11.560  13.667  14.102  0.1706  0.1025  0.1141
26847W        W43695   7.252   3.213  11.755  0.0426  0.0373 -0.0650
26848W        W43696   2.600   9.396  11.052  0.0695  0.2109 -0.0733
26849W        W43697  11.295  12.993  14.762 -0.3142 -0.0204  0.0084
26850W        W43698  17.342   8.681   1.060  0.1128 -0.0182 -0.2560
26851W        W43699   5.421  10.077   3.713  0.3260 -0.0661  0.0756
26852W        W43700  17.922   9.921  14.582  0.2291  0.0234 -0.1526
26853W        W43701  16.489   6.138  13.418 -0.2148  0.0515 -0.1200
26854W        W43702   1.710  10.762   3.192  0.0281  0.0953  0.1251
26855W        W43703   4.049   8.737  11.317 -0.1753 -0.1448  0.1947
26856W        W43704   1.207   6.004   2.391 -0.3191  0.3869 -0.0726
26857W        W43705   9.635  12.535   5.928 -0.1016  0.2199 -0.0652
26858W        W43706   1.392  13.927   1.256  0.1120 -0.2214  0.0291
26859W        W43707   0.666  15.323  11.502  0.0777  0.0726 -0.2529
26860W        W43708  16.522  13.813   3.049 -0.0299 -0.2332  0.3551
26861W        W43709   8.817   3.121  10.680  0.1936 -0.0039  0.1083
26862W        W43710  15.702  15.488  11.029  0.0446 -0.0808  0.0278
26863W        W43711  13.340  10.630  12.053  0.1144  0.0941 -0.4740
26864W        W43712  16.557   7.003   1.479 -0.0887  0.0131  0.1320
26865W        W43713  13.580   5.119   1.064  0.1629 -0.2038  0.2298
26866W        W43714  16.348  13.465  11.829  0.1446  0.1567  0.2226
26867W        W43715   8.363   4.177  14.550 -0.0561 -0.1900  0.1534
26868W        W43716   4.053   6.613  11.347  0.0949 -0.0203  0.0506
26869W        W43717   3.778  16.131  13.557  0.0454  0.1064  0.0338
26870W        W43718   0.381  12.527  11.983  0.1151  0.1427  0.0504
26871W        W43719  13.974  17.111   4.264 -0.0325  0.2307 -0.1123
26872W        W43720  10.222   9.505  10.868  0.1148 -0.2153  0.1072
26873W        W43721  13.316   0.522  13.937 -0.0877  0.1583  0.0968
26874W        W43722  12.528  13.564  12.381 -0.4215  0.4647  0.0905
26875W        W43723  17.641   8.569  12.062  0.1145 -0.1084 -0.3634
26876W        W43724   5.421   9.138   0.463 -0.0881  0.0493  0.1318
26877W        W43725   4.607   4.348  10.651  0.1565 -0.1966 -0.1295
26878W        W43726   8.996   9.029   5.068 -0.1691  0.2663 -0.2517
26879W        W43727   7.341   2.420   2.247 -0.2371 -0.0938  0.0151
26880W        W43728  10.604   7.519  13.562 -0.0260  0.1065 -0.2694
26881W        W43729  11.700   8.211  14.343  0.1241 -0.1446  0.1304
26882W        W43730   2.833  15.765  14.659 -0.0240  0.1881  0.0825
26883W        W43731  13.188   1.542   3.593  0.2020  0.3376 -0.3518
26884W        W43732   0.338   7.683  10.123  0.4054  0.1620  0.5007
26885W        W43733  16.025   0.200   1.988  0.0310 -0.1017  0.2073
26886W        W43734   5.794  10.816  11.379  0.2411 -0.0303 -0.3141
26887W        W43735   4.128   4.716   1.096  0.1472  0.1481  0.1298
26888W        W43736   4.930  15.891  13.785  0.0058  0.1729 -0.3683
26889W        W43737  10.437  17.325  13.754  0.0433 -0.2946  0.4137
26890W        W43738   9.328   1.835  15.746  0.0969  0.1540 -0.0658
26891W        W43739   9.620   2.305   2.130 -0.1685  0.2521  0.2030
26892W        W43740   5.293   4.001  13.697 -0.4267 -0.1384  0.0642
26893W        W43741   9.042   3.475   1.202  0.1113  0.1786  0.0130
26894W        W43742  12.967   9.631  14.098  0.1232  0.4077 -0.0779
26895W        W43743   8.699   2.671   1.671 -0.2259  0.0856 -0.0193
26896W        W43744  10.867   9.980  15.205  0.0061 -0.1908  0.1617
26897W        W43745   2.984  17.624   1.133  0.0783 -0.1333 -0.3236
26898W        W43746   8.434   7.269   0.607  0.0697 -0.0620  0.0289
26899W        W43747  13.459   6.835   3.990 -0.1814  0.0265  0.2031
26900W        W43748   4.966   1.076   1.461  0.1085 -0.0893 -0.1877
26901W        W43749   5.871  11.716  10.358 -0.0932 -0.3475 -0.1350
26902W        W43750   8.263   9.636  15.988  0.2676 -0.1057  0.0614
26903W        W43751   5.308  16.855  11.122 -0.3505 -0.1497  0.0576
26904W        W43752  11.221  11.813  10.905  0.0400 -0.0068  0.1498
26905W        W43753  11.005   3.654   4.748  0.0151 -0.1190 -0.0660
26906W        W43754  16.558  15.510  10.915 -0.1367 -0.3603 -0.0145
26907W        W43755   7.473  11.402  14.741  0.0924 -0.2446  0.2026
26908W        W43756   8.986   6.279  12.448 -0.2005  0.0254 -0.1722
26909W        W43757   5.791  14.110   2.797 -0.1212  0.3344  0.1241
26910W        W43758   2.745   6.520   5.645  0.1163 -0.0209 -0.0293
26911W        W43759   0.900   9.952  14.863 -0.0424 -0.0563 -0.1261
26912W        W43760   7.540  12.191  15.745 -0.2826  0.1686  0.2223
26913W        W43761   3.031  17.518  14.620  0.2631  0.0817  0.2965
26914W        W43762  10.433   0.572   1.052 -0.0735 -0.0238  0.5596
26915W        W43763  16.491   1.203  11.017  0.0778  0.1825 -0.0846
26916W        W43764  15.527   6.924  14.179  0.0412  0.1104  0.1356
26917W        W43765   9.491  16.064   3.386 -0.0181 -0.0498  0.2303
26918W        W43766  10.690  10.493   6.090 -0.1767 -0.1799  0.2442
26919W        W43767  17.508  10.001   0.742 -0.1052 -0.0145  0.0341
26920W        W43768  14.125  17.843   3.636 -0.1021 -0.4163  0.1900
26921W        W43769   0.006  12.074   0.527 -0.2139 -0.1499  0.1204
26922W        W43770   7.357  12.380  13.804 -0.0015  0.0696 -0.0140
26923W        W43771   0.241   6.961   1.195 -0.2579 -0.1550  0.0541
26924W        W43772   2.210   7.597  12.535 -0.2405 -0.5101 -0.0148
26925W        W43773  16.207   2.507  15.727 -0.1987 -0.0232  0.0902
26926W        W43774  15.820   4.797  10.871  0.1368 -0.1809 -0.1081
26927W        W43775  16.121  17.839   2.782  0.0362 -0.1869  0.0370
26928W        W43776   9.128  15.290  14.562 -0.1781 -0.1567  0.2624
26929W        W43777   9.800  10.426   1.122  0.0104 -0.3313  0.1719
26930W        W43778   2.496   7.025   1.677 -0.0454 -0.0404 -0.1508
26931W        W43779   5.826   9.367  15.166 -0.1437 -0.1014  0.3074
26932W        W43780   0.427   8.774  10.069 -0.0723 -0.1965 -0.2204
26933W        W43781   4.998   7.753   0.533  0.0831  0.1998 -0.0660
26934W        W43782  10.577  15.093  14.987 -0.3669 -0.1273 -0.1586
26935W        W43783   5.873  13.232  12.106 -0.0369  0.0737  0.0832
26936W        W43784   9.443  16.410   5.058 -0.0432  0.1142  0.2551
26937W        W43785   3.148  10.260  13.955 -0.0613  0.1863  0.2037
26938W        W43786  16.375   9.896  11.492  0.0975  0.1056  0.0292
26939W        W43787  11.198   8.403  13.314  0.0571  0.1615  0.1429
26940W        W43788   3.810  15.719   2.275 -0.1430 -0.5052 -0.0028
26941W        W43789   2.214  11.909   1.858  0.2971  0.0946  0.1589
26942W        W43790   4.941   9.400   2.000 -0.0249  0.2053  0.1025
26943W        W43791  11.994   1.637   0.459  0.0985 -0.2685  0.2728
26944W        W43792   7.074  16.189  12.801 -0.0442  0.2974 -0.1123
26945W        W43793  16.852   4.186   2.294  0.1295  0.0657  0.1954
26946W        W43794  16.504  16.184  13.699  0.4917 -0.2545 -0.0400
26947W        W43795   6.445  11.777  14.376 -0.1072 -0.1011  0.0366
26948W        W43796   7.762   8.425  13.497 -0.5820 -0.0671 -0.1308
26949W        W43797  15.966  12.595  13.794  0.0343 -0.1454  0.0546
26950W        W43798   1.243  12.450   3.952  0.2094  0.3415  0.0488
26951W        W43799  11.340  11.850   0.597  0.3646 -0.0769  0.0508
26952W        W43800   7.110  18.047  11.354  0.0289 -0.0305  0.2204
26953W        W43801   1.807  15.315  11.670  0.1531 -0.0047 -0.1775
26954W        W43802   9.013  16.804  11.811  0.2279  0.0580  0.0964
26955W        W43803   3.601  12.191  11.445 -0.0303  0.2136  0.2451
26956W        W43804  14.441   5.414  12.653  0.1528 -0.1762  0.0366
26957W        W43805   5.431  15.883  11.643 -0.2703 -0.2115 -0.0375
26958W        W43806  14.657  11.618   0.742 -0.1366 -0.3218 -0.0863
26959W        W43807  10.827  15.060  13.952 -0.2150 -0.3059  0.2314
26960W        W43808   0.957  11.695   2.873 -0.0794 -0.1348  0.0125
26961W        W43809   5.148   5.214  11.838  0.1473  0.2606 -0.1748
26962W        W43810  13.931  10.849  12.669  0.0830 -0.3256 -0.0363
26963W        W43811   5.504  17.242  13.035  0.2229 -0.0224  0.1428
26964W        W43812  16.433  16.316  15.997  0.2700 -0.2131  0.1622
26965W        W43813  15.947   1.990   4.211 -0.2099 -0.0215  0.0016
26966W        W43814   5.840   6.118  14.427  0.1487 -0.1337 -0.1026
26967W        W43815   9.075  13.448   4.747 -0.0168  0.0665 -0.3016
26968W        W43816   7.295   1.399   3.229 -0.0056  0.3162  0.3012
26969W        W43817  14.721  11.461  12.300 -0.2310 -0.0125 -0.1911
26970W        W43818   6.552   6.636  14.434 -0.0717  0.3786  0.0224
26971W        W43819   0.002  10.778  11.512  0.3060 -0.1446  0.0659
26972W        W43820   3.194  16.238  15.865  0.1158  0.0749  0.0685
26973W        W43821  15.140  11.303   3.825  0.2178 -0.2377 -0.1728
26974W        W43822   4.060  12.607   4.125  0.1334 -0.1802  0.1399
26975W        W43823  12.525  14.627  13.319  0.1641  0.0701  0.1742
26976W        W43824   8.225   4.689  12.746 -0.2479 -0.1425 -0.1516
26977W        W43825   2.813  14.833  12.988  0.0383 -0.0143  0.3214
26978W        W43826   0.410  17.919  14.144  0.0800 -0.2482  0.1803
26979W        W43827  13.326  13.009   2.041 -0.1872  0.3195 -0.0377
26980W        W43828  15.195  17.190   0.016  0.2137 -0.0800  0.0040
26981W        W43829   1.270  10.407   3.779 -0.4033  0.1060 -0.1259
26982W        W43830  11.232   1.299   4.302  0.2273 -0.0212 -0.1024
26983W        W43831   3.966  13.913  14.549  0.1766  0.2417 -0.1190
26984W        W43832   9.609   9.886   1.121 -0.1230 -0.0733  0.0653
26985W        W43833  17.006  13.570  11.228 -0.2884  0.0576  0.2031
26986W        W43834   0.862  13.940  14.775 -0.1363  0.1142 -0.1501
26987W        W43835   3.237  13.989  12.828 -0.0030  0.1938  0.3818
26988W        W43836   4.617   0.563  16.118 -0.1408 -0.0308  0.1705
26989W        W43837  14.201   6.373   3.838  0.0531 -0.1221  0.2870
26990W        W43838  16.610   1.024   3.280 -0.4828 -0.0120  0.0045
26991W        W43839   8.964   8.444  14.106  0.1420 -0.2245 -0.2484
26992W        W43840  11.700   8.790   1.716 -0.2557  0.0688 -0.2082
26993W        W43841  12.077   2.400   2.671 -0.1285  0.0342 -0.1884
26994W        W43842   8.055  13.104  15.863  0.0590  0.3700 -0.4314
26995W        W43843   8.673   3.307   2.008  0.3559 -0.2831  0.0650
26996W        W43844   0.258  12.936   4.113  0.1511  0.0888 -0.0469
26997W        W43845   6.127   1.039  12.156 -0.2525  0.2899  0.0810
26998W        W43846   1.781  11.951  12.693  0.3204 -0.0398  0.1041
26999W        W43847   4.369   7.693  15.103 -0.0438 -0.3602 -0.0413
27000W        W43848  11.103   5.461  12.746  0.2304  0.0828  0.3489
27001W        W43849   8.845   2.832   2.990  0.0319  0.3962 -0.0522
27002W        W43850  18.073  12.711   3.856  0.1741 -0.0457  0.4653
27003W        W43851  17.406  17.686  14.326 -0.2431  0.2018  0.2336
27004W        W43852   0.999   2.281   4.490 -0.0976  0.0994  0.3802
27005W        W43853  14.586   6.714  13.659 -0.0150 -0.0517 -0.0049
27006W        W43854  14.244   9.753  15.022  0.1997 -0.0968 -0.3758
27007W        W43855   4.663  13.022  11.891 -0.0828 -0.1065  0.1122
27008W        W43856  14.867  11.072  13.058 -0.0659  0.1279 -0.0504
27009W        W43857  12.419   0.799  16.016  0.0633 -0.2163 -0.1757
27010W        W43858   1.803  15.286   4.441  0.2661  0.0575 -0.4898
27011W        W43859   6.914  16.832   0.236  0.2166  0.2320  0.0596
27012W        W43860  15.160  15.113   1.356  0.1926 -0.0609  0.1650
27013W        W43861   0.351   8.451   4.655  0.4244  0.1757  0.1251
27014W        W43862   6.174  11.993   2.199  0.0167  0.2341  0.3440
27015W        W43863   0.363   5.642   2.818  0.2103  0.1039 -0.1738
27016W        W43864   5.335   5.669   4.862 -0.1975 -0.0740  0.2365
27017W        W43865  16.283   2.838   3.740 -0.0195  0.0350  0.0342
27018W        W43866   2.300   7.531  13.107 -0.0167 -0.2713 -0.1833
27019W        W43867   0.054   3.331  15.121 -0.0133  0.1406 -0.0241
27020W        W43868  16.976  15.959  12.482  0.3120 -0.1635  0.0011
27021W        W43869  15.678   4.307  10.928  0.3025  0.2729  0.0564
27022W        W43870   1.967   3.400  13.826  0.4686 -0.5238  0.0332
27023W        W43871   3.433   7.700  13.379 -0.0721 -0.1028  0.1606
27024W        W43872   4.725  14.909  11.519 -0.2214 -0.4187  0.1140
27025W        W43873   6.759  12.194  14.470 -0.0790 -0.3456  0.0941
27026W        W43874  15.877  10.856   3.018  0.3295  0.1243  0.3828
27027W        W43875   8.401   3.294   0.272 -0.0576  0.0252  0.2925
27028W        W43876   6.840  16.519  11.616 -0.2875  0.0030  0.5307
27029W        W43877   1.656   5.761   2.459  0.0936  0.1033  0.3232
27030W        W43878  14.133  14.164   4.339  0.2074 -0.1194 -0.0276
27031W        W43879   1.792  12.186   1.103 -0.1368  0.0689 -0.1821
27032W        W43880   5.495   5.589   1.528  0.2352  0.1826 -0.0696
27033W        W43881  12.514   6.496  12.038  0.2286  0.0235  0.3014
27034W        W43882  16.717   0.774  12.552  0.3484 -0.0144 -0.3382
27035W        W43883   8.187  14.730  13.126 -0.1282  0.1694 -0.3550
27036W        W43884  11.590   6.737   4.719 -0.1234 -0.0084 -0.0388
27037W        W43885   4.773   6.837   0.207  0.2727 -0.2035 -0.4825
27038W        W43886   5.197  12.422   1.609 -0.2109 -0.2370 -0.0055
27039W        W43887  16.552   0.143   0.575  0.0210  0.2630  0.1781
27040W        W43888  16.424   5.326   4.763 -0.0773  0.1334  0.2315
27041W        W43889  15.097  10.000   1.219 -0.3093  0.3385 -0.3797
27042W        W43890   5.520  16.893  15.230 -0.3048  0.0625 -0.0154
27043W        W43891   1.104   6.590   1.554 -0.2505 -0.2033  0.4407
27044W        W43892  15.211   4.089   4.379  0.0223 -0.0940  0.0037
27045W        W43893   9.211  14.382  12.314  0.1539 -0.0134 -0.1705
27046W        W43894  12.785   1.395  12.215 -0.3720 -0.2805 -0.0307
27047W        W43895   4.989   0.043   0.810 -0.2076 -0.1555  0.1683
27048W        W43896   6.346   6.342   4.357  0.2200 -0.0002  0.2112
27049W        W43897   9.859   5.151  11.535 -0.0590  0.3142  0.1211
27050W        W43898   3.053  14.664  10.874 -0.0962  0.0434  0.0972
27051W        W43899  11.760   9.449  14.636  0.0030  0.0019 -0.0863
27052W        W43900  16.087  17.265  16.094  0.1021  0.0472 -0.1695
27053W        W43901   6.142   2.519  11.276 -0.1422  0.1273 -0.1491
27054W        W43902  13.630   9.543   0.484 -0.1193  0.0073 -0.1520
27055W        W43903   0.862   3.159   4.884  0.1728 -0.0065 -0.2247
27056W        W43904   5.278   1.075   4.452  0.0972  0.1451 -0.1548
27057W        W43905   8.278   1.903  14.995 -0.1402 -0.1262 -0.0868
27058W        W43906   8.195   7.138   2.406  0.0067 -0.1620 -0.1088
27059W        W43907  10.517   6.335  15.576 -0.1355 -0.1499 -0.1798
27060W        W43908  10.695  14.158  11.781 -0.1357 -0.2233 -0.0351
27061W        W43909   8.334   2.050  12.654  0.3192  0.1118 -0.0097
27062W        W43910   7.953   6.637  14.855  0.0278 -0.1559 -0.2394
27063W        W43911  10.480  13.961  14.789 -0.0885  0.2261  0.0936
27064W        W43912   5.226   4.236   0.371  0.2483 -0.0672  0.1916
27065W        W43913   4.703  14.706   1.919  0.4364 -0.0657  0.3406
27066W        W43914  14.756   4.658   0.037  0.0330  0.3621  0.0511
27067W        W43915   8.759   2.195   2.468 -0.0126 -0.1649 -0.0729
27068W        W43916   8.496  10.483  15.010  0.1852 -0.0735  0.1021
27069W        W43917   1.282  11.807   3.242 -0.2299 -0.2134  0.1899
27070W        W43918   7.598   4.566  14.081  0.0493 -0.2000  0.0026
27071W        W43919  17.055   9.582   4.860  0.1785  0.2052 -0.0676
27072W        W43920  11.624   5.408   2.822  0.0829 -0.1469 -0.1239
27073W        W43921  17.354  15.285  15.790 -0.2273  0.0067  0.0350
27074W        W43922  14.741   6.696   3.213 -0.2509  0.0803 -0.1774
27075W        W43923   6.786  10.475  14.679  0.0350  0.0277 -0.0567
27076W        W43924   6.829  12.463  13.581  0.0521  0.2119 -0.0027
27077W        W43925   2.009   5.970   3.215  0.1345 -0.0737 -0.4608
27078W        W43926  17.078  10.675   2.590 -0.0301 -0.0739  0.3468
27079W        W43927   8.640   6.112   4.923  0.0514 -0.0960 -0.0957
27080W        W43928   0.769  14.414  13.778 -0.0700  0.0090 -0.0607
27081W        W43929   7.641   0.665  14.808 -0.0273 -0.1224  0.0149
27082W        W43930   1.354   6.776  11.226 -0.0871 -0.1880 -0.0771
27083W        W43931   6.829   4.995   0.780  0.0030  0.2205  0.0377
27084W        W43932  10.742   2.385   1.127  0.0837  0.0927 -0.1124
27085W        W43933  16.868   8.385  14.482 -0.3058 -0.0735  0.2907
27086W        W43934  17.287  10.437   0.637 -0.0736  0.1529  0.2430
27087W        W43935   0.407   8.144  13.766  0.2008  0.0122 -0.2022
27088W        W43936  16.389   8.764  12.196 -0.1728  0.2331  0.4215
27089W        W43937   4.008  14.367  13.167 -0.0865 -0.0448  0.3888
27090W        W43938   3.466   5.239  14.802 -0.0109 -0.4993  0.1113
27091W        W43939   5.289   9.816   5.948 -0.1359 -0.1158  0.1767
27092W        W43940   2.629   6.602  12.186  0.3437 -0.0312 -0.1681
27093W        W43941   0.029   5.159  11.035 -0.0107  0.0685 -0.0305
27094W        W43942  14.022   6.566  13.220 -0.0120  0.0979  0.0597
27095W        W43943  15.725   0.876  12.437  0.0255 -0.0490 -0.1640
27096W        W43944   2.557   2.956   2.548  0.1253 -0.0114  0.1435
27097W        W43945  17.994  12.762  13.173 -0.1571 -0.3678  0.0306
27098W        W43946   7.325  11.685  10.384  0.3655 -0.0132 -0.0214
27099W        W43947   4.368  17.744  12.756 -0.2910 -0.4299 -0.0962
27100W        W43948  14.757   2.621   3.832  0.0033 -0.1461  0.2570
27101W        W43949   4.965  10.558   1.578 -0.2514  0.0472  0.0070
27102W        W43950   1.102   3.350  14.368  0.0077  0.0630 -0.3231
27103W        W43951   9.901   8.180   1.820 -0.1452 -0.0723 -0.0405
27104W        W43952  14.789   4.320  11.576 -0.0497 -0.1435  0.2592
27105W        W43953  14.310  16.779   2.294 -0.1106 -0.0021 -0.0744
27106W        W43954   0.836  16.980  13.784  0.2914  0.1215 -0.2147
27107W        W43955   5.082  16.576  12.407 -0.0708 -0.2928  0.1000
27108W        W43956   4.817  11.287   4.101  0.1663  0.1088  0.1503
27109W        W43957   5.849  12.740   4.828 -0.3237 -0.2201  0.1368
27110W        W43958  14.656   6.799   2.075  0.2348  0.2047  0.1281
27111W        W43959  13.287   3.587   5.451  0.1403  0.5032 -0.3246
27112W        W43960   5.379   8.922   2.784 -0.2437 -0.1077  0.0539
27113W        W43961   9.504   5.601  15.231  0.2927  0.0219 -0.2995
27114W        W43962   6.572   3.481   1.355  0.0560  0.2366 -0.0735
27115W        W43963   0.428   3.972   1.699  0.0541  0.1128  0.0967
27116W        W43964  10.415   9.060  13.937 -0.0678 -0.2232  0.0927
27117W        W43965   7.290  16.639  16.119  0.1462 -0.3280 -0.3695
27118W        W43966  12.803  15.607   3.934  0.2481 -0.5784  0.1623
27119W        W43967   4.660  11.390   1.109  0.1307 -0.1290 -0.0450
27120W        W43968   2.723  15.361  12.263 -0.2598  0.0829 -0.0466
27121W        W43969   0.587   6.562   4.755 -0.0620  0.3519  0.4767
27122W        W43970  13.971   9.946  11.956  0.0163 -0.2801  0.0164
27123W        W43971   5.039  10.204   4.028 -0.0571  0.1108 -0.2862
27124W        W43972   1.550  12.045  15.507 -0.2102  0.1957 -0.1624
27125W        W43973   2.403   0.002   0.992 -0.0790 -0.0035  0.0695
27126W        W43974   4.608  10.336   5.677  0.1573 -0.0138 -0.3070
27127W        W43975  10.133   6.265   0.189 -0.0451  0.2514  0.2739
27128W        W43976  10.189  10.345  11.163 -0.0828 -0.2198  0.1133
27129W        W43977   1.265   0.470  14.042 -0.1325 -0.2157  0.0482
27130W        W43978  13.793  11.129   2.939  0.1844  0.1103  0.3737
27131W        W43979   6.590   9.424  14.127  0.0573  0.0774  0.2309
27132W        W43980   4.418   6.173   3.019  0.2228  0.2014 -0.4267
27133W        W43981   6.678   3.183  13.753 -0.0401  0.3061  0.1851
27134W        W43982  13.280   6.552   4.360  0.1081 -0.1978 -0.2333
27135W        W43983   7.775   6.457  15.879  0.0318  0.2526  0.0573
27136W        W43984  10.713   5.644  16.050 -0.1377 -0.1020  0.0280
27137W        W43985  11.457   9.868  14.342  0.1299  0.3183 -0.0426
27138W        W43986   9.198   0.402   4.342  0.1280  0.1265  0.1509
27139W        W43987   4.649  14.850  12.066  0.0129 -0.2105  0.1823
27140W        W43988  10.175   1.278   0.380 -0.2089  0.1579 -0.0878
27141W        W43989   8.659   2.639  15.419  0.0970  0.0821  0.0647
27142W        W43990   1.362  10.388   4.751 -0.0838  0.0529  0.2481
27143W        W43991  14.184  14.173  14.794 -0.1673 -0.4834 -0.0051
27144W        W43992   9.321  12.535   2.431 -0.0026 -0.0143 -0.1692
27145W        W43993  10.131  13.875   1.500 -0.0103 -0.0656  0.1881
27146W        W43994   7.907   8.840   3.135 -0.0685 -0.3105  0.1197
27147W        W43995   4.450   5.222   3.167  0.5851 -0.0501 -0.1692
27148W        W43996   5.786   3.339   5.645 -0.0568  0.2281 -0.0074
27149W        W43997   9.152  14.763  13.442  0.0406  0.0670  0.0616
27150W        W43998  15.511   5.778   5.354 -0.1569  0.2693  0.0705
27151W        W43999   6.943   4.491   2.768 -0.2232 -0.1203  0.1102
27152W        W44000   2.768  15.414   2.542  0.1255 -0.1430  0.1365
27153W        W44001  17.752  17.486   4.042 -0.1658 -0.0698 -0.3069
27154W        W44002   0.293   6.226  12.914 -0.0567 -0.1998  0.1533
27155W        W44003   7.808   9.562   5.108 -0.2204 -0.0111 -0.1756
27156W        W44004  11.216  14.028  11.805  0.1648 -0.2399  0.0059
27157W        W44005  10.057   3.436   2.945  0.0333  0.0798  0.4200
27158W        W44006   4.918  11.970  10.484  0.2163  0.3957 -0.1064
27159W        W44007  14.254  12.626   1.675  0.1952 -0.3723 -0.2101
27160W        W44008  11.468  15.443  14.391  0.1088 -0.0794 -0.0005
27161W        W44009   5.379   6.345  16.099 -0.1409  0.0862  0.0866
27162W        W44010  14.496  12.457  12.331 -0.0250 -0.0449 -0.2162
27163W        W44011   4.177   4.820   2.394 -0.1491  0.3469 -0.1987
27164W        W44012  15.158   6.072  12.701 -0.2881  0.3412 -0.0553
27165W        W44013  15.132  15.445   2.969  0.0978 -0.2314  0.0100
27166W        W44014   0.870   7.928   3.035 -0.0814  0.0281 -0.0813
27167W        W44015  11.996  10.869  14.635 -0.2599 -0.0039 -0.0808
27168W        W44016   8.665   7.166   2.148  0.2665 -0.0319 -0.0634
27169W        W44017   6.127   0.581   3.438  0.3160  0.1697 -0.0772
27170W        W44018   4.821  16.554   3.203 -0.0210 -0.1636  0.0999
27171W        W44019  15.638  17.422   2.886  0.0206  0.0073 -0.0102
27172W        W44020   1.155  15.620   3.381 -0.2294  0.1795  0.1154
27173W        W44021  12.794   3.910   2.604 -0.5115 -0.1235  0.0111
27174W        W44022  16.879  15.976   3.374  0.1040 -0.0406 -0.0187
27175W        W44023  10.278  14.781  11.869 -0.1281 -0.1882  0.0541
27176W        W44024  12.971  16.364  16.044 -0.1536 -0.0800  0.1936
27177W        W44025   2.858   2.961  12.221 -0.2884 -0.1176  0.1850
27178W        W44026   2.772   8.110  14.999 -0.4653 -0.0883 -0.0944
27179W        W44027   5.516  10.295   0.955 -0.0510  0.4085  0.0749
27180W        W44028   0.335   6.728  15.573 -0.1229 -0.2510 -0.3803
27181W        W44029  17.537  11.451  15.079 -0.1846 -0.0319  0.0460
27182W        W44030  10.980   6.091  11.833  0.0318 -0.1445  0.4069
27183W        W44031   8.602  16.505  14.522 -0.4470  0.2947 -0.0480
27184W        W44032   1.196  17.742   2.122 -0.0961  0.0517 -0.0171
27185W        W44033   2.307   2.472  13.967  0.0884  0.1404  0.3012
27186W        W44034  10.634   1.829   0.268 -0.2677  0.1920  0.2539
27187W        W44035  10.551   1.270   2.239  0.1460 -0.0502  0.1114
27188W        W44036   9.260  11.104  14.910  0.0175 -0.0372  0.0071
27189W        W44037   6.430   3.238  12.135 -0.3027 -0.1400  0.1391
27190W        W44038  13.765   3.762   2.154  0.2074 -0.1230  0.1021
27191W        W44039  13.144   1.027  13.547  0.0563 -0.2919  0.2282
27192W        W44040   7.567   1.651   2.814  0.4258 -0.0449 -0.0126
27193W        W44041  16.126   9.956  14.116  0.0311 -0.1743  0.0346
27194W        W44042  16.504   1.345   4.176  0.1566  0.0930 -0.1270
27195W        W44043  10.149   5.408   2.448  0.2179  0.0400  0.0542
27196W        W44044   2.598   7.971   4.019  0.1926  0.0269 -0.1150
27197W        W44045   0.832   5.064  15.292  0.0296 -0.0497 -0.0261
27198W        W44046   7.988   8.179   4.834  0.2610 -0.2385 -0.0071
27199W        W44047   9.057   6.676  12.172  0.1733  0.1723  0.4181
27200W        W44048  17.123   7.437   4.202 -0.0447 -0.0342  0.1645
27201W        W44049   3.839   9.774   0.738 -0.0724 -0.0575  0.3764
27202W        W44050   4.155  11.442  12.973 -0.0876 -0.2823 -0.0514
27203W        W44051  15.999  11.156   1.288  0.0605  0.4298 -0.1429
27204W        W44052  11.691   8.905  12.329  0.0080 -0.0539  0.2068
27205W        W44053   0.088  17.272  11.653 -0.0707  0.3944  0.1090
27206W        W44054   6.622  10.717   1.235 -0.2759  0.0325  0.2875
27207W        W44055   1.050  15.314  12.022 -0.0904 -0.0069  0.2247
27208W        W44056  14.425   7.940   2.037  0.0037  0.1221 -0.2951
27209W        W44057   1.584  12.789   5.603 -0.2793 -0.3363 -0.1575
27210W        W44058  10.490   4.358  14.058 -0.0060 -0.2252  0.0667
27211W        W44059  17.711  11.240   0.834  0.3775 -0.2900 -0.0943
27212W        W44060   6.015  14.024   0.772  0.1845 -0.4941  0.0879
27213W        W44061  11.556   8.609  12.749  0.1259 -0.0504  0.0990
27214W        W44062   2.073  10.747  15.934  0.2630 -0.1253 -0.0822
27215W        W44063   7.891   8.639   4.633 -0.1881 -0.0768 -0.3358
27216W        W44064  15.979   4.517  12.838 -0.0225  0.1718  0.1974
27217W        W44065  16.678  13.852  11.494 -0.0235  0.0006 -0.1796
27218W        W44066   4.689   3.914  15.125  0.1163  0.2487 -0.2597
27219W        W44067  14.875  18.190  14.519  0.1432 -0.1490 -0.0933
27220W        W44068  11.315  11.096  13.630  0.0943 -0.0299  0.2829
27221W        W44069  13.689  17.560  13.229 -0.1741  0.0797  0.0770
27222W        W44070  16.371   6.065  12.430 -0.0379 -0.1677  0.0307
27223W        W44071   2.259   3.927   2.697  0.3991  0.1011 -0.4160
27224W        W44072  14.428   6.492  14.469 -0.3323 -0.0304  0.1537
27225W        W44073   5.623  12.122   1.883 -0.0564 -0.0751 -0.1030
27226W        W44074  16.618  11.075  10.662 -0.2296 -0.3597 -0.0709
27227W        W44075   7.669   4.349  13.073  0.2175  0.0111 -0.2214
27228W        W44076  12.635  12.222  15.131  0.0674 -0.2352  0.1355
27229W        W44077  17.897  16.046   0.283  0.0298  0.0047  0.0038
27230W        W44078  13.496  11.236  14.381  0.0832  0.0724  0.4135
27231W        W44079   2.187   0.713   1.847 -0.0320  0.0185 -0.0088
27232W        W44080  16.155   6.600   1.428  0.1309 -0.0572 -0.1695
27233W        W44081  10.319  16.025  15.880 -0.1395 -0.0678  0.1969
27234W        W44082   7.740   0.826   4.693 -0.0114  0.1080 -0.2845
27235W        W44083  10.452  12.239  12.413 -0.2492  0.1111 -0.1811
27236W        W44084   2.531  14.047   2.234  0.1514  0.0330 -0.0781
27237W        W44085   8.006   1.637  11.946  0.2007  0.5118 -0.1356
27238W        W44086   1.397  15.104  15.423  0.0900 -0.1412 -0.0511
27239W        W44087  11.796   5.903   3.541  0.0531  0.2485  0.0851
27240W        W44088  15.053   5.269  14.740 -0.0668  0.0331  0.2403
27241W        W44089  10.525  13.544  15.192 -0.0674  0.2280  0.1716
27242W        W44090  16.568   9.642   2.371  0.0251 -0.1644  0.0882
27243W        W44091  16.350   0.441   5.791  0.3736 -0.0676 -0.0391
27244W        W44092   7.315   4.429  11.123 -0.0061  0.1295 -0.0834
27245W        W44093  14.704   7.918  14.522 -0.1061 -0.1731 -0.0079
27246W        W44094  13.739   4.720  15.164  0.4447  0.1116  0.0521
27247W        W44095   1.201   3.580  13.418  0.0607  0.0494 -0.3131
27248W        W44096   6.707   5.444   3.281 -0.0610 -0.1877 -0.2367
27249W        W44097  12.584   2.001   4.405 -0.2579 -0.1238  0.2649
27250W        W44098  13.373   5.723  11.278 -0.0294 -0.1871 -0.3206
27251W        W44099   7.435  17.081  13.318  0.4466 -0.0659 -0.0100
27252W        W44100  16.243   8.220   2.731 -0.0306 -0.1793  0.1616
27253W        W44101  12.158   5.223   0.881  0.0214 -0.1698  0.1601
27254W        W44102   5.558  17.554   0.651 -0.0715  0.0025  0.1915
27255W        W44103   6.844  13.802   4.369  0.0131 -0.1326  0.1230
27256W        W44104   9.769  14.642   3.558  0.1578  0.2321  0.3170
27257W        W44105   6.272  10.992   1.048  0.1865  0.4621 -0.3298
27258W        W44106   0.903  17.412  10.824 -0.1376 -0.4711 -0.1000
27259W        W44107  11.892   4.163  13.700  0.2785  0.0161 -0.4736
27260W        W44108  10.007  16.735   3.905 -0.0169  0.3604 -0.2560
27261W        W44109   1.080  14.750   2.483  0.0303 -0.2403  0.0861
27262W        W44110  16.195   7.479   0.489  0.0783 -0.0883 -0.0023
27263W        W44111  15.580  13.840  12.478  0.1897  0.3341  0.0766
27264W        W44112   0.086   7.506  16.096 -0.0540  0.3038 -0.1830
27265W        W44113   0.161   7.507  11.329 -0.1549 -0.2109 -0.0322
27266W        W44114   7.927   4.083  13.421  0.1371 -0.0414  0.2120
27267W        W44115  16.787  17.618  12.401  0.1147 -0.2130 -0.1577
27268W        W44116   7.011   8.597  12.289 -0.0027 -0.2578 -0.1769
27269W        W44117  12.934  10.049  14.776  0.1103  0.1239  0.1368
27270W        W44118   1.671   5.091  15.168 -0.1429 -0.2370 -0.0243
27271W        W44119   9.289   6.653  12.587  0.2425  0.2244  0.2051
27272W        W44120   3.653   0.189   1.942  0.2874 -0.1109 -0.2696
27273W        W44121  11.948   6.931   6.022  0.1957 -0.0747 -0.1593
27274W        W44122  12.080   5.104   2.708 -0.0689 -0.1694  0.2203
27275W        W44123   0.634  11.533  13.136  0.2888  0.0749  0.0172
27276W        W44124  15.072   0.375  14.851 -0.0088 -0.1443  0.0078
27277W        W44125  13.498  16.176  13.274  0.0662  0.1701  0.0566
27278W        W44126  11.412  15.817  14.066  0.0075 -0.1236 -0.1559
27279W        W44127  10.254  17.077  13.204  0.1490 -0.3750 -0.1054
27280W        W44128  10.404  10.176   4.570  0.0560 -0.0258 -0.0543
27281W        W44129   2.345  13.698   3.670 -0.0807  0.0545  0.3800
27282W        W44130  12.184  10.878   4.434 -0.1668 -0.4218 -0.2842
27283W        W44131  10.180   9.990   3.625  0.0554 -0.0731 -0.0088
27284W        W44132   2.984  12.410  11.485  0.1752  0.1328  0.0278
27285W        W44133  10.562   6.379   0.487  0.3346 -0.0043 -0.4065
27286W        W44134   7.270  14.225  15.901  0.2456 -0.1109  0.0114
27287W        W44135  11.126   6.951   5.080  0.0101  0.0335  0.0428
27288W        W44136  13.451   3.391   2.915  0.0468 -0.1431  0.2913
27289W        W44137   5.171  15.365  11.526  0.0214 -0.0962 -0.1995
27290W        W44138   2.707   9.787  12.514  0.0662 -0.0268  0.1021
27291W        W44139   5.452   3.466   2.084 -0.2187 -0.1504 -0.2857
27292W        W44140  16.351  17.354   9.937  0.2480  0.0693 -0.0720
27293W        W44141  10.629   2.024  11.189  0.2600 -0.0289  0.0307
27294W        W44142   8.054  16.584  13.848  0.0592 -0.0889 -0.1464
27295W        W44143  17.847   9.042   4.465 -0.2604  0.2050  0.2643
27296W        W44144   6.661  10.375  11.321  0.5584  0.0063  0.3326
27297W        W44145   1.402  15.403   4.946  0.0542 -0.2543  0.1430
27298W        W44146  13.816   3.623  13.967 -0.0904  0.2323  0.0912
27299W        W44147   8.744   4.915   4.917  0.1813  0.2535  0.1116
27300W        W44148   2.693   8.766   5.397  0.0780  0.0455 -0.2448
27301W        W44149   0.746  14.826  14.319 -0.0644  0.1877 -0.0219
27302W        W44150  14.760  12.914   0.265 -0.1877 -0.1656  0.1677
27303W        W44151   4.274   8.475   2.920 -0.0720 -0.2216  0.0904
27304W        W44152  17.934  14.384   3.664 -0.0493  0.1596  0.0093
27305W        W44153   6.394  10.939  13.929 -0.0464  0.1450 -0.2976
27306W        W44154   7.318   1.431   1.238  0.0230 -0.2826  0.0442
27307W        W44155  13.847   9.408   5.190 -0.2002 -0.2300  0.1477
27308W        W44156   5.657  11.473   1.471  0.0122 -0.0183 -0.1032
27309W        W44157  17.439  16.089   0.182  0.4052 -0.0533  0.1621
27310W        W44158  11.814   6.859  13.952  0.0111 -0.1566 -0.1971
27311W        W44159  13.232   3.964   2.349  0.0989  0.2739 -0.2155
27312W        W44160  15.632  14.719  14.069 -0.0103 -0.0536 -0.1221
27313W        W44161   1.278   1.896  11.149 -0.0079 -0.1093 -0.3129
27314W        W44162  10.099  15.983  11.343 -0.2356 -0.0518  0.0496
27315W        W44163   3.219  12.441  13.585 -0.1244 -0.0816 -0.0814
27316W        W44164   8.881  12.429   0.487 -0.2944 -0.1604  0.0376
27317W        W44165  11.808   2.275   2.019 -0.0755  0.1232  0.1586
27318W        W44166  17.244  17.225   4.336  0.1110 -0.0267  0.2480
27319W        W44167   2.742   9.171   0.031 -0.1474 -0.1984 -0.0473
27320W        W44168  12.973   4.220  11.180 -0.1071  0.0679  0.0813
27321W        W44169  13.017   8.674  13.237 -0.4110  0.0715  0.3084
27322W        W44170  16.683  10.857  13.290  0.4676  0.1991  0.1720
27323W        W44171  18.021   1.571  10.281  0.2783  0.1104 -0.1567
27324W        W44172   8.782   5.812  12.378 -0.0444  0.0071  0.2204
27325W        W44173  12.967   9.290   1.171  0.0912  0.0477 -0.2866
27326W        W44174  10.907  13.392   4.973  0.0510 -0.0275  0.1962
27327W        W44175   3.436  15.805  15.775 -0.1987 -0.0173  0.2657
27328W        W44176  17.644   8.277  15.535  0.0959 -0.1286 -0.0965
27329W        W44177  11.330   9.607   0.701 -0.1740 -0.0877 -0.2899
27330W        W44178   3.461  12.405  14.319 -0.2097  0.4539 -0.0977
27331W        W44179   8.696   7.459  14.394  0.1015 -0.3755 -0.2700
27332W        W44180   9.452  14.627  15.469  0.2942  0.0154 -0.1497
27333W        W44181   7.132  10.845   4.025 -0.3715 -0.2627 -0.2081
27334W        W44182   2.506  13.707  11.792  0.1563  0.1107  0.1299
27335W        W44183  11.640  16.609  12.011  0.3116  0.0655 -0.2603
27336W        W44184   8.253  13.312   1.875 -0.3089  0.2224 -0.0019
27337W        W44185  11.477   7.650  13.048 -0.0426 -0.0172 -0.2183
27338W        W44186   2.844  10.373   4.171  0.1407 -0.2922 -0.0696
27339W        W44187  10.619  17.894   3.333  0.0006  0.0471  0.3098
27340W        W44188  16.604  11.519  16.072 -0.0329 -0.1249  0.1507
27341W        W44189  15.610   7.486   5.260 -0.4453  0.2702 -0.2481
27342W        W44190  17.136   9.009  15.294  0.1729  0.1436  0.1480
27343W        W44191  11.955  10.716   2.020  0.0560  0.1403 -0.3374
27344W        W44192   4.209   2.229   0.046  0.0044 -0.0867  0.0157
27345W        W44193  11.001  10.898  15.125  0.2897  0.2684 -0.0482
27346W        W44194   3.705  16.221  12.867  0.0950 -0.1433 -0.6578
27347W        W44195   2.558   8.508  12.766  0.0834  0.0055 -0.0141
27348W        W44196   1.155   1.400  13.898 -0.1771 -0.1021  0.0151
27349W        W44197  16.682   8.838   0.405  0.2734  0.1611 -0.2198
27350W        W44198   8.206   0.426   4.796  0.0379 -0.3104 -0.0458
27351W        W44199  14.181   8.571   1.469 -0.1878 -0.1113 -0.1367
27352W        W44200  11.337  16.369   2.117  0.2144 -0.0575  0.1161
27353W        W44201  12.379   1.172   3.592 -0.0926 -0.1528 -0.3565
27354W        W44202  17.893  13.930   1.776 -0.0699  0.2308  0.2404
27355W        W44203  11.333   4.452   1.858 -0.1929 -0.0564 -0.1966
27356W        W44204  13.430  15.249   1.024  0.1544 -0.0119 -0.0830
27357W        W44205  11.033  10.051   4.931  0.1382  0.0666 -0.1211
27358W        W44206   8.106  16.334   3.647 -0.4226 -0.1524  0.0156
27359W        W44207   8.855  17.736  10.679  0.2974  0.0318 -0.0654
27360W        W44208   1.102   4.725   1.541 -0.3862 -0.0845  0.0191
27361W        W44209   7.383  17.090  12.750 -0.0194  0.1938 -0.3388
27362W        W44210  11.007  17.767   5.973  0.0569 -0.1830  0.0707
27363W        W44211   6.567   5.461  14.624 -0.0502 -0.1975 -0.4316
27364W        W44212  14.217   6.666   3.444 -0.4019  0.1569  0.3585
27365W        W44213  17.321  15.664   3.355 -0.2971  0.3323  0.0184
27366W        W44214   0.425   6.617  14.011  0.0090 -0.1313  0.0734
27367W        W44215  10.160   9.578   2.156  0.1907 -0.4279  0.2533
27368W        W44216  12.906   9.258   3.548 -0.0315 -0.1407  0.3359
27369W        W44217   1.762   1.616   1.672  0.0077  0.1396 -0.0071
27370W        W44218  10.773  13.346   2.261 -0.1136 -0.1540  0.3894
27371W        W44219   8.811   2.872   4.544  0.4130 -0.3389  0.0679
27372W        W44220   1.958   7.946  12.903 -0.2264  0.0849 -0.1962
27373W        W44221  15.576   6.016  14.131 -0.3397 -0.0016  0.0568
27374W        W44222   8.162  16.412  11.256  0.0910  0.1998  0.1998
27375W        W44223   7.551   9.895   4.803 -0.0012  0.3396 -0.0011
27376W        W44224  13.414  14.697  14.126  0.4190 -0.2262  0.0945
27377W        W44225   5.849  13.955  14.032 -0.0828 -0.4935  0.1389
27378W        W44226   2.182   4.826  11.505 -0.2032  0.0051 -0.1573
27379W        W44227  17.172   2.442   4.453  0.0861 -0.2037 -0.0993
27380W        W44228   5.302   9.803   4.232 -0.0552 -0.2479 -0.0641
27381W        W44229   8.363  16.626  15.476 -0.1427 -0.3674 -0.1049
27382W        W44230  10.860  16.325   3.689  0.2136  0.0584  0.1596
27383W        W44231   1.946   3.500  11.105 -0.2450 -0.0966  0.1648
27384W        W44232   8.543   3.685  15.540  0.1743  0.0603  0.1765
27385W        W44233  17.908   0.669  14.607  0.3531  0.0908  0.0133
27386W        W44234   0.125  16.702   0.912 -0.0701 -0.0795  0.0860
27387W        W44235  13.162  16.522  13.588  0.0900  0.0832 -0.2857
27388W        W44236   8.451  13.738   0.925 -0.0705  0.0282 -0.0808
27389W        W44237  15.791  11.898   1.518  0.0090  0.1226 -0.2274
27390W        W44238   5.050   6.332   1.440  0.1018 -0.0425  0.1043
27391W        W44239  13.064  14.237  15.385  0.1191  0.6694 -0.0717
27392W        W44240  12.230   2.432   2.175  0.0158 -0.1395 -0.1253
27393W        W44241   2.252   6.221   1.167 -0.2078  0.1168 -0.1533
27394W        W44242  10.894  11.985   4.628  0.3263  0.0683 -0.1000
27395W        W44243   2.113  14.781   0.370 -0.0637 -0.0783  0.0381
27396W        W44244   8.061  14.383   2.459  0.1567 -0.2899  0.2061
27397W        W44245   9.698   2.860  14.322 -0.1882  0.0454 -0.0393
27398W        W44246  11.449  15.729  11.576 -0.0188  0.0101  0.0496
27399W        W44247  16.636   9.204  11.003 -0.0899  0.3905 -0.0134
27400W        W44248   2.943  17.431  11.819  0.0182 -0.1630 -0.2640
27401W        W44249   2.416  10.507  11.169  0.0112 -0.0427 -0.3266
27402W        W44250  14.004  10.953  15.644  0.3471  0.0460 -0.1692
27403W        W44251  16.766   4.134   5.447  0.1548 -0.3120 -0.0784
27404W        W44252  15.431   8.876   1.669 -0.0722  0.1655  0.0775
27405W        W44253  11.857   6.945  12.891  0.2127 -0.4887  0.1628
27406W        W44254  14.959   5.212   3.303 -0.1401 -0.2605  0.0971
27407W        W44255  11.453   7.979  15.912 -0.0155  0.2011 -0.0871
27408W        W44256  15.368  10.917  14.253 -0.0046  0.0199 -0.0847
27409W        W44257   0.830   5.103  11.315  0.0351 -0.2109 -0.1373
27410W        W44258  13.869   1.914   2.156  0.0221  0.2302  0.3023
27411W        W44259   4.562  15.163  15.278  0.4187 -0.1001  0.0144
27412W        W44260   7.518  12.817   2.988 -0.1538 -0.0296 -0.1936
27413W        W44261  13.585   6.944   2.015  0.1409  0.1324  0.0277
27414W        W44262   8.757   9.847   5.374 -0.0438 -0.1462  0.1958
27415W        W44263   0.952   5.143  12.334 -0.1388 -0.1338  0.3539
27416W        W44264   6.695  16.739   3.401 -0.0082  0.0579  0.0404
27417W        W44265  13.149   4.995  14.314  0.0390 -0.2198  0.0985
27418W        W44266   3.600  14.073   4.205  0.0894  0.3639 -0.1142
27419W        W44267  12.914  13.253   5.513  0.0442 -0.0245 -0.3039
27420W        W44268   8.685   6.246  13.072 -0.0925 -0.0992 -0.1006
27421W        W44269   4.592   1.927   0.880 -0.2160 -0.2216 -0.0241
27422W        W44270  16.026   2.051   3.128  0.1894  0.1572  0.0573
27423W        W44271   2.640   1.759   0.155  0.2236  0.0952 -0.1114
27424W        W44272  18.197   6.655   2.453  0.1776 -0.0084 -0.0501
27425W        W44273   9.803   3.736  14.984  0.1181 -0.2306  0.0188
27426W        W44274   6.576   4.078  14.571  0.1965  0.3631 -0.2346
27427W        W44275  12.772  13.361  13.789  0.3439  0.2139  0.2321
27428W        W44276  11.982  15.776   2.844  0.1548  0.1121 -0.3607
27429W        W44277   0.949  10.100   3.147 -0.3384 -0.0456 -0.1126
27430W        W44278   2.342  17.581  10.478  0.0453 -0.1756 -0.3519
27431W        W44279   3.464  14.036  12.400 -0.4276 -0.5136  0.0902
27432W        W44280   4.206  11.048   0.029  0.2962  0.0325  0.5579
27433W        W44281   4.297   4.809  13.796 -0.2144  0.0365  0.2383
27434W        W44282  13.117   9.016  15.297 -0.1562 -0.2218  0.2019
27435W        W44283  11.004   6.629  15.873 -0.3275  0.0880  0.0290
27436W        W44284   1.663   1.395   1.133 -0.2341 -0.2485 -0.0411
27437W        W44285  10.961   4.018   0.917  0.0101  0.0074 -0.1198
27438W        W44286   8.082   1.237  14.182 -0.0400  0.1425  0.0692
27439W        W44287  10.538  16.494  10.928  0.0629  0.0380 -0.1001
27440W        W44288   7.591   1.949  14.489 -0.1403 -0.1193  0.0513
27441W        W44289  10.664  13.977   4.092  0.0424 -0.3000  0.0696
27442W        W44290   0.667  13.506  12.240  0.0120 -0.1921  0.1944
27443W        W44291  13.600   3.663  12.723  0.0186 -0.0455 -0.0624
27444W        W44292   1.881  12.481  16.074 -0.0497  0.0268 -0.3220
27445W        W44293  10.902  11.639  12.752 -0.0450 -0.0754 -0.3225
27446W        W44294  16.897   7.087   1.102  0.1073 -0.0389 -0.1623
27447W        W44295   6.256  11.527   0.850 -0.1692 -0.0880 -0.0181
27448W        W44296   6.924   9.136  15.758  0.3060  0.0021 -0.0074
27449W        W44297   7.448  12.223  10.337 -0.2129  0.2121 -0.1060
27450W        W44298   9.942  15.492   4.596 -0.0004  0.0839  0.0118
27451W        W44299  15.419   6.201   0.767 -0.3616 -0.0037  0.1657
27452W        W44300  10.517   9.292  15.101  0.4984  0.1714 -0.2419
27453W        W44301  10.185   4.131  13.028 -0.1168  0.1935  0.0350
27454W        W44302   3.679  13.122  15.726  0.2355  0.1138 -0.0328
27455W        W44303   7.467   2.869  15.961  0.1587  0.0441 -0.2278
27456W        W44304   8.268  12.384  11.318  0.1847 -0.0097  0.1298
27457W        W44305  11.248  15.894  14.605  0.1376 -0.0273  0.0694
27458W        W44306   6.356  12.952   0.995  0.0656  0.3624 -0.0946
27459W        W44307  13.575  15.696   1.098 -0.0139 -0.2369  0.1540
27460W        W44308   7.865   2.071  12.941 -0.2573 -0.0403 -0.1091
27461W        W44309   6.596   0.358  13.441 -0.1218  0.0197 -0.1050
27462W        W44310   0.231  13.054  10.880  0.0638  0.1777 -0.0057
27463W        W44311   7.299   0.583   4.396  0.1362 -0.1233 -0.1160
27464W        W44312  16.803   4.693   2.163 -0.3950 -0.0956  0.0489
27465W        W44313   4.741   8.624  13.788 -0.0160 -0.0156  0.4463
27466W        W44314   9.302   5.790  13.870 -0.0409  0.1503  0.4171
27467W        W44315   9.240   0.331  12.961  0.1638 -0.1234  0.0499
27468W        W44316   0.788  10.361   4.054  0.0870 -0.0697  0.1088
27469W        W44317  15.263   5.387  15.440  0.0289  0.1752 -0.1442
27470W        W44318   7.459   4.130   1.652  0.2350 -0.0200 -0.1674
27471W        W44319  14.452   7.232   5.100 -0.0042 -0.0404  0.3568
27472W        W44320  17.104  11.644   3.652 -0.1696 -0.0702  0.0081
27473W        W44321  17.646  17.549  10.982 -0.2560  0.1183 -0.0128
27474W        W44322  10.372   2.778   2.012 -0.1587  0.2705 -0.0163
27475W        W44323  14.080   4.319   0.720 -0.2241 -0.1140 -0.1089
27476W        W44324  15.184   7.779  14.712 -0.1802  0.1823 -0.0802
27477W        W44325  10.816  14.418  14.084 -0.3134  0.1248  0.1431
27478W        W44326   9.437  16.378   2.328  0.0619  0.2692  0.0252
27479W        W44327  17.622   0.343   1.432  0.0247 -0.1164 -0.0683
27480W        W44328   4.896  13.109   0.960  0.2045  0.0445 -0.1173
27481W        W44329  13.298   2.963  11.052  0.2226  0.0288  0.1357
27482W        W44330   6.340   8.513   2.375  0.0105  0.1324  0.0192
27483W        W44331  16.108  14.721  14.490 -0.1756  0.1405 -0.0782
27484W        W44332  10.509  12.487  10.484 -0.0895  0.2459  0.1145
27485W        W44333  16.032   7.199   2.345  0.0781 -0.1639 -0.0450
27486W        W44334  10.308   2.980   2.772 -0.0921 -0.0992 -0.2020
27487W        W44335   4.780   0.159  11.845 -0.0869  0.2164 -0.0316
27488W        W44336   3.217   2.647  11.161 -0.2892  0.0081 -0.0973
27489W        W44337  16.273   8.997  14.392  0.2452  0.4022 -0.3750
27490W        W44338  12.073   3.799  13.426  0.1046 -0.2437  0.0252
27491W        W44339  12.710  16.905   1.594 -0.4523 -0.1137  0.3452
27492W        W44340   0.811  13.644  16.027 -0.0059  0.1532 -0.4059
27493W        W44341  17.619   2.854  12.388  0.1226 -0.0871  0.4119
27494W        W44342   6.813  16.246  12.105  0.0291  0.0949  0.3611
27495W        W44343  14.362  14.776   1.960 -0.0795 -0.1057 -0.0501
27496W        W44344  13.254  13.825   4.118  0.0413 -0.2331  0.2928
27497W        W44345  16.932   9.973  15.072  0.0319  0.0765  0.0502
27498W        W44346  17.121  10.568  14.859  0.1269  0.1808  0.2342
27499W        W44347  15.558  10.936  14.923  0.2041  0.3138  0.3202
27500W        W44348  15.256   3.002   2.949  0.0909  0.1748 -0.2887
27501W        W44349   3.766   8.192   0.389 -0.1680  0.0930 -0.0497
27502W        W44350   9.522   1.560   1.372 -0.0329  0.3722 -0.0501
27503W        W44351   4.081  10.794   3.022 -0.1495 -0.1220 -0.2064
27504W        W44352   0.104   3.304   0.120  0.2298  0.3047  0.2714
27505W        W44353  18.056  11.009   3.609  0.0326 -0.0523 -0.1400
27506W        W44354   7.607   2.453   0.738 -0.2539 -0.0737 -0.1268
27507W        W44355   6.023   4.174   1.880  0.0922 -0.1465  0.0282
27508W        W44356  17.062  12.993  11.958 -0.0261  0.4764  0.3974
27509W        W44357   0.244  13.616   4.897 -0.1881 -0.0246  0.0553
27510W        W44358   8.044  18.020   4.896 -0.0916  0.3227  0.2536
27511W        W44359   0.856   2.313  10.634  0.3155  0.1764  0.0132
27512W        W44360  15.727  13.911   1.865  0.2335  0.0525  0.0925
27513W        W44361  16.334  15.055  13.534 -0.1069  0.2866  0.0076
27514W        W44362  14.061  17.500   0.628 -0.0380  0.1639  0.0710
27515W        W44363   3.867   8.398  15.541 -0.1089 -0.2415  0.3615
27516W        W44364   1.958   3.007  12.777  0.0444 -0.2696  0.3490
27517W        W44365   6.381  10.743  14.930 -0.1633 -0.1373  0.3604
27518W        W44366  15.002  13.206  16.029 -0.2346  0.2253 -0.0082
27519W        W44367   0.634   9.937   2.371  0.2847  0.0396  0.0974
27520W        W44368  15.687  12.215  15.368 -0.0576  0.1009 -0.0365
27521W        W44369   1.125  13.500  11.769 -0.1650  0.0010  0.1174
27522W        W44370  14.936   7.292   4.985 -0.0568 -0.0983 -0.0377
27523W        W44371   0.901   8.085   3.538  0.0440 -0.2670  0.2678
27524W        W44372   3.234   8.639   1.188 -0.0921  0.1023  0.4109
27525W        W44373  10.471   5.728   3.321 -0.1402  0.0229  0.1850
27526W        W44374   1.318   2.434  13.915  0.0725  0.2154 -0.0088
27527W        W44375   3.550   4.304   0.866  0.0764 -0.0988 -0.1515
27528W        W44376   1.968   7.767  13.414 -0.1475 -0.2321  0.2148
27529W        W44377   3.534  16.323   0.198  0.0244  0.1684 -0.0815
27530W        W44378  11.941  10.731  11.983 -0.3197  0.1609  0.1947
27531W        W44379  13.828   2.463   1.984  0.3400  0.0585  0.2911
27532W        W44380   4.396   4.250   5.283  0.1650 -0.0376 -0.0611
27533W        W44381   3.066  18.196   4.542 -0.1508 -0.0106 -0.1580
27534W        W44382  12.882   8.757  11.429  0.2364  0.2348  0.0955
27535W        W44383   0.735   3.803  12.312 -0.0994 -0.2258 -0.3310
27536W        W44384   1.396   9.046  12.293  0.3862  0.1521 -0.0365
27537W        W44385   8.901   3.591   5.448 -0.0290 -0.0269 -0.0738
27538W        W44386   2.545   5.164  14.187  0.0206 -0.1286  0.4396
27539W        W44387  17.735   5.171  11.205 -0.2011 -0.2834  0.1207
27540W        W44388   3.785   1.087  13.128 -0.0784 -0.0326 -0.1918
27541W        W44389  17.681   3.874  13.312 -0.3400 -0.3357  0.0144
27542W        W44390   8.138   0.033  11.169 -0.0961 -0.1037  0.2166
27543W        W44391   3.826  14.011   2.938 -0.1608 -0.0492 -0.3248
27544W        W44392  17.425  18.132  14.684 -0.1609  0.2345  0.0398
27545W        W44393   4.721  10.435   2.912  0.0339 -0.0000  0.0176
27546W        W44394  11.484   7.752  11.740 -0.0016 -0.3564  0.0802
27547W        W44395  10.381   3.220   1.773  0.4600 -0.2267  0.1199
27548W        W44396  14.682   7.371   0.398  0.0640 -0.0942 -0.2760
27549W        W44397   2.745  10.074  13.240 -0.0500  0.1947 -0.1866
27550W        W44398   6.258   8.594   2.924 -0.1705  0.0121  0.0909
27551W        W44399   1.153   2.679  11.754  0.2266  0.1534  0.1375
27552W        W44400   9.165   5.284  15.500  0.1190  0.1857  0.2028
27553W        W44401  12.960  10.423   5.168 -0.1033 -0.1738 -0.0095
27554W        W44402   5.325  12.128  11.530 -0.0216 -0.1417 -0.1639
27555W        W44403  13.134   1.384   3.095  0.0372 -0.0263 -0.1151
27556W        W44404  15.777  16.781  11.486  0.1373  0.0996 -0.1071
27557W        W44405  16.575  11.466   1.498  0.0648 -0.1278 -0.1351
27558W        W44406   0.952   1.941   1.181 -0.2869  0.0569 -0.1204
27559W        W44407   9.676   6.023   3.978 -0.0702 -0.0539 -0.0580
27560W        W44408  15.338  17.869   1.423 -0.3208  0.1317  0.3937
27561W        W44409  10.371   3.616   4.009  0.2352  0.0704 -0.1547
27562W        W44410  16.253  14.591   4.653 -0.0971 -0.0704  0.1841
27563W        W44411   5.245  12.710   2.377  0.2268  0.0004 -0.4531
27564W        W44412  14.563  16.407  15.143  0.1983  0.2038 -0.2556
27565W        W44413   7.658   4.223  11.413  0.0634 -0.1454 -0.2447
27566W        W44414   2.138  12.247  15.651  0.2069 -0.0751  0.1859
27567W        W44415   8.685   5.509   6.042  0.0023  0.0710  0.5024
27568W        W44416   1.869  13.135   2.514 -0.1429  0.1489  0.1709
27569W        W44417  14.908  10.023   1.642  0.1248 -0.1694  0.2294
27570W        W44418   3.657  13.167  12.809  0.3137  0.1601  0.0600
27571W        W44419   5.943   5.770  13.988  0.2709 -0.0554 -0.2550
27572W        W44420   0.869   3.655  13.999  0.0209 -0.1554 -0.2944
27573W        W44421  12.178   1.185  14.084  0.3622  0.0106 -0.2139
27574W        W44422  16.593   2.592  12.202 -0.1984  0.0578  0.1927
27575W        W44423  10.627   7.063   1.756 -0.2719 -0.1475  0.2445
27576W        W44424  17.854  13.725  10.916 -0.3747 -0.3549 -0.0304
27577W        W44425   7.831  12.683  15.674 -0.1688 -0.1181  0.1193
27578W        W44426   5.162   8.921   1.725  0.1071  0.2606 -0.0356
27579W        W44427  13.670   3.270  10.963 -0.0426  0.1988  0.0024
27580W        W44428  11.801   3.803   4.302  0.2044  0.1060 -0.2445
27581W        W44429   7.889   4.558  11.709 -0.1408 -0.0605  0.1288
27582W        W44430  11.214  16.252   0.950  0.2940  0.3046  0.1425
27583W        W44431   7.533   9.168   4.769 -0.0125 -0.0816 -0.1635
27584W        W44432   4.128   0.677  14.949  0.2797  0.1112  0.1024
27585W        W44433  17.738  13.631  11.885  0.1497 -0.2484  0.1678
27586W        W44434  13.612   2.588  11.301 -0.0190  0.0899 -0.3812
27587W        W44435   5.511   4.548   0.134 -0.1763  0.1238  0.1269
27588W        W44436   9.989  16.506  14.678  0.0339 -0.1998  0.0760
27589W        W44437  10.273  14.619   3.413 -0.0281 -0.1353  0.1732
27590W        W44438  16.044   9.414  11.453  0.0978 -0.1861  0.0088
27591W        W44439   7.170   8.139   3.003  0.0243  0.1194 -0.1259
27592W        W44440  12.545  10.258   1.089  0.0915 -0.0131  0.0734
27593W        W44441   3.891   2.087  15.783 -0.0867 -0.0108 -0.3678
27594W        W44442  16.178   4.186  10.749  0.0577  0.1930  0.0444
27595W        W44443  10.684   0.023  11.371 -0.0788  0.0050  0.0396
27596W        W44444   1.127  13.260  12.226  0.2457 -0.1331  0.1422
27597W        W44445  12.822  14.292  13.061  0.3562 -0.2278  0.0660
27598W        W44446   7.371  13.519  10.213  0.3723 -0.2411 -0.0352
27599W        W44447   1.556  17.166   1.021  0.1670  0.1836  0.1237
27600W        W44448   6.280   7.936   0.215 -0.3706  0.0265  0.0067
27601W        W44449   0.424   4.945   2.251  0.4351 -0.0543  0.2190
27602W        W44450   5.615  10.304  11.427  0.1298 -0.0312  0.3997
27603W        W44451   7.907  13.994  12.385 -0.1913 -0.1616  0.1994
27604W        W44452   7.678   9.288   0.015  0.0997  0.0091 -0.0968
27605W        W44453  14.325   5.146  12.095 -0.1514 -0.0836 -0.2983
27606W        W44454  17.455  15.185   1.415 -0.0030 -0.2408  0.2688
27607W        W44455   6.108   7.988  15.330 -0.0694  0.1036 -0.1411
27608W        W44456  17.047  17.972  13.359  0.0482  0.2220 -0.0438
27609W        W44457  16.897  17.052  12.221  0.0268 -0.1310 -0.0601
27610W        W44458   8.200  16.937   4.775  0.3235  0.0661  0.0800
27611W        W44459  11.319   2.747   3.244  0.1848  0.4128 -0.1675
27612W        W44460   4.691   8.299   1.368  0.0592  0.2490 -0.1808
27613W        W44461  12.242   7.390   2.494 -0.3571  0.0434 -0.0343
27614W        W44462   5.065   4.222   1.830  0.1160  0.1542 -0.2122
27615W        W44463   2.140   3.113  13.480  0.4672  0.0376 -0.0375
27616W        W44464   0.100   6.461   3.773 -0.3554 -0.0556  0.3833
27617W        W44465  10.715  16.847   1.383 -0.2138 -0.0745 -0.2931
27618W        W44466  14.746   5.436  13.138  0.1651 -0.0405 -0.1941
27619W        W44467  13.356   0.565  15.788 -0.1143  0.4099 -0.1640
27620W        W44468  15.413  10.994   3.516  0.3028 -0.1152 -0.4297
27621W        W44469  14.382  13.795  12.489 -0.0797  0.2253 -0.0033
27622W        W44470   8.057  15.724   5.354 -0.1319 -0.0447 -0.1662
27623W        W44471   4.698  14.158   3.603 -0.3516 -0.1038 -0.1759
27624W        W44472   2.280  12.940  13.459  0.0260 -0.0992  0.1731
27625W        W44473  13.159  17.037   3.733  0.1577  0.0633  0.0049
27626W        W44474   1.428   5.309   4.362 -0.1394  0.2960  0.2212
27627W        W44475   9.524  10.448  13.139  0.1482 -0.1024 -0.1866
27628W        W44476  10.437   1.403  11.185  0.0818  0.1801  0.1779
27629W        W44477  17.469   1.674   3.323 -0.0949 -0.0885  0.0707
27630W        W44478   7.495   8.513   2.304  0.2961 -0.0251 -0.1539
27631W        W44479   4.089  17.470   0.013  0.2750 -0.0815 -0.0707
27632W        W44480  15.500   4.273  12.892 -0.1823  0.0427 -0.1765
27633W        W44481   4.358   8.476  15.084 -0.0216  0.1270 -0.1397
27634W        W44482   3.685  10.524   4.666 -0.0577  0.0277  0.1271
27635W        W44483  14.475  17.250  12.682 -0.1140 -0.1231  0.4501
27636W        W44484   4.401  16.854  12.080  0.0405 -0.1021 -0.2281
27637W        W44485   6.513  10.998   3.093 -0.0539 -0.4136 -0.0753
27638W        W44486  17.148   6.657   1.025 -0.2166  0.1005  0.1868
27639W        W44487   2.788   3.883  13.777  0.1776  0.4856  0.0988
27640W        W44488  11.432   9.616   0.227  0.1607 -0.0800  0.0801
27641W        W44489   2.159  14.678  11.870 -0.3013 -0.0836 -0.0875
27642W        W44490  12.565   0.415   5.282  0.1631  0.0903  0.3668
27643W        W44491   3.831   3.183   2.915  0.2894 -0.1152  0.1644
27644W        W44492   5.589   9.693   2.717  0.0772  0.2643 -0.1023
27645W        W44493   1.962  16.735   2.741 -0.1012 -0.2255  0.3058
27646W        W44494   5.755  17.410   2.604  0.1600 -0.0521 -0.1180
27647W        W44495   2.553   6.736   0.868 -0.1355  0.3398 -0.0007
27648W        W44496   8.133  11.422   3.836 -0.1125  0.0324 -0.0549
27649W        W44497   5.463   0.610  13.993 -0.0116 -0.1582 -0.1797
27650W        W44498   6.357   1.497   0.092 -0.3170 -0.2333  0.1872
27651W        W44499  15.922   4.179  14.820  0.1004 -0.1354  0.1873
27652W        W44500  15.753   3.445  15.901  0.2079 -0.2840  0.0114
27653W        W44501   4.308  13.149   1.320 -0.1977  0.0674  0.5008
27654W        W44502  14.178   7.545   2.227 -0.0575  0.0717  0.2871
27655W        W44503  18.162   1.315   4.600 -0.2303 -0.2762 -0.1750
27656W        W44504  10.867  16.384  12.540 -0.1118  0.3115 -0.1822
27657W        W44505   4.575   6.767  14.603 -0.0528  0.1471  0.0271
27658W        W44506   4.016   9.401  13.683 -0.0225 -0.3673  0.0073
27659W        W44507   4.644  12.617  10.186  0.3812 -0.4261  0.0165
27660W        W44508  15.360  10.301   0.450 -0.0564 -0.0750  0.1349
27661W        W44509   4.027   0.743  11.351 -0.0016  0.3142  0.0858
27662W        W44510  16.733   3.062  12.036 -0.4240  0.1038  0.0875
27663W        W44511   5.020  14.934  14.172  0.1177 -0.0561  0.2716
27664W        W44512  17.488   5.953  15.967 -0.1708 -0.0430  0.0581
27665W        W44513   0.021  18.034  14.423  0.2473  0.0592  0.2206
27666W        W44514  14.651   3.532  13.640  0.0633 -0.0353 -0.2446
27667W        W44515   8.959   6.634   2.162 -0.1951  0.0742 -0.1095
27668W        W44516  12.707  14.336   0.662  0.0332 -0.2549  0.1316
27669W        W44517  15.376   0.104   2.730 -0.1151  0.1743  0.2016
27670W        W44518  10.721  15.897   2.317  0.1532 -0.0084  0.0863
27671W        W44519  15.532  15.713  12.536  0.3610 -0.3113 -0.2821
27672W        W44520  14.379   7.687  13.737  0.3069  0.1522 -0.1773
27673W        W44521  14.395  14.596  16.003  0.1754  0.1455 -0.4753
27674W        W44522  11.191   7.778   3.037  0.2364  0.2908 -0.0234
27675W        W44523  11.830  15.072  11.896  0.2434  0.1777 -0.2285
27676W        W44524   3.350   9.377   3.539 -0.0428 -0.0526  0.2629
27677W        W44525  11.185   4.046  14.904 -0.3609 -0.0693  0.0003
27678W        W44526   8.036   6.971   3.027  0.0008  0.3258  0.1479
27679W        W44527  16.051  13.497   1.433  0.0860 -0.1217 -0.3815
27680W        W44528  10.147  14.786  12.902 -0.0892  0.1033  0.0026
27681W        W44529  17.887   7.213   1.834  0.2515  0.0413  0.3008
27682W        W44530   0.676   3.940   0.042  0.0520  0.1388  0.0898
27683W        W44531  10.587   4.189   5.750 -0.2328  0.4043 -0.0526
27684W        W44532  11.316   8.250   2.968 -0.1020 -0.0929  0.0832
27685W        W44533   2.078   7.056  13.025  0.0224  0.0098 -0.4200
27686W        W44534  15.656   9.961  14.500 -0.1078  0.1602  0.0080
27687W        W44535  15.242   3.878  12.760 -0.2666  0.2963  0.0683
27688W        W44536  13.023  13.839  13.011  0.2794  0.2067 -0.4839
27689W        W44537   9.010  12.211  11.133 -0.0378  0.0189 -0.2386
27690W        W44538   2.300  17.338  12.658 -0.0279  0.1715 -0.6247
27691W        W44539  16.148   3.171  14.466  0.2668 -0.1500  0.0828
27692W        W44540   8.175   1.125   3.633  0.0706  0.0191 -0.0743
27693W        W44541   8.259   9.777   3.151  0.3388  0.3007 -0.3383
27694W        W44542  10.606  17.840  14.966 -0.1889 -0.2492  0.1965
27695W        W44543  11.914   6.635   0.312 -0.3666  0.4435  0.2552
27696W        W44544  10.137  12.444  11.425 -0.1037  0.0553  0.3334
27697W        W44545  14.816   0.786   2.221 -0.0339  0.0887 -0.0869
27698W        W44546  10.727   0.579  11.419  0.1856  0.2126  0.0963
27699W        W44547  17.550   4.031   4.947 -0.2095 -0.3286 -0.4975
27700W        W44548   4.484  14.392  15.836 -0.0646  0.2245 -0.2913
27701W        W44549   8.169  10.150  15.290 -0.0437  0.1779  0.0371
27702W        W44550   8.667   9.972   4.907 -0.0799  0.3076 -0.0090
27703W        W44551   7.366  17.004  15.318  0.2090 -0.1060  0.2694
27704W        W44552   6.529  15.646  11.054 -0.2934 -0.2329 -0.1722
27705W        W44553   1.714   1.156  10.929  0.3147 -0.1309 -0.2408
27706W        W44554   4.339   2.080  12.258 -0.3079 -0.3332  0.0751
27707W        W44555   3.039  11.456   9.956  0.0557 -0.1429  0.1085
27708W        W44556   4.264  16.310  13.322 -0.1517 -0.1352  0.0778
27709W        W44557  12.731  15.914  15.231 -0.0717  0.0418 -0.2219
27710W        W44558   7.705  15.104   4.079 -0.2890 -0.1360 -0.1328
27711W        W44559   8.178  11.843  14.594 -0.1276 -0.0899  0.1182
27712W        W44560  17.679   5.271   0.653 -0.1465 -0.0793  0.1306
27713W        W44561  17.428   2.692  14.168 -0.0113  0.2171 -0.4207
27714W        W44562  13.943   6.003  12.344  0.1356  0.0540 -0.1763
27715W        W44563   6.696   2.816  13.359  0.1296  0.0016 -0.0476
27716W        W44564  15.006   2.798  12.512  0.0210 -0.2151  0.1343
27717W        W44565  12.727  16.188   2.987  0.1472  0.1534  0.2562
27718W        W44566  11.693  13.033   6.166 -0.1011 -0.1263 -0.2182
27719W        W44567   6.832   6.946   2.884  0.0773  0.1377  0.0404
27720W        W44568   8.024  11.190  11.065  0.2129 -0.4306  0.1555
27721W        W44569   0.407  14.885   3.013  0.3793 -0.1611 -0.5358
27722W        W44570  15.275   1.845   4.958 -0.2108 -0.1316  0.1405
27723W        W44571  17.301  10.091  11.405 -0.0432 -0.0901 -0.0805
27724W        W44572   1.380  16.900   1.934  0.3244  0.3104  0.0991
27725W        W44573  16.095   8.937   4.324  0.0479  0.1098 -0.1994
27726W        W44574   4.686  17.912  10.212  0.1045 -0.1375 -0.1683
27727W        W44575   1.373   3.789   4.969  0.0667  0.1087  0.0974
27728W        W44576  17.673   9.373   0.426 -0.0867 -0.3038  0.4634
27729W        W44577  13.512   6.762   5.450 -0.3028  0.2551  0.4718
27730W        W44578  13.239  17.922  13.196  0.0713  0.2910 -0.0895
27731W        W44579   3.915  15.783   5.336 -0.0643  0.3369 -0.1028
27732W        W44580   4.658   1.870  16.120  0.0119  0.2931 -0.0204
27733W        W44581   9.748   9.534  14.523  0.0799 -0.1838  0.2314
27734W        W44582  17.126   2.578  10.659  0.0015 -0.0508  0.7124
27735W        W44583   4.446   7.028  12.033  0.0109 -0.0540  0.1082
27736W        W44584   9.584   8.373   5.129  0.0507 -0.0649  0.0801
27737W        W44585  17.842   8.148  11.149 -0.0387  0.0300 -0.0767
27738W        W44586  10.436  17.745   4.391  0.1895 -0.2903  0.0835
27739W        W44587  15.402   6.246   3.889  0.2540 -0.0952 -0.2717
27740W        W44588  15.648  16.829   3.753  0.0831 -0.3103 -0.1063
27741W        W44589   1.606  16.461  13.702 -0.1832 -0.0336 -0.2119
27742W        W44590   1.487  16.751   1.410 -0.3529 -0.0061 -0.1417
27743W        W44591   4.761  13.936   5.377  0.1679  0.0848  0.1472
27744W        W44592  15.166  17.665   3.658 -0.2300 -0.1018  0.1623
27745W        W44593   9.263  15.290   1.307 -0.0951 -0.0820  0.0753
27746W        W44594   0.878  14.306   2.568  0.0807 -0.0731 -0.1199
27747W        W44595  16.635   5.680  15.313  0.0400  0.3859 -0.2499
27748W        W44596  15.937   7.510   6.344  0.1873  0.0168  0.3134
27749W        W44597   9.782   3.537  15.503 -0.0002 -0.1279  0.0082
27750W        W44598   9.688  17.249  11.364  0.0361  0.1720 -0.2258
27751W        W44599   5.842   8.764   2.680  0.1521 -0.0315  0.1082
27752W        W44600   5.192   8.550   0.409 -0.3294 -0.0624  0.1645
27753W        W44601   8.801  11.026  11.587  0.0967 -0.0111 -0.3563
27754W        W44602   9.646   0.808   1.604  0.2261 -0.2644  0.2165
27755W        W44603   9.583   4.657   2.360 -0.1905 -0.0461  0.0330
27756W        W44604  17.795   2.722  14.584  0.1715  0.2882  0.2551
27757W        W44605  13.535   3.331   2.318  0.1478 -0.0795 -0.0477
27758W        W44606  13.511   4.998   1.596  0.0714  0.1328 -0.4600
27759W        W44607   6.683  10.214   0.086  0.0534  0.3064 -0.0769
27760W        W44608  12.798   1.821  13.704  0.2230 -0.0686  0.2348
27761W        W44609  13.336   7.010  11.692 -0.0514 -0.1088 -0.2311
27762W        W44610   4.807   2.221   4.967  0.1676 -0.0124 -0.0880
27763W        W44611  10.913   0.755   1.190 -0.1541  0.0054  0.4979
27764W        W44612  10.380   0.690  12.414 -0.1700  0.1383 -0.1092
27765W        W44613  13.028   6.006  15.024 -0.0900 -0.0282 -0.0654
27766W        W44614   0.513  10.818   3.768  0.0678  0.1459 -0.1972
27767W        W44615  11.107   7.214   1.298 -0.0207  0.1856 -0.1339
27768W        W44616  17.858   3.506  13.032  0.2030  0.1607 -0.0447
27769W        W44617  17.436   1.033   5.066  0.0178 -0.0050 -0.1654
27770W        W44618  16.373   0.737  11.284 -0.2720 -0.0941  0.1872
27771W        W44619  10.393  13.750   3.712 -0.1214 -0.0398  0.1123
27772W        W44620  11.832   5.964   5.929  0.0737 -0.1942  0.1368
27773W        W44621  13.369  17.048  14.868 -0.1122 -0.0425 -0.1349
27774W        W44622  17.116   2.611  11.174 -0.0324 -0.0937  0.1530
27775W        W44623  16.521  16.034   0.827 -0.1070  0.5295  0.1003
27776W        W44624   5.163   8.409   2.807  0.0982  0.2777  0.0053
27777W        W44625   2.602  11.903  15.501  0.0760  0.1707 -0.1528
27778W        W44626   0.423   3.058  13.403 -0.0982  0.3366 -0.1575
27779W        W44627  10.192  16.811   1.512  0.0129 -0.0779  0.0586
27780W        W44628  15.125   0.719   2.742 -0.0933  0.1513 -0.2701
27781W        W44629   1.942   8.439  11.384  0.0457 -0.3006 -0.0713
27782W        W44630   6.337  14.752  13.893  0.0242  0.0905  0.1190
27783W        W44631   8.836  13.433   1.682  0.0674 -0.2986 -0.3429
27784W        W44632   1.645  12.114   4.499  0.2020 -0.2898 -0.1876
27785W        W44633   8.713   7.997  14.317 -0.2650 -0.0511 -0.0445
27786W        W44634   9.946   6.794   0.202  0.1664  0.0837 -0.0459
27787W        W44635   4.230  15.753   3.952 -0.0316 -0.3454 -0.2586
27788W        W44636   8.548  17.407   5.472  0.0573  0.2469  0.0696
27789W        W44637   2.560   9.358  12.696 -0.1126  0.2489  0.0885
27790W        W44638   0.346   7.565   6.079 -0.2204  0.3504  0.0820
27791W        W44639  10.099   4.086  11.034  0.2554  0.1588 -0.5317
27792W        W44640   8.206  15.589  14.298 -0.0504  0.1331 -0.0757
27793W        W44641   2.942   5.991  10.806 -0.2188  0.1352  0.4008
27794W        W44642  13.935   2.478   1.020 -0.3371 -0.2877 -0.2691
27795W        W44643  15.910   8.985  12.197 -0.1738 -0.0290 -0.1905
27796W        W44644  14.726   7.410   4.084  0.2689  0.0727 -0.1994
27797W        W44645   5.051   5.146  14.960 -0.1650  0.1268  0.1972
27798W        W44646   7.369   3.779  14.671  0.1584  0.3678 -0.3275
27799W        W44647   0.966   2.255   3.078 -0.0092 -0.1034 -0.0113
27800W        W44648   2.285   1.135  15.819  0.0194 -0.1209  0.2025
27801W        W44649   2.413  13.098   4.411  0.0066  0.2316 -0.1397
27802W        W44650   6.634  12.324   1.012 -0.0268 -0.1222 -0.2713
27803W        W44651  10.558   2.943   3.432 -0.0214 -0.1320  0.3625
27804W        W44652   6.232   5.899  12.526  0.5018  0.1916  0.1385
27805W        W44653  15.960  14.867   4.013 -0.0599 -0.2135  0.0670
27806W        W44654   6.059  13.565   3.632  0.1370 -0.1967 -0.4596
27807W        W44655   7.356   2.684   5.022  0.0822 -0.3172  0.1307
27808W        W44656  16.354   2.006  15.388 -0.0726  0.0584  0.0622
27809W        W44657  15.645   4.322   0.340  0.0629  0.4050 -0.1662
27810W        W44658  17.023   2.315   0.098 -0.0180 -0.1551 -0.0387
27811W        W44659  14.132  10.467   3.539  0.0801  0.1866  0.0855
27812W        W44660  15.408   8.151  15.094 -0.0118  0.3162  0.1507
27813W        W44661   9.995   7.260   2.810  0.2772  0.0668  0.0956
27814W        W44662  17.606  11.728   4.802 -0.2299  0.2871 -0.0471
27815W        W44663   8.781  10.944   2.289 -0.0113 -0.1387 -0.1556
27816W        W44664   5.184   8.465   1.388  0.0609  0.0127 -0.1538
27817W        W44665   2.257   3.504  10.679  0.1950 -0.1737  0.0542
27818W        W44666  13.257  10.923  15.498 -0.0672 -0.0982  0.1941
27819W        W44667  15.403   7.489  14.401 -0.1345 -0.0623 -0.3729
27820W        W44668   6.973   1.210   6.339 -0.1706 -0.0319 -0.1183
27821W        W44669  13.188  16.883  14.452  0.0995 -0.0984 -0.0032
27822W        W44670  10.968   4.443  15.029  0.0244  0.0802  0.0408
27823W        W44671   0.733   1.252  13.580  0.3794 -0.3439 -0.0805
27824W        W44672   3.692   6.092  13.944  0.0811  0.0577  0.0185
27825W        W44673  13.123   3.334  13.359 -0.2167 -0.0080  0.0469
27826W        W44674   9.413  17.576   5.100 -0.2837  0.2389  0.0175
27827W        W44675   4.170  17.857   4.765  0.1265  0.0629  0.0241
27828W        W44676  16.437   4.025  11.143  0.0551 -0.2889  0.1554
27829W        W44677  15.763   4.677   4.737 -0.1368  0.0865  0.0077
27830W        W44678   9.418  18.214   1.368  0.2177 -0.1231  0.3836
27831W        W44679  16.778   1.976  13.410  0.0432  0.1355 -0.0619
27832W        W44680   3.401  11.836  15.945  0.1557 -0.1850 -0.4802
27833W        W44681   3.470   0.418   2.427 -0.0095  0.3639 -0.2144
27834W        W44682  16.751   9.991   1.336  0.2528 -0.0110 -0.2343
27835W        W44683  15.904   9.079   5.148 -0.0145  0.0815 -0.1298
27836W        W44684   5.058   2.049  12.830  0.1517  0.0174  0.1759
27837W        W44685   8.976  10.068   0.748  0.1286  0.2816  0.0211
27838W        W44686   0.401   2.232  15.992 -0.1499  0.1406 -0.2846
27839W        W44687   2.590   5.855  13.276  0.1987 -0.2005  0.1478
27840W        W44688   4.442   1.047   5.584  0.0479  0.0822  0.0979
27841W        W44689   0.715   4.602   4.379 -0.0711 -0.2375  0.0549
27842W        W44690  10.936  10.353   5.280  0.3855  0.3684 -0.0425
27843W        W44691  17.291   1.962   2.481 -0.1082  0.0263  0.1892
27844W        W44692  13.699   5.277  11.166 -0.0097 -0.2587  0.3449
27845W        W44693  12.826   7.324  13.230  0.4660 -0.3026 -0.2670
27846W        W44694  17.707   4.705  12.235 -0.3372 -0.1835 -0.1511
27847W        W44695   4.285   6.890   0.296 -0.1293  0.3715 -0.3482
27848W        W44696  13.488   8.434   3.538  0.0660  0.1487 -0.0126
27849W        W44697   7.414   6.221  12.501  0.0013  0.1062  0.0175
27850W        W44698  11.357   9.655  12.444  0.1104  0.1722  0.0521
27851W        W44699  10.459  15.412  15.623  0.1797 -0.0224  0.5503
27852W        W44700   5.002   3.656  15.462  0.2781 -0.0573  0.2448
27853W        W44701   4.989  16.734  14.798 -0.0964  0.2081  0.2158
27854W        W44702   6.688  17.207  11.646  0.1192 -0.0924 -0.0906
27855W        W44703  12.882  10.353   2.587 -0.1663  0.1002  0.0837
27856W        W44704   4.879  15.643   1.870 -0.1411  0.1944  0.1747
27857W        W44705   8.177  11.230   2.928  0.0368 -0.1853 -0.2065
27858W        W44706  12.153   5.045   4.614  0.0543 -0.1732  0.0831
27859W        W44707  11.387   6.706  15.640  0.1302 -0.1700  0.0125
27860W        W44708  16.129   0.145  13.101 -0.0662  0.2750 -0.0027
27861W        W44709   8.596   8.485   3.791 -0.2760  0.4632 -0.1896
27862W        W44710  11.619  12.720  14.503 -0.0463  0.3669  0.2340
27863W        W44711  17.637   9.754  14.167 -0.1346  0.0920  0.0041
27864W        W44712  14.915  15.442  14.218 -0.0341 -0.0293  0.1037
27865W        W44713   3.483   6.307   4.959  0.1738  0.2429  0.2576
27866W        W44714  10.616   6.260   4.934 -0.0865 -0.3195  0.2510
27867W        W44715  17.796   5.514  15.926 -0.2194 -0.0650  0.0441
27868W        W44716  17.920  13.377   0.753 -0.1723  0.3013 -0.1986
27869W        W44717   1.428   4.074  13.399 -0.0958 -0.1204 -0.0716
27870W        W44718   0.779   4.720   1.156  0.2310 -0.0437 -0.0980
27871W        W44719   4.837   2.951  11.280 -0.1948  0.0116 -0.0216
27872W        W44720   4.912  10.364  13.094 -0.3346  0.1216 -0.1162
27873W        W44721   0.430   7.968  12.520 -0.0060  0.0549  0.1426
27874W        W44722  16.050   9.475   3.674 -0.1382  0.3296  0.4697
27875W        W44723  13.669   1.728   3.010  0.2783 -0.2137  0.0081
27876W        W44724  12.611  14.070   5.003 -0.1105 -0.1788 -0.0564
27877W        W44725  14.772   6.718  11.556 -0.2518  0.3982 -0.1252
27878W        W44726  17.158  15.381   0.559 -0.1646 -0.0140  0.0499
27879W        W44727   8.168   9.289   1.301  0.0278 -0.1996 -0.1416
27880W        W44728  10.171  15.121  15.352  0.0808  0.1363  0.2978
27881W        W44729   7.804   1.066  12.800 -0.0482 -0.2303 -0.2933
27882W        W44730   3.373   8.446  15.390  0.0925  0.2396  0.1801
27883W        W44731   9.943   7.980  12.841 -0.1170  0.1303  0.2692
27884W        W44732   4.128   3.618  15.935 -0.2550  0.0712  0.1568
27885W        W44733  16.848  12.195  15.704 -0.1987  0.1160  0.0063
27886W        W44734   1.298  17.023  13.868  0.0317  0.3833 -0.2218
27887W        W44735  12.544   2.424   2.528  0.0987 -0.1392 -0.2281
27888W        W44736   8.683   3.491  13.652 -0.4177 -0.1466  0.1840
27889W        W44737  12.590   0.294  11.451  0.2412 -0.0379  0.1256
27890W        W44738   9.821  12.645   3.393 -0.1564  0.1594 -0.1510
27891W        W44739   0.388  16.053  14.133 -0.1588 -0.1496 -0.1536
27892W        W44740  16.363  14.983  12.232 -0.0317 -0.1457  0.0572
27893W        W44741  10.671  14.423   2.314 -0.2152 -0.0600 -0.1088
27894W        W44742   4.121   1.252   5.234 -0.1229 -0.3080 -0.1850
27895W        W44743  15.925  16.226  12.441  0.0648  0.0728 -0.2906
27896W        W44744   6.055  16.120   0.549  0.1492 -0.0572  0.2637
27897W        W44745   2.666  11.776  14.699 -0.1505 -0.1611 -0.0890
27898W        W44746   4.347   9.563  14.948  0.0006  0.0113  0.2467
27899W        W44747   4.558  10.046   5.253  0.2200  0.0874  0.0938
27900W        W44748   7.707   6.535   1.250 -0.0801 -0.1861  0.2428
27901W        W44749  16.607   2.318  11.798 -0.1915  0.2162  0.0752
27902W        W44750  12.561  15.395  15.041 -0.1057 -0.0133  0.2323
27903W        W44751  10.206  12.231  11.881 -0.2109  0.2648 -0.1205
27904W        W44752   9.833   8.224  14.563 -0.0224 -0.0541  0.1835
27905W        W44753   9.733  14.051  12.196  0.0268  0.1865 -0.0896
27906W        W44754  10.145   2.200  14.487  0.4081  0.1345 -0.0761
27907W        W44755   3.024  11.595  11.375  0.3235  0.1829  0.1410
27908W        W44756  10.289  15.222   2.309 -0.1077  0.3140  0.0765
27909W        W44757   4.928  11.815   4.717 -0.0639  0.0528  0.3073
27910W        W44758  13.946   8.478  14.654 -0.0431  0.0636 -0.1115
27911W        W44759   0.424   5.430   1.451  0.4513  0.1745 -0.3675
27912W        W44760  10.443   0.008  15.756  0.1349  0.0333  0.0150
27913W        W44761  15.451   9.311   0.767  0.3360 -0.0087  0.1799
27914W        W44762   8.731   7.132  10.464 -0.2316  0.1641 -0.1056
27915W        W44763   1.372   3.737   3.869 -0.4895 -0.5539 -0.0235
27916W        W44764  15.051   6.409  10.686  0.0960 -0.1723  0.1143
27917W        W44765   3.674   5.708  11.388  0.0623 -0.2465  0.1592
27918W        W44766   4.415  10.178  14.244  0.0870 -0.0231  0.1008
27919W        W44767   2.735   2.056  13.058  0.2943 -0.2699 -0.2346
27920W        W44768   6.107   9.187   1.853  0.2268  0.0278  0.0993
27921W        W44769   1.236   0.455  15.752  0.2323  0.4291 -0.0722
27922W        W44770   6.176   9.083  13.111  0.0219  0.0037 -0.0120
27923W        W44771   1.625   4.671   5.182  0.1860  0.1575  0.1083
27924W        W44772   5.935   9.050   4.288 -0.1665 -0.0074 -0.0239
27925W        W44773   9.983  17.070   3.540  0.1656 -0.1810 -0.1442
27926W        W44774  11.251  10.684   3.020  0.1889  0.1431  0.2204
27927W        W44775  15.513   6.049   2.770  0.2669  0.0655  0.0173
27928W        W44776  11.670   1.197  15.675  0.2055  0.2111 -0.1161
27929W        W44777  17.068  18.168   4.314  0.1176  0.2927 -0.1655
27930W        W44778  16.186   0.695  12.258 -0.0858 -0.1243  0.0450
27931W        W44779   4.706   3.279  13.405 -0.2343  0.1477  0.1152
27932W        W44780  10.618  14.877   2.070  0.1239 -0.0763  0.2464
27933W        W44781  13.152  13.324   0.968  0.0867  0.0454  0.0297
27934W        W44782  16.291  15.956  14.147  0.1372 -0.0889  0.1554
27935W        W44783  13.433   2.285  14.093  0.0571  0.0196 -0.0164
27936W        W44784  15.759  13.274  11.838  0.3392  0.0458 -0.0036
27937W        W44785   8.726  13.146   5.547  0.0886 -0.0252  0.2871
27938W        W44786  12.372  10.992   2.305 -0.2799 -0.0285  0.0457
27939W        W44787   8.917  11.046   3.474  0.4913  0.3375  0.1152
27940W        W44788   7.328   6.267  13.607 -0.2034 -0.2607 -0.3670
27941W        W44789   3.194  15.073  10.632 -0.0713 -0.0422  0.0277
27942W        W44790   0.388   3.654  14.825  0.0156  0.1118 -0.2440
27943W        W44791   0.391  14.547  11.848 -0.0773  0.1210 -0.2029
27944W        W44792  10.568   4.558   1.272 -0.1468  0.0631  0.1653
27945W        W44793  16.175  11.895   3.900  0.1860 -0.3989 -0.0769
27946W        W44794   1.204   2.468  12.241 -0.1775  0.3042 -0.2389
27947W        W44795   1.911   9.694  15.002 -0.1056 -0.1418 -0.2559
27948W        W44796  14.369   6.246  15.656  0.0835 -0.3287 -0.1460
27949W        W44797   7.106  12.646  13.020  0.1377 -0.1976 -0.0412
27950W        W44798   1.117   9.182   4.322  0.2656 -0.0580  0.1099
27951W        W44799   8.153  17.337   3.888 -0.0832  0.4930 -0.0065
27952W        W44800   2.941   1.559  15.281 -0.0220 -0.0913  0.0021
27953W        W44801   0.769  14.447   9.800  0.1354  0.3038  0.0549
27954W        W44802  12.760  15.362  11.948  0.0420  0.3611 -0.0129
27955W        W44803  14.773   6.125  12.214  0.2600  0.3433  0.0588
27956W        W44804  14.786  17.694  12.772 -0.1124 -0.3747  0.2721
27957W        W44805   3.876   5.265  14.401  0.3478 -0.1569 -0.1525
27958W        W44806   0.819   1.572   3.938 -0.0835 -0.2053  0.3574
27959W        W44807   5.226   5.044   3.218 -0.0476 -0.2890  0.0211
27960W        W44808   7.105   9.540  14.845 -0.1416 -0.2032 -0.4018
27961W        W44809  10.125  17.972  11.988 -0.0825 -0.2131 -0.0857
27962W        W44810   8.145   7.525  14.815  0.1718 -0.0235 -0.0153
27963W        W44811   5.910   2.076  15.092 -0.3516 -0.2728 -0.3522
27964W        W44812   6.803  16.724   4.112  0.1745 -0.1472  0.1088
27965W        W44813  16.575   3.146   1.645 -0.0484 -0.5175 -0.1078
27966W        W44814   8.753  14.645   5.581 -0.1266  0.1708 -0.2920
27967W        W44815   0.881  13.515  11.333  0.1754  0.0215 -0.0640
27968W        W44816   2.261  17.380   3.732 -0.0652  0.0837  0.0863
27969W        W44817  16.905  12.595   1.428 -0.0376  0.1033 -0.2173
27970W        W44818   9.027   0.144   4.761 -0.3423  0.4481  0.0656
27971W        W44819   4.524  13.552   4.021 -0.1208  0.4060  0.0993
27972W        W44820   0.975   7.689  11.135 -0.3231 -0.0838 -0.2774
27973W        W44821  12.328   9.272  12.958  0.0482 -0.0112 -0.0676
27974W        W44822  13.901   9.967   0.386  0.3775  0.4328 -0.0119
27975W        W44823  15.968  17.547  10.258 -0.2192 -0.3707 -0.0473
27976W        W44824   6.078   5.798   5.167 -0.4137 -0.0347  0.1722
27977W        W44825  10.369  13.950   0.575 -0.0551 -0.2359 -0.0488
27978W        W44826   5.318  15.880   0.291  0.0506  0.1010  0.3864
27979W        W44827   8.026  14.438  14.136 -0.0095 -0.0099 -0.1619
27980W        W44828  12.395   8.831   4.996  0.0337 -0.1222  0.4432
27981W        W44829  12.506  10.020   3.927 -0.1685 -0.1272  0.1712
27982W        W44830  11.201   3.144   1.074 -0.0190  0.2350  0.0962
27983W        W44831  10.332   0.704   2.845  0.0401  0.1862 -0.0835
27984W        W44832  13.945  12.459   0.895  0.1068  0.1735  0.1177
27985W        W44833  14.897  16.755   2.651  0.1596  0.1071 -0.1237
27986W        W44834  16.916   2.874  12.969 -0.2329 -0.0551 -0.1491
27987W        W44835   5.363   1.170   1.202  0.0516 -0.0914  0.2503
27988W        W44836  13.682  14.499  12.552  0.0221  0.0026  0.2270
27989W        W44837  17.609   9.546  13.331 -0.0963  0.2712  0.0827
27990W        W44838  17.665   0.801   2.235  0.0404 -0.3255 -0.0968
27991W        W44839   2.111  10.195  10.894 -0.0278 -0.1869  0.2189
27992W        W44840   9.040   0.350  11.577  0.2703 -0.0456 -0.0528
27993W        W44841   1.555  11.344  12.933 -0.4179 -0.3006  0.0340
27994W        W44842   8.138  16.483   1.064 -0.2777 -0.1923 -0.0405
27995W        W44843   3.650   7.773   2.512 -0.1625 -0.2287 -0.1290
27996W        W44844   2.212  12.541   0.276 -0.1247 -0.1586  0.1633
27997W        W44845  10.074  10.475   4.910  0.0761 -0.3177 -0.0757
27998W        W44846   1.117   4.697   5.176  0.1382  0.1267  0.1142
27999W        W44847  18.122   5.622   4.390  0.2284 -0.0936  0.0341
28000W        W44848  17.738  14.023  15.715 -0.2398 -0.4290  0.0590
28001W        W44849   0.629  11.389   4.485  0.1962  0.2810 -0.0465
28002W        W44850   8.734  14.623  11.656 -0.3070 -0.1461 -0.0874
28003W        W44851   0.534   1.166   2.076 -0.0233 -0.0577  0.1468
28004W        W44852   9.240   4.096  13.476  0.3189 -0.0718  0.3227
28005W        W44853   6.253   2.081  11.023  0.1701  0.0103  0.1411
28006W        W44854   5.605  14.939   2.095 -0.2927  0.1434  0.0990
28007W        W44855  14.922   9.009   1.651  0.0740 -0.1842 -0.3163
28008W        W44856   4.500   6.459   3.872  0.0095  0.1885 -0.0048
28009W        W44857   3.076  17.228   0.051  0.0622  0.1023 -0.0498
28010W        W44858  15.044   7.604   5.397 -0.1314  0.1723 -0.1879
28011W        W44859  14.117   5.657  15.051 -0.0165  0.3031  0.1285
28012W        W44860   7.224  12.217   4.636  0.1405 -0.2316  0.4563
28013W        W44861  10.532  12.787   0.665  0.1246  0.0322  0.0314
28014W        W44862  11.621  14.897   3.115 -0.0747  0.1147  0.0198
28015W        W44863  17.554   3.009   1.097 -0.4004 -0.1941 -0.0690
28016W        W44864  11.506  12.749   5.082 -0.2059 -0.1772  0.0866
28017W        W44865  12.752   0.739  11.205  0.1104  0.0876 -0.2379
28018W        W44866  15.360   0.173   4.391  0.1935  0.0291  0.5759
28019W        W44867   1.913   6.391  11.810  0.4144  0.0006  0.0133
28020W        W44868   4.384  17.444  13.206  0.0807 -0.2363  0.0871
28021W        W44869   3.234   5.216  12.237 -0.0348  0.0625 -0.0384
28022W        W44870  14.636   2.190  14.556 -0.1958  0.0057 -0.2136
28023W        W44871  12.861  17.026   4.744 -0.2313  0.1061 -0.2550
28024W        W44872  13.557   1.082   4.459  0.1281 -0.1926  0.0818
28025W        W44873   6.345   5.616  15.109 -0.3657  0.0391 -0.2916
28026W        W44874   1.376  11.464  12.140  0.0168  0.0584 -0.0132
28027W        W44875   8.073   2.078  14.579 -0.0511 -0.0640 -0.4301
28028W        W44876  11.158   5.093  13.088 -0.2656  0.4212  0.1863
28029W        W44877   8.405   3.460   1.214 -0.0781 -0.4095  0.0610
28030W        W44878   6.671   4.622   4.114  0.0365 -0.0518 -0.1020
28031W        W44879   3.736   0.578  12.928  0.1581  0.0067 -0.0619
28032W        W44880  11.207   0.470   3.113  0.0269 -0.2456  0.2452
28033W        W44881   4.142   7.606  11.416  0.0263  0.0163 -0.0403
28034W        W44882   8.549   0.583  12.874  0.1618  0.0005 -0.0557
28035W        W44883   4.770   5.552   4.279  0.0141 -0.0654  0.0294
28036W        W44884  11.267   8.446  14.590  0.2791  0.0987  0.4305
28037W        W44885  12.588  13.193   0.283 -0.0548 -0.0460  0.0771
28038W        W44886   8.222   8.920  13.064 -0.1225 -0.1026 -0.0189
28039W        W44887  17.108   0.513   1.402 -0.4384  0.2870  0.1775
28040W        W44888   9.713   2.284  15.220 -0.2214  0.0837 -0.3250
28041W        W44889  17.949  11.604  11.889  0.1566 -0.1246 -0.1141
28042W        W44890  17.757   2.525  15.446  0.1635 -0.1292  0.0174
28043W        W44891   5.542  17.916   0.096  0.0491 -0.3173  0.1163
28044W        W44892   6.482  16.915  14.249  0.1587  0.2313 -0.0854
28045W        W44893   5.216   5.318  14.220  0.0128  0.2255  0.0941
28046W        W44894   9.929  13.642  11.424 -0.2899 -0.0342  0.2291
28047W        W44895  12.951   3.383  15.435 -0.4092  0.2105  0.0849
28048W        W44896   3.494  16.211  15.384 -0.0316  0.0176 -0.4281
28049W        W44897  16.904   3.864  11.575 -0.1893 -0.0365  0.1395
28050W        W44898  11.082  17.793  12.477 -0.0500  0.1424  0.0123
28051W        W44899   7.187   8.211   2.033 -0.1275  0.0495 -0.1370
28052W        W44900  10.443   2.211  11.637 -0.0282 -0.1311 -0.2245
28053W        W44901   9.319  16.925   5.765 -0.0249 -0.0116 -0.1530
28054W        W44902   5.034   8.580   4.839  0.0135 -0.2177 -0.1028
28055W        W44903  12.145   0.030   1.239  0.0041  0.0252 -0.1290
28056W        W44904   6.447  13.206   3.129  0.2159  0.0772 -0.1897
28057W        W44905   4.890  15.488  11.060 -0.2861 -0.2351  0.1682
28058W        W44906   6.754   8.669   3.623  0.2729  0.2527 -0.1018
28059W        W44907  15.008  17.733   4.556 -0.4224 -0.1275 -0.0558
28060W        W44908   7.209   8.262   0.660 -0.1885 -0.0087 -0.2873
28061W        W44909  10.524   4.189  15.695 -0.1262 -0.0215 -0.2623
28062W        W44910  13.060   6.139   4.488  0.1150  0.1715 -0.0638
28063W        W44911  15.082   6.666   0.944 -0.6184  0.0828  0.1040
28064W        W44912   3.515  13.884   1.291  0.0110  0.3568 -0.1570
28065W        W44913   3.260  17.399  15.627  0.2048  0.0094 -0.1735
28066W        W44914  17.313   8.072  12.078 -0.1737 -0.1767 -0.1151
28067W        W44915   5.561  14.042  12.855 -0.0513  0.0249 -0.1414
28068W        W44916   2.140  14.406  15.274 -0.4551 -0.1041  0.2205
28069W        W44917   9.497   8.909  11.709  0.3423  0.1785  0.1112
28070W        W44918  15.125  12.328   5.026 -0.0925  0.0854  0.4749
28071W        W44919  14.983  16.611  11.616 -0.0977 -0.0942 -0.0098
28072W        W44920   6.304  11.784  13.879 -0.0375 -0.0865  0.0290
28073W        W44921  15.251  10.629  13.843  0.1265 -0.0584 -0.2969
28074W        W44922  16.707  17.213   3.293  0.0483  0.0074  0.1132
28075W        W44923   2.576  15.010  11.382 -0.1153 -0.0476  0.1183
28076W        W44924  12.641  16.426   1.737 -0.0723 -0.0758 -0.0007
28077W        W44925   0.394  15.646  14.583  0.1150 -0.1567  0.0119
28078W        W44926  12.288   8.985   1.624  0.0323  0.3059  0.1445
28079W        W44927  16.683   4.196  13.266 -0.3370 -0.0911  0.2040
28080W        W44928  15.485   6.173   2.281 -0.2094  0.1308 -0.0294
28081W        W44929   1.860  18.172   1.761 -0.1552  0.1479  0.1117
28082W        W44930   1.865   5.418  11.599  0.1362 -0.1935  0.2093
28083W        W44931   6.707  11.408   3.446 -0.0503  0.0196  0.1784
28084W        W44932  12.211   3.853  15.644  0.0892  0.0892  0.1515
28085W        W44933  11.883   8.043   5.286  0.2325 -0.4195  0.1048
28086W        W44934  17.636  16.438  15.399 -0.2621 -0.0634 -0.1714
28087W        W44935  13.540  14.854   3.157  0.0380  0.4143 -0.1422
28088W        W44936  10.549  14.432   1.804 -0.2011  0.0785  0.1319
28089W        W44937  15.810  10.005   0.381  0.2379  0.0550  0.0376
28090W        W44938  10.622   8.972  12.231 -0.0191  0.3237 -0.0825
28091W        W44939  14.118   2.949   0.034  0.0352 -0.0820  0.1796
28092W        W44940  17.780  14.399  12.844  0.0611 -0.0675  0.0899
28093W        W44941  10.644   9.693   3.857  0.3316  0.2025  0.0382
28094W        W44942   7.130  16.015  11.816 -0.0213  0.3622  0.4528
28095W        W44943   1.882   2.664   0.113  0.0247  0.1672  0.0902
28096W        W44944  16.802   3.592  13.924 -0.3824  0.1358  0.1689
28097W        W44945  12.928  12.162  15.635 -0.0385  0.1000 -0.1272
28098W        W44946   7.910   1.241  13.283 -0.0574 -0.1628 -0.0081
28099W        W44947  11.747  14.001   4.423 -0.2482 -0.1084 -0.1894
28100W        W44948   3.875  14.119   4.708  0.4540 -0.2339  0.1714
28101W        W44949  12.795  16.053   4.173  0.0311  0.3273 -0.3489
28102W        W44950  11.860  17.565  14.946  0.0984 -0.1062 -0.0753
28103W        W44951   6.231   9.332  11.335 -0.1965 -0.3236  0.2602
28104W        W44952  14.632   8.472   3.306  0.0683  0.1320 -0.0563
28105W        W44953   2.641   5.075  13.640  0.0693  0.0111 -0.2680
28106W        W44954  18.157   2.569   2.231  0.0756 -0.2371  0.0185
28107W        W44955   6.569   7.918   0.853 -0.3986  0.1236  0.2495
28108W        W44956  12.458   8.954   3.303  0.3022 -0.0844  0.2906
28109W        W44957   0.301  17.037   1.987  0.1044  0.2146 -0.0263
28110W        W44958   6.033  14.847   4.309 -0.2206 -0.1362 -0.0458
28111W        W44959   9.227   5.216   3.832 -0.0203  0.0805 -0.3142
28112W        W44960   7.389  11.027  13.456  0.3304  0.0162 -0.0783
28113W        W44961  15.922   8.521   2.983  0.0685 -0.0381  0.5835
28114W        W44962   5.706   2.802   4.349  0.0503 -0.2035 -0.3119
28115W        W44963  10.111   4.742  11.284 -0.0576 -0.3763  0.1443
28116W        W44964  12.432  16.358   4.250  0.0716  0.1947 -0.0255
28117W        W44965   2.927   4.589   4.033  0.2490 -0.2677  0.1334
28118W        W44966   3.991  17.612  13.934 -0.2292  0.0194 -0.2910
28119W        W44967  11.781   5.536   0.674  0.0370  0.2775  0.0699
28120W        W44968  15.658   6.970   0.244  0.2829 -0.2723 -0.0585
28121W        W44969  11.634   6.533   0.716 -0.0755  0.0351 -0.2999
28122W        W44970  17.071   0.569  12.996 -0.0254  0.2264 -0.0263
28123W        W44971   7.947   0.765   1.377  0.0268 -0.1805  0.1346
28124W        W44972  16.496  17.486  11.752  0.1628 -0.0513 -0.0903
28125W        W44973   8.219   5.515  15.146 -0.2503  0.1317  0.1015
28126W        W44974   2.253  14.649   3.274 -0.2550 -0.0770  0.1089
28127W        W44975   5.137   2.029  11.846  0.0992  0.2126  0.1514
28128W        W44976  15.821  11.219  12.774  0.0663 -0.1912  0.1443
28129W        W44977  11.903   7.831  12.840 -0.2840  0.0003 -0.0194
28130W        W44978   2.976   0.348   5.788 -0.0912  0.3532  0.1666
28131W        W44979  13.033   0.508   2.634  0.0394  0.0419 -0.3718
28132W        W44980  13.435  17.898   3.822  0.1083 -0.0455 -0.1059
28133W        W44981  18.159  15.665   0.754 -0.0346 -0.0297 -0.0306
28134W        W44982   1.078   9.240  12.828 -0.3498  0.4679 -0.0184
28135W        W44983   6.143  10.382  11.498 -0.0514  0.3748  0.1480
28136W        W44984   0.014  17.039  14.046 -0.0140 -0.0446 -0.1241
28137W        W44985  18.161   4.616   3.505 -0.1380  0.1454 -0.0671
28138W        W44986   4.701   6.911   1.409  0.1977 -0.0248 -0.3268
28139W        W44987  13.326   3.163  14.995  0.2614 -0.0831  0.2669
28140W        W44988   3.122   3.518   5.146  0.2160  0.0339  0.1787
28141W        W44989  13.693   8.739  12.081 -0.0554  0.1712 -0.1071
28142W        W44990   1.595  10.632  15.315 -0.1629 -0.1927 -0.4298
28143W        W44991  11.360  15.361   0.882  0.3699  0.0017 -0.3802
28144W        W44992  15.582  12.727  14.155  0.4928 -0.1810 -0.1250
28145W        W44993   8.084   8.838  15.590 -0.1649  0.1096 -0.0698
28146W        W44994  14.519  14.644   5.443 -0.0255 -0.0473  0.3469
28147W        W44995  13.809   6.938   4.386  0.3040  0.2972 -0.2701
28148W        W44996   0.835   0.984  12.913 -0.0571  0.0749 -0.1420
28149W        W44997   5.844  13.721   1.498 -0.3415  0.2627 -0.1644
28150W        W44998   4.724  16.394  12.732 -0.1375 -0.0529 -0.0539
28151W        W44999   9.605  17.144   3.892  0.0227 -0.2518 -0.1704
28152W        W45000   3.253  11.946   2.733 -0.2797 -0.4657 -0.3661
28153W        W45001   5.573   8.228   1.610  0.2579 -0.3338  0.1138
28154W        W45002   3.643   1.501   0.950 -0.2660  0.2237 -0.0956
28155W        W45003  17.619   5.656   0.242 -0.2004 -0.3830  0.3579
28156W        W45004   5.652   3.880   1.775  0.0000 -0.0566  0.0430
28157W        W45005  13.831   3.904  14.319 -0.0327 -0.2356 -0.0749
28158W        W45006   6.483  14.754  11.033 -0.1528 -0.0320 -0.0904
28159W        W45007   2.385   8.214  15.307 -0.0529 -0.1030  0.1861
28160W        W45008   2.539  11.095   1.842 -0.2311  0.2648  0.1369
28161W        W45009   9.259  11.936  14.390  0.1976 -0.2090  0.0638
28162W        W45010   7.701   0.140   4.017 -0.1937  0.2449  0.0119
28163W        W45011  10.636  14.506   4.158  0.1682 -0.2548 -0.1561
28164W        W45012   6.080   1.542   4.971 -0.1495  0.0278 -0.0667
28165W        W45013   0.872   6.971   3.193 -0.0466  0.0614 -0.0705
28166W        W45014   2.843  13.444  15.269  0.0362 -0.2404  0.0998
28167W        W45015  11.612  14.628   3.863  0.0652 -0.1001  0.1242
28168W        W45016   7.411   2.488   0.260 -0.0197 -0.0670  0.1021
28169W        W45017  15.604   7.659  11.853 -0.3306 -0.2098  0.2918
28170W        W45018   1.318  15.939   3.726 -0.0419 -0.2935 -0.0882
28171W        W45019   1.473  13.008  14.778  0.0866 -0.2156 -0.3162
28172W        W45020  15.526   1.618   0.691  0.0167  0.0397 -0.1068
28173W        W45021   2.134   9.730  11.604 -0.0745 -0.1578 -0.0110
28174W        W45022  13.361   6.955  13.978  0.1395 -0.2085 -0.2634
28175W        W45023  11.662  14.324   1.199  0.0054 -0.2258 -0.0623
28176W        W45024  13.773   0.529  12.932 -0.1820 -0.4781  0.3254
28177W        W45025   9.343  14.829   3.815 -0.1097 -0.0281  0.0804
28178W        W45026   1.319   0.709   2.357  0.0838 -0.0250  0.0246
28179W        W45027  17.857  13.009  15.232 -0.0677 -0.0462 -0.2142
28180W        W45028  15.340   8.070   3.574 -0.1660 -0.0972 -0.0291
28181W        W45029   1.407   9.176  13.201  0.4555  0.0755 -0.2567
28182W        W45030   3.233   6.391   1.387  0.0671 -0.2908 -0.1107
28183W        W45031  11.677   5.792  15.776 -0.1454  0.6638 -0.2399
28184W        W45032   6.961  14.187  12.627 -0.1802  0.1736 -0.2546
28185W        W45033  14.009   3.486  11.332 -0.0637 -0.1786 -0.1248
28186W        W45034  13.544   5.597   3.503  0.1498 -0.1929  0.0601
28187W        W45035   1.097   1.132   0.219 -0.0715 -0.0823  0.0548
28188W        W45036  14.640  10.227   4.489 -0.0678 -0.1554  0.1161
28189W        W45037   8.354   0.876  11.692 -0.0522 -0.1201 -0.1988
28190W        W45038  15.812   5.017   4.305  0.0857 -0.0341  0.0915
28191W        W45039   1.627  13.519   2.122 -0.3530  0.0896  0.3811
28192W        W45040   9.135  10.534  14.421  0.0339  0.1299 -0.1124
28193W        W45041   0.065  14.916   1.432  0.3743  0.0633 -0.0341
28194W        W45042  12.675  11.925  12.504  0.4111  0.2992  0.1402
28195W        W45043  13.048   4.136   3.865  0.1887  0.0671  0.0507
28196W        W45044   3.160  12.100  12.455  0.0420  0.2943  0.2630
28197W        W45045   0.957  14.659   2.981 -0.0721 -0.0914 -0.1086
28198W        W45046   1.853   6.056  16.007 -0.0819  0.1044  0.0982
28199W        W45047  15.892   3.864  12.836  0.2009  0.0503  0.4900
28200W        W45048   6.081  13.708  12.122 -0.2469  0.2355  0.1276
28201W        W45049  12.099   8.835   2.390 -0.1831  0.0955  0.2673
28202W        W45050   9.296  13.545   4.265 -0.0561  0.2215  0.0801
28203W        W45051  16.298   4.687  15.142  0.2675  0.0418 -0.2456
28204W        W45052  15.211   5.738   2.497 -0.0524 -0.0096  0.1939
28205W        W45053   4.658   2.638  12.087  0.0670  0.3556  0.1322
28206W        W45054   7.337   4.056   4.455  0.0384  0.0294 -0.1349
28207W        W45055   6.358   0.147  13.046  0.1909 -0.0757  0.3371
28208W        W45056  12.007   3.335   1.666 -0.3108 -0.0977  0.1540
28209W        W45057  13.665   4.839  14.122 -0.0652 -0.0867  0.0213
28210W        W45058  15.269  14.341  14.794  0.0918 -0.0751 -0.1454
28211W        W45059   9.438  13.579   2.716 -0.1264 -0.1976  0.0689
28212W        W45060  14.731   4.813   3.524  0.4172 -0.1969  0.1447
28213W        W45061   7.625   8.466   0.461  0.2211 -0.0071  0.0298
28214W        W45062   9.199   2.555  12.848 -0.2503  0.1067 -0.0281
28215W        W45063  11.252   1.138  11.147  0.1526  0.0608  0.0911
28216W        W45064  13.483   3.700   0.547  0.0018 -0.1511  0.2016
28217W        W45065  10.517   3.346   3.020 -0.0947  0.0777 -0.1138
28218W        W45066   4.843   2.209  12.314 -0.0492 -0.1254  0.5491
28219W        W45067   7.292  17.927  13.107  0.1888 -0.4194  0.0942
28220W        W45068  11.098   2.624   0.653  0.2802  0.2599 -0.2025
28221W        W45069   8.136  10.460  14.618 -0.1754  0.0852  0.2929
28222W        W45070  12.969   2.219   0.870  0.0267 -0.0148 -0.1776
28223W        W45071  10.587  10.483  13.971 -0.0829  0.0144 -0.3736
28224W        W45072  12.547  13.827  14.958  0.1618  0.0703 -0.1516
28225W        W45073  12.554   2.659  11.634  0.3566  0.1698  0.3373
28226W        W45074   7.671  16.782   1.961 -0.1199 -0.0625  0.0380
28227W        W45075   2.200  17.069  13.630 -0.0923 -0.0502  0.1435
28228W        W45076  11.218  18.119   4.823  0.1776  0.1812 -0.1853
28229W        W45077  11.281  10.482   3.566 -0.1283  0.0748 -0.1325
28230W        W45078   2.673  10.777   2.607  0.0863  0.1164  0.1628
28231W        W45079  16.630  11.625   4.073  0.0608  0.0614 -0.0383
28232W        W45080   5.848   8.151  15.784  0.2492  0.1402  0.2134
28233W        W45081   0.730   8.521   4.268  0.1910 -0.0576 -0.2556
28234W        W45082  17.778   6.997  15.241 -0.1239  0.0366  0.1140
28235W        W45083   8.990  12.906   5.146 -0.2790 -0.1937  0.2295
28236W        W45084  15.782  12.857  13.023 -0.2445  0.1919 -0.0506
28237W        W45085  13.696   9.244  15.683  0.1280 -0.1580 -0.0038
28238W        W45086  15.368   2.739   3.393  0.1180  0.2486 -0.1501
28239W        W45087   0.842  15.042   5.084  0.0766 -0.3315  0.3256
28240W        W45088  11.670  15.502   3.159  0.1191  0.0869 -0.0522
28241W        W45089   9.658  15.922  16.086 -0.0436  0.2134  0.0616
28242W        W45090  16.396   5.784   4.111 -0.0810 -0.0492  0.0462
28243W        W45091   3.891   8.561   1.853  0.1516 -0.0070 -0.1656
28244W        W45092  14.493  11.733   2.273 -0.0208 -0.5130 -0.0984
28245W        W45093  13.649  11.715  14.264  0.0923  0.2070  0.0342
28246W        W45094   3.218  14.222  14.354  0.2155 -0.1444  0.2280
28247W        W45095   7.854  13.538   1.696  0.1526  0.4296 -0.1081
28248W        W45096   9.879   4.431   0.157  0.2501 -0.2170  0.0957
28249W        W45097   3.443  15.507   2.532 -0.0773 -0.3288  0.0307
28250W        W45098   0.955  12.352   5.048  0.0592  0.0594  0.1983
28251W        W45099   5.702  14.578  11.519  0.4333  0.0563  0.1170
28252W        W45100   5.545   1.441   1.926  0.0004  0.0185 -0.1068
28253W        W45101   2.433  11.982  13.162 -0.2695  0.0447 -0.2878
28254W        W45102  14.818  16.255   2.627 -0.1076  0.0976  0.0009
28255W        W45103   6.233  11.475   1.383 -0.2700  0.2905 -0.3447
28256W        W45104  15.752  16.955  13.013 -0.1902  0.3385 -0.0404
28257W        W45105  12.200   6.993   3.520  0.0275 -0.2906  0.0745
28258W        W45106   4.154  10.727   4.856 -0.1839  0.1231  0.2306
28259W        W45107   9.387  10.780   1.202 -0.2739  0.0538  0.0611
28260W        W45108   7.466   9.302   3.506 -0.2949 -0.2885  0.1219
28261W        W45109   8.619  12.666  11.963 -0.2309  0.1354  0.2289
28262W        W45110   3.835  13.185   0.778 -0.2407 -0.1940 -0.0308
28263W        W45111  15.312  10.724  15.347  0.1295 -0.1195 -0.3570
28264W        W45112   3.571  13.758   4.826 -0.0522 -0.5470  0.2081
28265W        W45113  16.870  15.560  14.857 -0.0094 -0.0413  0.2024
28266W        W45114  10.970  15.794   3.962 -0.0036 -0.1165  0.1669
28267W        W45115  17.154   5.102   4.390  0.0846  0.0223  0.1719
28268W        W45116   4.889  17.849  10.667  0.1335  0.0679 -0.0510
28269W        W45117   3.405   0.091  16.034 -0.0388 -0.1767  0.0024
28270W        W45118  12.859  14.046  11.229 -0.0313 -0.1237  0.1509
28271W        W45119   7.361   5.037   4.662 -0.2508 -0.0004  0.0623
28272W        W45120  16.558  10.508   0.041  0.0328  0.1822 -0.1147
28273W        W45121  12.472  15.658   3.560 -0.1638 -0.0670 -0.0102
28274W        W45122  14.668  13.525   4.628  0.0121  0.0326 -0.1258
28275W        W45123   6.330  13.402   5.001 -0.0322  0.0644 -0.1792
28276W        W45124  14.833  15.781   3.897  0.0520  0.0309 -0.2554
28277W        W45125  12.277   1.362  16.050  0.1358  0.0633  0.2159
28278W        W45126  16.580   6.764  15.587  0.4315 -0.0454  0.2999
28279W        W45127  14.083  16.178   1.759 -0.1545 -0.1673  0.2342
28280W        W45128  13.649  17.667  14.879  0.1440 -0.2869  0.2286
28281W        W45129  12.021  11.834   2.602 -0.0640 -0.1327  0.0411
28282W        W45130  12.190   8.125  14.108 -0.2712 -0.0609  0.2771
28283W        W45131  10.609   3.045  10.310 -0.0418 -0.3241 -0.4458
28284W        W45132  15.093   1.156   4.226 -0.2217 -0.1175 -0.2480
28285W        W45133   7.693  13.009   1.649 -0.0038  0.0854 -0.1569
28286W        W45134   8.382   6.192  12.601 -0.0149  0.5293  0.2917
28287W        W45135   4.263  13.372   5.191 -0.3036 -0.1139 -0.0425
28288W        W45136  11.880   5.812  12.950 -0.0243 -0.1778 -0.1641
28289W        W45137   5.422   5.585   2.865  0.1312 -0.0574 -0.0888
28290W        W45138  10.339  17.155   0.020 -0.1249  0.0491 -0.0429
28291W        W45139   6.493  11.049   1.584 -0.3459  0.1864 -0.4073
28292W        W45140   5.158   0.346   4.022  0.3195  0.3553 -0.0559
28293W        W45141   8.815  10.084  14.293  0.0392  0.1159 -0.1272
28294W        W45142   5.735  13.439  13.390  0.1039  0.0222 -0.3651
28295W        W45143  17.569   6.443  12.911 -0.3484  0.2569 -0.2107
28296W        W45144  16.346   2.870   2.053 -0.1235  0.1098 -0.2725
28297W        W45145   5.856  11.804   4.621  0.3504 -0.0785  0.0818
28298W        W45146  16.059  15.171  11.758 -0.2189 -0.1632  0.0770
28299W        W45147   3.469   8.556  13.692  0.3044  0.0450  0.1915
28300W        W45148   9.955   0.178  12.117 -0.1417 -0.3541 -0.0178
28301W        W45149  10.775   9.869  13.847  0.0877  0.0457 -0.0578
28302W        W45150   7.963   8.568   5.678  0.0131  0.2821  0.2351
28303W        W45151   0.889  12.275  16.058  0.0723  0.1321  0.1150
28304W        W45152  13.751  15.732  10.260 -0.0522 -0.0158  0.0311
28305W        W45153   7.831   5.720  15.306 -0.2716 -0.3182 -0.0289
28306W        W45154  18.071  17.343  12.097 -0.1652 -0.1159 -0.0402
28307W        W45155   0.640  16.780  14.622 -0.3378  0.0837 -0.0480
28308W        W45156   3.882   7.758  14.525  0.3617  0.3299  0.0181
28309W        W45157   1.727   2.322  15.424 -0.2301 -0.0661 -0.1787
28310W        W45158   1.951   7.094   5.106  0.0778 -0.0262  0.3650
28311W        W45159   3.797  15.972   4.190 -0.1305  0.1295  0.0851
28312W        W45160   8.624   8.449  14.563  0.0580 -0.1151  0.0537
28313W        W45161  12.720  16.818   0.513 -0.1421 -0.1149  0.0390
28314W        W45162  16.944   6.804  12.184 -0.1697  0.2021  0.0223
28315W        W45163   2.522  11.808  10.726  0.1006  0.3008  0.0533
28316W        W45164   0.230   3.812   0.179  0.0319  0.0911  0.3343
28317W        W45165   7.604  13.067   0.299  0.2407 -0.1824  0.0777
28318W        W45166   4.089   7.363   0.010 -0.2704 -0.1224  0.0062
28319W        W45167   8.222  14.740  13.749  0.1992  0.0352  0.2476
28320W        W45168  10.729   0.829   0.607  0.1722 -0.2448 -0.3079
28321W        W45169   5.016  13.688  15.218  0.1413 -0.1512 -0.0381
28322W        W45170   5.540  15.222   4.652  0.0305  0.0016 -0.0727
28323W        W45171  16.848  12.617   3.761  0.0101 -0.0870  0.3116
28324W        W45172  15.453   8.572  14.069 -0.0672 -0.0221 -0.2014
28325W        W45173  13.822   0.982  13.262  0.1392 -0.0158  0.0595
28326W        W45174  12.821   2.124  12.833 -0.0650  0.1278  0.0886
28327W        W45175   6.403  17.557   5.035 -0.3392 -0.0878 -0.0594
28328W        W45176  16.366   7.691  12.175  0.1416 -0.2532  0.0484
28329W        W45177  11.233  14.662  13.860  0.0577  0.2110  0.1791
28330W        W45178  13.192   3.348  12.719 -0.0182  0.2532 -0.0317
28331W        W45179  13.150   9.676   6.510 -0.0272 -0.1624 -0.5034
28332W        W45180   5.990  11.708   3.566 -0.0302 -0.1340 -0.1393
28333W        W45181  17.832   5.437   1.106 -0.0108 -0.1102 -0.0672
28334W        W45182  14.603  14.074   4.123  0.1812  0.0875 -0.1312
28335W        W45183   8.583   8.916  14.105 -0.0820 -0.3065 -0.2828
28336W        W45184  13.396  12.360   0.911 -0.2494  0.2530 -0.0630
28337W        W45185   1.437  11.964  13.069 -0.0036 -0.0010  0.0577
28338W        W45186   1.818   9.253  15.812  0.4240  0.1532  0.0076
28339W        W45187   8.000   8.440  13.073 -0.2852  0.2906  0.5305
28340W        W45188   5.806  16.483   5.932  0.0614  0.0286  0.1015
28341W        W45189  15.930  15.345   3.700 -0.0810  0.0275  0.1199
28342W        W45190   1.827   2.027  13.321 -0.1541 -0.2297 -0.3738
28343W        W45191  16.201   4.243  12.444  0.0669 -0.1935  0.0473
28344W        W45192   8.930  10.289   0.346  0.1204 -0.1184  0.2054
28345W        W45193  14.456   1.940   3.245 -0.3853 -0.0321 -0.0411
28346W        W45194  17.388   3.064  15.898  0.3037 -0.3087 -0.0085
28347W        W45195  15.656   3.267  14.359 -0.1646  0.0235  0.1288
28348W        W45196  11.414   7.134  13.206  0.1050  0.2104 -0.2056
28349W        W45197   6.655  12.077  15.355  0.0793 -0.0224 -0.0106
28350W        W45198  17.487  10.638   2.312 -0.1188 -0.1709 -0.0201
28351W        W45199   4.851  17.564  13.883  0.0729  0.0269  0.3193
28352W        W45200   9.368   3.484  14.885  0.0029 -0.0660  0.4024
28353W        W45201   9.668   2.829   4.535 -0.1603  0.1773  0.0878
28354W        W45202   6.231   2.611  12.575  0.0500  0.0726 -0.1152
28355W        W45203  17.802  15.520   3.457 -0.1648  0.0835  0.0036
28356W        W45204   4.963   3.246   2.850 -0.2832 -0.0655 -0.0509
28357W        W45205   1.942   8.411  15.176 -0.0372 -0.1151  0.1189
28358W        W45206   2.047  14.405  11.242 -0.1028 -0.1409 -0.1337
28359W        W45207  17.005  13.753  12.474 -0.2990  0.3720 -0.0720
28360W        W45208   6.993  12.694   0.867 -0.2140 -0.0428  0.0638
28361W        W45209  15.409  14.114  11.595  0.0229  0.2295 -0.0847
28362W        W45210   1.540   9.734  11.907  0.2614  0.2138 -0.1727
28363W        W45211   4.023   3.745  14.615 -0.1562 -0.2988  0.2807
28364W        W45212   3.736   1.107   1.631  0.0475  0.0463  0.1718
28365W        W45213   2.019  12.113  12.277  0.3002  0.0171 -0.1291
28366W        W45214   8.079   1.060   4.461 -0.1960  0.2482  0.2290
28367W        W45215   0.993  16.576  11.182  0.2321  0.2841  0.2000
28368W        W45216  13.653  13.297   1.274  0.0858 -0.0440 -0.2438
28369W        W45217   8.382  17.522  13.833 -0.0286  0.1846 -0.0185
28370W        W45218   6.732  14.513   2.793 -0.2096 -0.1948  0.2163
28371W        W45219  12.376   4.225  11.548 -0.0180 -0.2125  0.0839
28372W        W45220  14.310  14.497   1.223 -0.3933  0.0209 -0.2662
28373W        W45221   4.025   5.210   0.966 -0.2969 -0.1269  0.1459
28374W        W45222   3.391  16.909  14.216 -0.1011 -0.0931 -0.0036
28375W        W45223   3.238   5.098   0.164 -0.2863 -0.1929 -0.1150
28376W        W45224   1.976  14.692  13.326  0.2434  0.0471  0.0482
28377W        W45225  13.157   4.644  13.233  0.0959 -0.3024 -0.0766
28378W        W45226  12.331   6.422  15.619 -0.2429  0.0084 -0.0824
28379W        W45227  17.341  11.679   0.247 -0.1531 -0.1064 -0.0505
28380W        W45228  18.125   5.660   2.496 -0.1598 -0.1613  0.0617
28381W        W45229   5.575   9.183   3.684 -0.1114 -0.0248  0.0809
28382W        W45230  16.288   2.963  12.273 -0.0177  0.4102  0.4054
28383W        W45231  12.184   8.927   0.426 -0.1068 -0.3571 -0.0169
28384W        W45232  14.109  12.512  15.453  0.2309 -0.1742  0.1422
28385W        W45233   5.863  15.123   5.885 -0.0451  0.0460  0.0174
28386W        W45234   7.797   9.028   4.376  0.3154 -0.2160  0.0839
28387W        W45235   5.892   4.604   0.581 -0.2425 -0.2723  0.1246
28388W        W45236  18.130  17.298   1.797  0.0622 -0.0884 -0.1509
28389W        W45237   4.891   4.616   4.559  0.3942 -0.4221 -0.1651
28390W        W45238   6.480  15.100   4.451  0.0807  0.1186 -0.1705
28391W        W45239   6.816   5.495  13.576  0.0161  0.1673  0.2562
28392W        W45240   6.769   1.299  16.022  0.0041 -0.0841  0.0444
28393W        W45241  14.657  12.144   3.027 -0.0534  0.3606 -0.3550
28394W        W45242   1.246   2.887   2.260  0.1345  0.0061 -0.0805
28395W        W45243   5.501   6.278   4.077  0.3290 -0.0508 -0.0853
28396W        W45244   9.740   1.177   4.408  0.4001 -0.3402  0.3548
28397W        W45245   7.241  11.487  15.467 -0.0791 -0.2343 -0.3230
28398W        W45246   5.852  11.549   4.081 -0.1308 -0.1780  0.0638
28399W        W45247   7.606  16.748  11.903  0.0674 -0.0117 -0.0485
28400W        W45248   5.975   5.585  11.090 -0.0650 -0.2535  0.1431
28401W        W45249   6.296   1.384  12.661  0.1762  0.3773 -0.0194
28402W        W45250   4.338   8.943   2.822  0.3003 -0.1191  0.1993
28403W        W45251  12.696   7.065   2.377  0.3708  0.0260 -0.0017
28404W        W45252   3.655  11.054   0.109 -0.3233 -0.0771  0.0570
28405W        W45253  10.681  11.427  15.582 -0.3487  0.0657  0.1485
28406W        W45254   8.939  15.117   5.094  0.1408  0.3862  0.0215
28407W        W45255  17.045  17.747  10.512  0.1066  0.2549  0.0244
28408W        W45256   9.669  10.423  15.956  0.1043  0.1924  0.2464
28409W        W45257   9.581   3.694  12.011 -0.1388 -0.3390 -0.3958
28410W        W45258   9.748   3.185   0.879  0.0838  0.3381  0.1077
28411W        W45259   0.850   5.678  14.334  0.0025 -0.1344  0.1486
28412W        W45260   4.228   3.386  13.482  0.4174 -0.2983  0.0910
28413W        W45261  15.311   4.207  12.323 -0.1811  0.0930  0.1662
28414W        W45262  10.958  13.572   3.604 -0.3557  0.1793 -0.1436
28415W        W45263   4.647   3.228  15.145 -0.0526  0.0865  0.0591
28416W        W45264  15.151   2.774   1.650 -0.5338 -0.0833 -0.1966
28417W        W45265  18.178   2.195  13.956 -0.0167  0.0095  0.1149
28418W        W45266   1.005  11.590  13.635 -0.0354 -0.1138  0.4885
28419W        W45267  11.941  13.726  14.373  0.2304 -0.2714  0.0927
28420W        W45268   4.026  15.243  14.165 -0.5253 -0.0155  0.0332
28421W        W45269   2.106  17.352   0.377  0.1533  0.0111  0.1999
28422W        W45270  11.898   2.640  14.637 -0.2871  0.1904  0.0812
28423W        W45271   0.395  11.347  14.407 -0.0771  0.2165  0.0032
28424W        W45272   2.975   3.019   0.966  0.2570 -0.2238 -0.0766
28425W        W45273  17.835  17.339  14.364  0.0282  0.0922  0.2122
28426W        W45274   8.342  14.849   3.965  0.0131 -0.1816 -0.3657
28427W        W45275  13.342   3.676  14.198  0.1052  0.0628 -0.0981
28428W        W45276  16.853   3.362  10.693 -0.2261 -0.1882  0.1380
28429W        W45277  14.292  14.567  15.208  0.2727  0.2015 -0.0945
28430W        W45278  16.290  15.823   4.218  0.0517 -0.1427  0.2463
28431W        W45279  14.734  14.220  16.054 -0.0043  0.0164  0.2287
28432W        W45280   1.823   3.273   3.490 -0.1365  0.1518  0.1183
28433W        W45281   8.941  11.585   0.425  0.0291 -0.0564  0.3889
28434W        W45282   3.670   5.187   0.567 -0.2000  0.0643 -0.3192
28435W        W45283   9.546   6.439  15.622 -0.2027 -0.0943 -0.0611
28436W        W45284  13.544  12.762  15.897 -0.4719  0.1734 -0.0893
28437W        W45285  12.640   2.827   4.983  0.3348 -0.2305  0.0100
28438W        W45286   3.903  14.638   4.744  0.1020 -0.0303  0.0231
28439W        W45287   7.327   0.762  15.247  0.2979  0.0347  0.0120
28440W        W45288   7.762   7.170  10.704  0.1123  0.0360 -0.0587
28441W        W45289  16.824   4.525   0.820 -0.0287  0.6451  0.2362
28442W        W45290   1.000   8.746  12.890  0.1331 -0.1858  0.0925
28443W        W45291   6.781   9.887  12.734 -0.1923  0.4039  0.2005
28444W        W45292   6.387   4.817   5.063 -0.2247  0.0269  0.2426
28445W        W45293   8.749  14.493   3.196 -0.1187 -0.1312 -0.0573
28446W        W45294  17.520  17.797  15.185 -0.3522  0.0088 -0.1108
28447W        W45295  13.509  16.299  12.361 -0.2055  0.0809 -0.1763
28448W        W45296  10.730   8.530   0.997  0.3846  0.0034  0.3101
28449W        W45297  11.120  16.097   4.461 -0.0986 -0.3271  0.0503
28450W        W45298  11.916   6.887  13.362  0.1506  0.4044 -0.1681
28451W        W45299  15.595  16.939  12.211 -0.2547  0.1936 -0.1074
28452W        W45300   0.297   5.905  13.324 -0.0480 -0.1509  0.0888
28453W        W45301  12.968   5.252  12.071 -0.0602 -0.1994  0.0447
28454W        W45302  15.868   5.242   0.110  0.3476 -0.1469 -0.0467
28455W        W45303  15.286   2.734   3.909  0.2545  0.0318 -0.0197
28456W        W45304   0.283   0.984   3.374 -0.1071 -0.0799  0.0651
28457W        W45305   2.363   0.766   3.417 -0.0152 -0.1453 -0.1744
28458W        W45306  10.813   7.940  13.349  0.0388  0.3129 -0.1082
28459W        W45307   5.001   8.950  15.639 -0.1051  0.1402 -0.0046
28460W        W45308   4.750  16.335  13.955 -0.3284 -0.0989  0.1565
28461W        W45309  11.377  11.511  12.846  0.1043  0.1291  0.2229
28462W        W45310   5.709  14.058  12.329  0.1247  0.1392  0.2376
28463W        W45311   0.815  10.496   3.516  0.1585 -0.2175 -0.1115
28464W        W45312  14.211   3.967  11.335  0.4423  0.3506  0.0637
28465W        W45313  17.673   4.951   4.325 -0.3363  0.0929  0.0104
28466W        W45314  12.801   0.133   0.371  0.0845  0.1897 -0.1886
28467W        W45315   4.858   0.642  11.796 -0.0184  0.0596  0.0850
28468W        W45316   6.093   5.463   2.736  0.0885 -0.0564 -0.0311
28469W        W45317  14.568  17.242  14.277 -0.0256  0.0279 -0.2610
28470W        W45318   6.304  14.004   4.432  0.5003  0.0692  0.0581
28471W        W45319   5.273   3.530  12.708 -0.0001  0.0749  0.3247
28472W        W45320  17.745   9.059   5.110 -0.1829 -0.4141  0.1465
28473W        W45321   6.370   3.654   4.331  0.0567 -0.0440 -0.0084
28474W        W45322   0.300   6.228   3.013  0.1203 -0.2495  0.1577
28475W        W45323  11.970  15.232  12.733  0.1534  0.0088 -0.1161
28476W        W45324   2.427  12.558   5.271 -0.3301  0.0124 -0.2528
28477W        W45325   5.412  15.821  14.664 -0.0232 -0.1941  0.2541
28478W        W45326   8.763  15.060   1.652  0.3655  0.0389 -0.0121
28479W        W45327   2.854  11.321  15.727 -0.1408  0.0642 -0.3457
28480W        W45328   6.385   8.758   0.950  0.0725  0.0651 -0.0703
28481W        W45329   2.208  14.071   0.822  0.4339 -0.0314  0.1042
28482W        W45330   0.377   1.208   1.630 -0.0229 -0.0940  0.5283
28483W        W45331  10.058  10.707   2.510 -0.1185  0.0998 -0.2557
28484W        W45332   8.367   8.420  15.848 -0.1031  0.1964 -0.3817
28485W        W45333   6.407   5.875  13.816  0.2059  0.1682 -0.1844
28486W        W45334   4.260   8.620  13.867 -0.0270  0.1913 -0.1692
28487W        W45335  10.391   5.494  15.215 -0.0974 -0.1661 -0.0365
28488W        W45336  14.820   4.273  14.924  0.1986 -0.1362 -0.1243
28489W        W45337   5.270  10.937  14.606  0.0074  0.2030 -0.0559
28490W        W45338   0.003   4.646   2.312 -0.0491  0.0512  0.0258
28491W        W45339  16.946   7.236   0.266 -0.1598  0.1333 -0.1127
28492W        W45340  14.332  13.640  13.389  0.1854  0.0246 -0.1167
28493W        W45341   3.018  17.096   4.777  0.0375  0.1330 -0.0846
28494W        W45342  15.399  10.107  15.240  0.2529  0.1450  0.1278
28495W        W45343  16.760   1.844   1.104  0.0244 -0.0917  0.0344
28496W        W45344   7.033  13.348   4.635 -0.0651 -0.1404  0.1465
28497W        W45345  16.056   9.357   0.997  0.1529  0.4822  0.0485
28498W        W45346  14.958   8.233   4.651 -0.2232  0.2966 -0.1585
28499W        W45347   1.042   5.419  15.891 -0.2852 -0.0033 -0.1511
28500W        W45348  14.306  10.037  14.592 -0.2170  0.1299 -0.0119
28501W        W45349  13.431   4.915   0.008  0.1594  0.0196 -0.2035
28502W        W45350   1.269  15.042  14.456  0.1183  0.2332 -0.0710
28503W        W45351   7.160   0.464   3.223 -0.1150  0.0259  0.2203
28504W        W45352   7.028   4.774  14.840 -0.2059  0.1147  0.3297
28505W        W45353  16.734  10.467   4.018  0.1967 -0.5197 -0.3406
28506W        W45354   2.418   7.850   0.645 -0.1789  0.0011  0.0953
28507W        W45355   1.814  12.227  15.101 -0.2781 -0.0599  0.2447
28508W        W45356  11.029   8.971   0.863  0.1720 -0.1931  0.3817
28509W        W45357  16.546   2.919  14.054 -0.0149 -0.1007 -0.0372
28510W        W45358  10.072   9.829  11.312  0.0747 -0.1248 -0.0270
28511W        W45359   6.618   4.550  13.858 -0.0122 -0.1010 -0.3720
28512W        W45360   6.294   5.729  16.089 -0.1592 -0.1229 -0.0610
28513W        W45361  16.985   4.418  15.819  0.0817  0.0586  0.2356
28514W        W45362  14.047   9.792   2.179  0.0116  0.0268  0.1904
28515W        W45363  17.855   6.712   3.358 -0.1795 -0.0327  0.1607
28516W        W45364   9.887   3.525   3.392 -0.2695 -0.2691  0.2286
28517W        W45365  14.683  15.291  15.568  0.0994 -0.0925  0.2359
28518W        W45366   3.188   1.882   3.264 -0.3397 -0.2579  0.0936
28519W        W45367   1.927  12.985   3.023 -0.0361  0.1081 -0.1494
28520W        W45368   9.251   9.762   5.732 -0.2599  0.0553 -0.1722
28521W        W45369  10.859   9.832  12.271 -0.1686 -0.1381 -0.0150
28522W        W45370   6.817  16.875  11.265  0.0951  0.2170  0.1395
28523W        W45371   3.208   6.457   3.813  0.1045  0.1058 -0.1403
28524W        W45372  10.525  17.949  10.336 -0.0301  0.0864 -0.6268
28525W        W45373   0.710  10.755   1.531 -0.1872  0.1426  0.0721
28526W        W45374  11.584   6.259   1.874  0.0428  0.0261 -0.0300
28527W        W45375  15.805   0.369  11.457 -0.3386 -0.0005  0.3812
28528W        W45376  15.566   2.517  11.247  0.2805  0.1242  0.2132
28529W        W45377   6.016  12.311   1.023  0.1208 -0.2038  0.2300
28530W        W45378   5.109  13.460  10.997  0.1520 -0.1765 -0.1543
28531W        W45379   7.696  16.346  13.493 -0.1368 -0.1331  0.0264
28532W        W45380  10.187   9.437   3.665  0.2287 -0.0254 -0.0367
28533W        W45381   2.257  12.754   4.825 -0.1051 -0.1777 -0.2162
28534W        W45382  12.759   3.754  15.879 -0.0482  0.1785 -0.0770
28535W        W45383   7.989   1.611  14.640 -0.1684 -0.1081  0.1145
28536W        W45384   8.502   8.495  12.987  0.3954  0.1405 -0.0530
28537W        W45385  13.796  10.950   0.778 -0.0187 -0.2956  0.0563
28538W        W45386  17.262  10.829  13.024 -0.2610  0.0420 -0.1450
28539W        W45387  15.028  10.530  13.448 -0.0104 -0.0890 -0.0237
28540W        W45388  12.827   7.776   2.020 -0.1385  0.0788 -0.0935
28541W        W45389   6.728   4.380  13.178  0.1650 -0.1687  0.0645
28542W        W45390  12.771  11.397  15.532  0.5487 -0.1079  0.0788
28543W        W45391   1.009   1.743  15.301  0.3262  0.0599  0.1749
28544W        W45392   7.994   1.873   1.020  0.1018 -0.1914  0.0546
28545W        W45393  11.567  11.670   3.418 -0.0081  0.0328  0.0621
28546W        W45394   8.918  16.689   0.939  0.1132 -0.2334  0.1165
28547W        W45395  11.438  18.189  12.757 -0.2062  0.1418 -0.0984
28548W        W45396   2.125  10.083   3.854  0.0069  0.2165 -0.4187
28549W        W45397  11.183  14.292   2.204  0.0176 -0.0185  0.2433
28550W        W45398   9.028   5.419  13.633  0.0411  0.1800 -0.2939
28551W        W45399   1.561  10.889  16.103 -0.0898  0.1809  0.1371
28552W        W45400  10.508   8.291   2.928  0.1658  0.1694 -0.1100
28553W        W45401   6.352   9.763   0.224 -0.0711  0.2225  0.1064
28554W        W45402   3.539   3.944   3.070 -0.0523  0.0616 -0.1027
28555W        W45403  14.414   3.393  11.625  0.2207 -0.1198  0.3700
28556W        W45404   6.438  15.636  10.054 -0.0196  0.1985 -0.1131
28557W        W45405   3.570   6.635   0.556 -0.0267 -0.1497  0.0260
28558W        W45406   5.411   4.460  13.754  0.2049 -0.1608 -0.2007
28559W        W45407   3.332   7.658  12.893  0.0243 -0.0342 -0.0843
28560W        W45408  16.108  15.268   1.374 -0.0530  0.0035  0.1441
28561W        W45409   7.890  12.576   3.784 -0.0113 -0.0107  0.0474
28562W        W45410  17.553   1.265  11.428 -0.1042 -0.0666  0.1760
28563W        W45411   1.050   8.915  10.286  0.3962  0.0578  0.2676
28564W        W45412   3.477  12.678  15.559  0.0207  0.0974 -0.6886
28565W        W45413   8.438   8.289   1.064  0.0732  0.0449  0.1545
28566W        W45414   7.775   3.944  15.773 -0.0615  0.0640 -0.2502
28567W        W45415   2.642   2.752   3.691  0.0393  0.2051 -0.0730
28568W        W45416   3.802  11.039   3.475  0.2729 -0.2453  0.1864
28569W        W45417   2.156  10.288  16.041  0.1394  0.1665  0.1923
28570W        W45418   8.826   0.548   3.089  0.1284  0.0001 -0.0802
28571W        W45419   0.087   2.986   2.445  0.0996 -0.0628  0.0931
28572W        W45420  10.440   6.648   3.103 -0.0558 -0.1129 -0.2818
28573W        W45421  10.593  12.579   3.153  0.0410  0.0146 -0.1034
28574W        W45422  13.632  15.053  12.738  0.1089  0.1659  0.1622
28575W        W45423   5.574   6.543   3.646  0.2077 -0.0235  0.2044
28576W        W45424  11.505  14.869   2.629  0.1174 -0.2090  0.2476
28577W        W45425   7.367   6.303  16.104 -0.1275 -0.2346  0.2298
28578W        W45426   2.840   8.220  16.109  0.1932  0.2219 -0.0696
28579W        W45427  13.194  17.527  13.473  0.1012 -0.4415  0.0005
28580W        W45428   3.989  14.850  10.814 -0.0288 -0.0086 -0.0001
28581W        W45429   7.287   3.708  15.584  0.0582  0.1949 -0.0309
28582W        W45430  15.395  18.140   0.152 -0.2592 -0.0128 -0.2367
28583W        W45431   0.438  13.993  12.815 -0.1922  0.3156  0.2856
28584W        W45432   1.980   4.302   0.961  0.0342 -0.2189  0.0659
28585W        W45433  12.715  14.077  12.607 -0.1110 -0.2217 -0.1261
28586W        W45434  17.783  14.219  14.350 -0.0618  0.1141 -0.1076
28587W        W45435   9.250   9.591   3.809  0.0761  0.2877  0.1345
28588W        W45436   5.118   7.780   3.511 -0.2833 -0.0570  0.0152
28589W        W45437   3.300   9.455  14.036  0.0023 -0.0099 -0.3171
28590W        W45438   0.524   0.713  13.395 -0.1018 -0.2034  0.0047
28591W        W45439   7.600   8.466   3.268  0.3493  0.1154  0.1203
28592W        W45440  17.687  15.571  13.201 -0.1800 -0.0675 -0.1034
28593W        W45441  11.865   9.024  14.870  0.4709  0.1611  0.1531
28594W        W45442   4.539   2.622  14.427 -0.0260 -0.0369 -0.1652
28595W        W45443   3.976  14.651  14.649 -0.0137 -0.4010  0.3124
28596W        W45444   2.227   0.632   4.889 -0.4492  0.0295 -0.2286
28597W        W45445   6.578  15.537  14.981  0.2217 -0.4471 -0.1019
28598W        W45446   8.294  13.636   3.334  0.4086  0.0151 -0.0010
28599W        W45447  17.246   9.430  14.155 -0.1426 -0.1109  0.2578
28600W        W45448   9.994   9.158  14.324 -0.2043  0.1594 -0.0386
28601W        W45449   4.797   6.619   2.538  0.1424  0.0374 -0.2998
28602W        W45450   9.033  12.248   2.106  0.4470  0.1479 -0.0219
28603W        W45451   5.990   8.175   3.085 -0.1032  0.0725 -0.1632
28604W        W45452   4.631   3.952   2.128 -0.2058  0.2988  0.3364
28605W        W45453   7.467  12.108   1.614  0.2050 -0.1189  0.1449
28606W        W45454  12.000   5.488  13.321  0.2173 -0.0896 -0.2149
28607W        W45455   9.855  11.815  11.931 -0.3224  0.0693 -0.2198
28608W        W45456  13.049  16.382  14.263  0.1177 -0.0918  0.1722
28609W        W45457  11.894  14.943  15.292 -0.1553 -0.1426  0.2072
28610W        W45458   2.448  14.622  14.682  0.1868  0.1314 -0.0825
28611W        W45459  11.602   6.021  13.890  0.1997 -0.1630 -0.0090
28612W        W45460   9.354  14.520   1.816  0.0877 -0.1161 -0.3132
28613W        W45461   9.787   4.303  12.645 -0.0220 -0.3190 -0.1864
28614W        W45462   6.773  17.580   3.080 -0.0975  0.0839  0.2473
28615W        W45463  15.388  10.168  12.761  0.0360 -0.0866  0.1359
28616W        W45464   2.695   3.992   1.892  0.0807  0.4030  0.3632
28617W        W45465  14.740   9.242   2.082 -0.1025 -0.0619  0.2639
28618W        W45466  17.751   2.272   0.324  0.1273  0.0061 -0.0138
28619W        W45467   1.316   6.023  13.261 -0.1362 -0.3655 -0.0608
28620W        W45468  11.051   5.082  15.023  0.4856  0.0242 -0.1709
28621W        W45469   3.774  14.747  14.042  0.1033 -0.2016  0.1279
28622W        W45470  10.663   3.232   4.566  0.1827  0.4530  0.1166
28623W        W45471  14.652   0.897  10.029  0.0971 -0.0377  0.2575
28624W        W45472  15.948  16.360   0.248 -0.3066 -0.1904 -0.2542
28625W        W45473   5.040   6.549  13.552 -0.2585 -0.1085  0.0756
28626W        W45474   4.080   5.482  11.679 -0.2312 -0.3527  0.1121
28627W        W45475  14.414   7.008   2.993 -0.0931 -0.0020  0.0779
28628W        W45476   5.093  13.865  14.100 -0.1737  0.0059  0.3135
28629W        W45477  16.644   0.523  14.568  0.1025  0.0455  0.0252
28630W        W45478  13.473  13.670  13.205 -0.2428 -0.1182 -0.1067
28631W        W45479  11.614   7.008   1.557 -0.0281  0.4427  0.2846
28632W        W45480  12.691  13.194  10.462  0.3743  0.0492  0.0652
28633W        W45481  11.596   1.262  13.890  0.0418  0.1499  0.1803
28634W        W45482   1.464   3.041  11.903  0.0707  0.2621 -0.2093
28635W        W45483   6.030  15.348   3.112  0.2607 -0.2001  0.1397
28636W        W45484  14.821   2.772   2.979 -0.2070  0.2262  0.2079
28637W        W45485   5.088   0.374   5.378 -0.1831 -0.2073 -0.1458
28638W        W45486   7.113  16.117  15.132  0.0868 -0.0410  0.0177
28639W        W45487   8.353   7.853  11.990  0.1375 -0.0295 -0.0869
28640W        W45488  12.885   2.576  14.521 -0.2742 -0.1453  0.1286
28641W        W45489   4.234   6.815  12.403 -0.0801 -0.1816 -0.0202
28642W        W45490   0.756   3.184  15.199 -0.0036 -0.0539  0.0261
28643W        W45491  11.964  16.191  14.335 -0.0644 -0.0646  0.0963
28644W        W45492  10.342   0.242   2.202  0.1922  0.0364  0.0427
28645W        W45493  13.382  15.145  14.980  0.0404 -0.2815 -0.1395
28646W        W45494   1.886   9.086  14.668  0.0455 -0.4763  0.2433
28647W        W45495   1.601   6.876  15.082  0.0012  0.2105  0.3928
28648W        W45496  12.114   0.055   2.056 -0.0837 -0.2767 -0.1953
28649W        W45497   1.686  12.036  11.294 -0.3152 -0.2648 -0.1285
28650W        W45498   3.577   1.998   5.236  0.1876  0.1987  0.0742
28651W        W45499   1.970   9.930  13.663  0.2027 -0.1974 -0.3028
28652W        W45500   3.353  11.139  11.757 -0.0376  0.1610 -0.3218
28653W        W45501  14.492  10.815   4.889  0.1076 -0.0812 -0.0402
28654W        W45502  15.086   6.433   4.441 -0.2948 -0.3238  0.3048
28655W        W45503  11.895  12.162  11.066 -0.0251 -0.0423 -0.1195
28656W        W45504  11.610  18.032  13.905 -0.0418  0.2190  0.2058
28657W        W45505   2.797   7.417   0.951  0.4078 -0.0582  0.0341
28658W        W45506   3.312   7.984   1.722 -0.1324 -0.0441  0.1658
28659W        W45507   3.619   5.034   2.808 -0.0688  0.2154  0.0917
28660W        W45508   7.333  18.107  12.516 -0.1191  0.1392  0.4520
28661W        W45509   3.020   7.063  15.801 -0.0802 -0.3853 -0.4454
28662W        W45510  17.987  17.666  15.313 -0.0269 -0.2004 -0.1655
28663W        W45511   3.092  12.615   4.673 -0.1309 -0.2511  0.2099
28664W        W45512   3.868  17.255  14.791 -0.2196  0.2068 -0.1315
28665W        W45513   1.697   7.169  11.353 -0.4791 -0.0642 -0.2971
28666W        W45514   1.049  16.026  15.811  0.2658 -0.1062  0.2825
28667W        W45515  11.534  12.263  12.839 -0.0249  0.0172  0.1390
28668W        W45516  13.864   0.357   1.678 -0.0743  0.1606 -0.2716
28669W        W45517   6.163  13.885   1.207 -0.2914 -0.1584 -0.0980
28670W        W45518   6.850   9.235  12.533  0.0760 -0.1821  0.1636
28671W        W45519  15.884  10.380  13.641  0.0477  0.0286 -0.1885
28672W        W45520   3.849   4.261   3.514 -0.0672  0.0049 -0.1498
28673W        W45521   4.324  16.147  15.693  0.0613  0.0604 -0.3372
28674W        W45522   9.843   2.221   2.644  0.1549 -0.2190 -0.1275
28675W        W45523  16.359  12.340   1.491  0.0200 -0.1126  0.2929
28676W        W45524  15.796  14.599   4.378  0.0470 -0.1611  0.1909
28677W        W45525   5.486  13.611  11.241  0.0488  0.1056 -0.1017
28678W        W45526   7.744   9.873   3.200 -0.1025  0.1476 -0.3362
28679W        W45527  10.730   4.715   0.225 -0.2365  0.1268 -0.0689
28680W        W45528  13.843   8.487   4.505 -0.2487 -0.4296  0.4338
28681W        W45529   4.331   9.324  13.194  0.1009 -0.2926  0.1878
28682W        W45530  16.443   4.359  12.867  0.1381  0.4282 -0.1335
28683W        W45531   3.322   5.370   5.130  0.1825  0.1261  0.5018
28684W        W45532   6.937  11.634  13.094  0.0744 -0.2791 -0.0463
28685W        W45533   4.658   4.319   3.034  0.1394 -0.3437 -0.0327
28686W        W45534   3.337  16.173   3.303 -0.0306  0.0988  0.1924
28687W        W45535  12.409   7.618   1.194  0.1551 -0.3294 -0.2602
28688W        W45536  11.490   2.066  13.366  0.1728 -0.1473 -0.2237
28689W        W45537   8.412  16.031  11.407 -0.0384  0.0972 -0.2016
28690W        W45538   0.581   7.567  14.587 -0.2841 -0.0349 -0.0914
28691W        W45539   1.399   2.207  12.982  0.2522  0.1542 -0.1847
28692W        W45540   5.369   1.425   4.083 -0.3040  0.1770  0.2010
28693W        W45541  14.727  13.917  11.699  0.1930  0.1217  0.1632
28694W        W45542   6.644   6.205   5.169  0.1234  0.1421 -0.0668
28695W        W45543   8.573  15.068  12.900 -0.1662 -0.0803  0.1463
28696W        W45544  12.496   0.013   0.872  0.1487 -0.3212  0.4544
28697W        W45545  12.089   4.298   1.439 -0.0181 -0.3769 -0.3621
28698W        W45546   5.909   7.439  15.178  0.3407 -0.2052 -0.3003
28699W        W45547   2.850   0.254  11.384 -0.0543  0.3991 -0.1996
28700W        W45548  16.354   5.620  12.571 -0.0515  0.0650 -0.1019
28701W        W45549   0.970  16.165   2.207  0.0153  0.1116  0.0169
28702W        W45550  17.244   0.404  13.927  0.4521 -0.2581 -0.2237
28703W        W45551  15.414  17.030  11.719 -0.1112  0.0135 -0.0730
28704W        W45552   7.291  14.557   0.854 -0.1272  0.0732  0.3390
28705W        W45553  18.010  12.455   0.861  0.2209  0.2405  0.0283
28706W        W45554  12.834  16.634   3.509 -0.1818 -0.2833  0.4214
28707W        W45555   6.713   5.671  10.668  0.2144 -0.0566  0.0145
28708W        W45556   3.339   7.717   4.860 -0.0589  0.1752  0.2468
28709W        W45557   6.068  15.072  15.783 -0.1254 -0.0144  0.0597
28710W        W45558   6.465   7.829   6.029  0.0068  0.0811 -0.0307
28711W        W45559  15.625   4.937   1.644  0.0178 -0.1026 -0.2136
28712W        W45560   3.813   9.897   1.931  0.0691  0.1369  0.1538
28713W        W45561  10.180  10.817  12.071 -0.0887  0.1513 -0.2781
28714W        W45562   3.709   6.466   1.590  0.1318 -0.1582 -0.0949
28715W        W45563  15.277   8.534   1.985 -0.0612  0.0479 -0.3005
28716W        W45564  12.998   9.278  11.614 -0.4005  0.0108 -0.0006
28717W        W45565   1.988   6.932  16.027  0.1026 -0.0800  0.1606
28718W        W45566  13.383   4.967  11.971  0.2225 -0.2451 -0.1623
28719W        W45567  10.311   7.821   3.083  0.0914 -0.1204 -0.0076
28720W        W45568  12.698  12.175  13.322  0.3111 -0.1146  0.0737
28721W        W45569   3.966   5.289  14.947  0.3606 -0.2658  0.1021
28722W        W45570  15.432   4.991   3.039 -0.0832 -0.0618 -0.1497
28723W        W45571   8.747  10.183  15.378 -0.1729 -0.0981  0.4337
28724W        W45572  10.790   5.179   4.918 -0.2285  0.1021  0.3378
28725W        W45573   4.533   1.354  11.846 -0.0497  0.0036 -0.0669
28726W        W45574  13.059  12.080  11.038 -0.3900 -0.1881  0.0133
28727W        W45575  11.517  10.887   4.907  0.1904  0.1662  0.1060
28728W        W45576   1.574  14.121  13.725  0.1953  0.0584  0.1231
28729W        W45577   4.450   1.705  14.727 -0.2186 -0.1396  0.2720
28730W        W45578   7.122   5.557   0.447 -0.2525 -0.0413 -0.1639
28731W        W45579   4.200   5.676   2.176  0.1382  0.0652  0.1935
28732W        W45580   2.215  10.713   3.048 -0.1604 -0.0913  0.3547
28733W        W45581   1.270   2.163  11.715  0.0919  0.0239  0.0430
28734W        W45582   0.008   0.930   5.443  0.0953 -0.1477  0.0351
28735W        W45583   0.177  12.689   4.529  0.1295  0.1251 -0.2582
28736W        W45584  13.130   7.652   4.163  0.0998 -0.1577  0.1287
28737W        W45585   9.150  17.407   3.852  0.0608 -0.2575 -0.3578
28738W        W45586  11.820  11.814  11.373 -0.0104 -0.2277  0.1620
28739W        W45587   3.049  15.221  12.715  0.2921  0.0050  0.1108
28740W        W45588  13.123  12.650  15.667 -0.1543 -0.0137  0.1492
28741W        W45589  12.308  10.678  14.945 -0.2134  0.0114 -0.1674
28742W        W45590   8.117  17.927  13.535 -0.0451 -0.1071  0.0787
28743W        W45591   7.717  14.155   4.206 -0.3464 -0.0174  0.0386
28744W        W45592  15.316   7.062   5.192  0.0038 -0.2051 -0.2453
28745W        W45593   3.855   4.404   4.059  0.2121  0.0006 -0.0126
28746W        W45594  14.290   1.288  12.359  0.0671 -0.2421  0.2746
28747W        W45595   5.309  10.131   4.617  0.1266 -0.1379  0.2316
28748W        W45596  12.972  15.004   3.943 -0.0661 -0.3488  0.2909
28749W        W45597   0.063   7.090   2.196 -0.2249 -0.1598  0.0660
28750W        W45598   8.077  17.400   0.708  0.2386  0.0944  0.0742
28751W        W45599  10.465   3.889  14.292 -0.2479  0.1069  0.2347
28752W        W45600   4.374  16.715  12.560  0.2114  0.0479  0.1916
28753W        W45601   3.394  13.785   0.408  0.1000 -0.1397 -0.1045
28754W        W45602   0.195  15.465   4.409  0.3519 -0.0077  0.0810
28755W        W45603  11.468   4.049   4.646 -0.3726  0.0662 -0.3325
28756W        W45604   8.545   1.593  12.483  0.0506 -0.2053  0.0688
28757W        W45605  16.804   6.394   2.967  0.2419  0.1059  0.1120
28758W        W45606   5.453   7.084  14.101 -0.0401  0.2360 -0.0795
28759W        W45607   6.595   5.389   0.594 -0.0700  0.0962 -0.3025
28760W        W45608  10.036   6.910  10.646 -0.0176 -0.0264 -0.0143
28761W        W45609  12.738  12.221   4.590 -0.0637 -0.0479  0.2206
28762W        W45610   2.827   5.948  13.864 -0.2918 -0.4041 -0.2903
28763W        W45611  13.280   7.379  15.134  0.2704  0.1943  0.0580
28764W        W45612   7.111  16.604   1.056  0.2858  0.2121  0.1379
28765W        W45613  13.733   0.560   0.587 -0.1354  0.0901 -0.1900
28766W        W45614   2.610  17.294  12.212  0.1397  0.0513 -0.1280
28767W        W45615  15.393   1.723  11.764 -0.2418 -0.0684  0.0461
28768W        W45616   9.430  15.143   0.635 -0.2471 -0.2160  0.0070
28769W        W45617  14.761  15.539  12.235 -0.0902  0.1223 -0.0415
28770W        W45618  15.370   6.091  15.933 -0.3073 -0.1924 -0.0054
28771W        W45619   8.310   5.939  13.803 -0.2691 -0.0710 -0.1376
28772W        W45620  13.817  12.896  14.863 -0.3211  0.1665 -0.0776
28773W        W45621  10.132   3.867   3.630 -0.0659 -0.1223 -0.2564
28774W        W45622   3.479   2.558   1.475  0.0261  0.3469 -0.0787
28775W        W45623  12.096   9.516  11.785  0.0683  0.0904 -0.0354
28776W        W45624  17.958  13.210  11.024 -0.0539 -0.1841  0.0971
28777W        W45625   6.398   9.977   1.932  0.3529 -0.0090  0.3317
28778W        W45626  12.360  15.096   5.010  0.2480 -0.0013 -0.1955
28779W        W45627   8.786   9.348  15.806  0.3173 -0.0123 -0.1322
28780W        W45628   2.898  14.820  12.351 -0.0936  0.2417  0.0409
28781W        W45629   5.275  13.688   2.611 -0.0057 -0.0142  0.0473
28782W        W45630  15.419   0.244  14.394  0.3359  0.2387 -0.2448
28783W        W45631  15.892   6.321  16.078 -0.1681 -0.0298  0.0956
28784W        W45632   9.976   7.304   4.373 -0.0870  0.0967  0.2226
28785W        W45633   9.675   9.322   2.210 -0.2803 -0.1403 -0.1329
28786W        W45634   8.784   2.783   3.492  0.1002 -0.0981 -0.3992
28787W        W45635  12.484  14.224   4.035  0.0960  0.0514  0.0392
28788W        W45636  13.004  15.454   0.728 -0.0841  0.4059 -0.3160
28789W        W45637   8.387  17.918  15.845  0.1780  0.0026  0.0943
28790W        W45638   9.995  17.900  14.311  0.0512  0.0159  0.0951
28791W        W45639   8.783   4.757   2.799 -0.3283  0.1164 -0.3513
28792W        W45640   9.028  15.659   4.136  0.0135  0.0647  0.0868
28793W        W45641  13.896  17.558  10.814 -0.0588 -0.0558  0.0847
28794W        W45642  18.067  16.710   1.735  0.0846 -0.0678 -0.4283
28795W        W45643   2.897   1.009  10.742 -0.1356  0.0736 -0.0564
28796W        W45644  10.870  15.569  13.015  0.2300 -0.1303 -0.1336
28797W        W45645   8.207  16.811   3.780  0.0590 -0.0791 -0.0822
28798W        W45646  15.208   5.655  12.957  0.0553  0.2315  0.0551
28799W        W45647   3.340   0.587  12.650  0.1082  0.0610  0.1386
28800W        W45648   7.129  11.282   2.343 -0.4232 -0.1475 -0.1894
28801W        W45649  11.107   6.747  13.410 -0.1016  0.0630 -0.0033
28802W        W45650  13.457   5.608   1.109  0.0774 -0.2007 -0.4432
28803W        W45651  17.565   8.983  13.933  0.0345 -0.5434  0.1337
28804W        W45652   7.971   6.951  14.132  0.1720  0.4357  0.1378
28805W        W45653  14.073  12.327  12.769  0.1483  0.0539 -0.0097
28806W        W45654  14.459  12.926   4.905 -0.0156 -0.0002 -0.2969
28807W        W45655  15.331  13.617   1.834  0.1158 -0.1357 -0.1327
28808W        W45656  11.223  11.399  15.869  0.1033 -0.3964 -0.0038
28809W        W45657   3.092  10.511  15.828 -0.1740 -0.0192  0.4198
28810W        W45658   3.949  11.113  11.533 -0.0812  0.2515  0.1669
28811W        W45659  13.083  15.122   1.592  0.0882  0.0217  0.0036
28812W        W45660   4.546   4.233  12.995 -0.0546 -0.2010 -0.0758
28813W        W45661  17.690  17.549  11.861 -0.1730 -0.2244  0.4880
28814W        W45662   8.301  13.167   4.200 -0.3189 -0.1795 -0.0486
28815W        W45663   5.136   6.180   2.275  0.0998 -0.0674 -0.1023
28816W        W45664  14.653  11.257   1.148 -0.2146  0.0416 -0.1306
28817W        W45665   5.989   2.446  14.202 -0.0966  0.2540  0.0372
28818W        W45666  15.649   4.795  14.604 -0.0156  0.1231  0.0950
28819W        W45667   5.625  11.500  10.722  0.1573 -0.0235  0.0377
28820W        W45668  14.010  17.265  15.677  0.0356 -0.3172  0.0287
28821W        W45669   0.604  12.973   4.563 -0.0579 -0.2865 -0.0781
28822W        W45670   1.452   3.671   3.247  0.1659  0.0223  0.2190
28823W        W45671   9.675  10.470  14.146  0.0958 -0.0398  0.1568
28824W        W45672  15.075   5.816   2.968 -0.2079  0.0832  0.1607
28825W        W45673   9.478   8.083   1.268 -0.3690 -0.0672  0.0669
28826W        W45674  17.531   1.765   0.912 -0.1615 -0.1831 -0.2437
28827W        W45675  17.670  15.586  16.114  0.1453  0.3321 -0.1743
28828W        W45676   6.489   7.192   1.202 -0.1288 -0.1387  0.0115
28829W        W45677   7.405   6.142   3.409 -0.1960 -0.1632  0.1332
28830W        W45678   7.131   7.224  11.135 -0.1337 -0.1735  0.0782
28831W        W45679   4.051   7.982   2.163  0.0749 -0.0169  0.2183
28832W        W45680  10.403  12.179  10.910  0.0415  0.0227 -0.0657
28833W        W45681  11.713   2.597   2.956 -0.0552  0.0166 -0.0870
28834W        W45682  13.229   0.347   0.497  0.0790  0.2146 -0.0658
28835W        W45683  12.941   9.419  15.680 -0.1086 -0.1822  0.0178
28836W        W45684   9.954   0.107   0.679  0.1112 -0.1045  0.0669
28837W        W45685  17.339  10.568   4.079 -0.4051 -0.2550 -0.0892
28838W        W45686  18.023   7.861  11.487  0.0867 -0.0071 -0.1050
28839W        W45687   6.513   9.832  11.338 -0.0165 -0.2848 -0.2263
28840W        W45688   3.293   0.639  14.852  0.0084 -0.0809 -0.1087
28841W        W45689  12.169   1.253  12.538 -0.2918  0.0661 -0.0633
28842W        W45690   0.660   9.910  15.779  0.3371 -0.1101  0.3624
28843W        W45691   5.370  12.889  14.628 -0.1055 -0.2307  0.0919
28844W        W45692  14.628   3.806  15.107 -0.0011 -0.1126  0.0803
28845W        W45693   2.307   4.720  14.199 -0.0916  0.1057  0.1459
28846W        W45694  14.389   8.671  12.374 -0.2116  0.0984 -0.3501
28847W        W45695  17.920  10.565   3.391  0.0917  0.0004 -0.4061
28848W        W45696  16.128   4.431  11.239 -0.1984 -0.1803  0.3957
28849W        W45697   0.455  15.412   3.018  0.1283  0.0068 -0.3086
28850W        W45698   5.106  11.006   2.699  0.1432 -0.2804  0.0685
28851W        W45699   8.171   4.233  12.252 -0.4088 -0.1334 -0.0006
28852W        W45700   7.497   7.604  13.078 -0.0605 -0.0111 -0.0617
28853W        W45701   3.948   2.611   4.294  0.5227  0.1886 -0.4480
28854W        W45702   2.560   2.041  12.079 -0.2791 -0.1507 -0.3701
28855W        W45703   1.750  16.512   1.815 -0.2433 -0.0533 -0.1525
28856W        W45704   6.110   7.660   4.432  0.1225 -0.4697  0.0884
28857W        W45705   0.609   6.015  14.701 -0.2422 -0.2016 -0.0324
28858W        W45706   6.130   8.482   3.836  0.1049  0.2415 -0.2521
28859W        W45707  10.701  12.174  14.879  0.3878 -0.0731  0.0016
28860W        W45708  10.894   9.078   2.467  0.2456  0.0281  0.3526
28861W        W45709  10.060   8.278  13.311  0.1361  0.0008  0.1507
28862W        W45710   5.482   2.822  12.671 -0.1690 -0.0139  0.1667
28863W        W45711   1.810   0.981   2.748  0.2304 -0.4045  0.2406
28864W        W45712  14.016  10.931   2.505 -0.1284 -0.0823  0.3060
28865W        W45713  14.959  12.712  11.762  0.1473  0.2310  0.0476
28866W        W45714  16.692   1.326  11.815  0.2351 -0.0973  0.2834
28867W        W45715  11.050   0.724  11.783 -0.2144 -0.2394  0.3311
28868W        W45716   6.002  12.573  15.029  0.0956  0.0981  0.0501
28869W        W45717   2.964   6.298   3.412 -0.0734  0.0781 -0.2384
28870W        W45718   2.036  15.183   3.012  0.1982 -0.1412 -0.1201
28871W        W45719  12.167  16.439  11.140 -0.1941 -0.1071 -0.0224
28872W        W45720  16.872  13.542  14.187 -0.0021 -0.0212  0.0889
28873W        W45721   3.903  14.812   2.175 -0.0774 -0.0237  0.1521
28874W        W45722  10.169  11.400  15.761  0.1473 -0.1563  0.0520
28875W        W45723  10.553  12.299  13.459 -0.1085 -0.1996 -0.2921
28876W        W45724   5.939   6.771  15.647 -0.2418 -0.3787  0.1812
28877W        W45725  15.399  17.619   4.101  0.2641  0.2398  0.0498
28878W        W45726  13.965   3.696  10.866  0.0244 -0.0364 -0.1181
28879W        W45727  15.678  15.349  15.720  0.0516 -0.2672  0.0836
28880W        W45728   2.935   4.595  15.148 -0.1778 -0.0269  0.2600
28881W        W45729   7.331  12.414   0.525 -0.1590  0.2866  0.2039
28882W        W45730  13.712   4.112   4.137 -0.0576 -0.2663 -0.0727
28883W        W45731  11.857   6.466  11.399  0.2455  0.0896  0.1239
28884W        W45732  14.301  10.376  11.870 -0.5280 -0.3438 -0.0009
28885W        W45733   8.317  10.093   3.956 -0.0766 -0.1300 -0.1718
28886W        W45734   8.231   0.189   3.996  0.2683  0.3022  0.2314
28887W        W45735   0.034  15.525  14.226 -0.0910 -0.1857 -0.0176
28888W        W45736   3.747  15.293   1.545  0.2607 -0.2125  0.1854
28889W        W45737   1.523  13.158   0.193  0.0223  0.3905 -0.3274
28890W        W45738   7.018   7.391  13.116 -0.2421  0.1861  0.0013
28891W        W45739  14.622  14.448  14.783 -0.0550 -0.0526 -0.2452
28892W        W45740  17.728   9.877   1.721 -0.0049 -0.2262  0.0447
28893W        W45741   7.054   5.560  10.331 -0.1589  0.0409  0.1119
28894W        W45742   0.435  11.565   1.681 -0.1620  0.4209 -0.0054
28895W        W45743   1.003  16.222   3.116 -0.2232  0.2932 -0.2685
28896W        W45744  12.503  17.920   0.495 -0.0404 -0.0350 -0.2122
28897W        W45745  12.197   3.417   2.624  0.0312  0.1534 -0.0809
28898W        W45746   8.869  17.920  15.101  0.1044 -0.0386  0.3877
28899W        W45747   2.693  16.849   1.547 -0.3723 -0.2464 -0.4446
28900W        W45748  11.006  12.203  13.564  0.0365 -0.5467  0.1366
28901W        W45749   1.157  15.610  15.491 -0.1831 -0.0033  0.0440
28902W        W45750   9.139   3.269  14.492 -0.1314 -0.0812  0.3248
28903W        W45751  16.298  17.678  12.256 -0.2397 -0.1258  0.0563
28904W        W45752   3.334   5.372  10.107 -0.0020  0.1041  0.1367
28905W        W45753   9.316   8.716   4.828  0.0945 -0.2386 -0.2420
28906W        W45754  12.406  14.653  11.114 -0.0058 -0.0314 -0.4001
28907W        W45755   0.844  17.841   3.574 -0.0557 -0.0820  0.0203
28908W        W45756   2.171  16.971  14.339  0.0219  0.1150 -0.2044
28909W        W45757  11.058   6.603   2.129  0.3500 -0.1985 -0.0111
28910W        W45758  13.049   6.886  12.492 -0.0238 -0.3651  0.2688
28911W        W45759  17.931  14.497  15.869 -0.0014  0.1765  0.0603
28912W        W45760  14.447  17.430  10.632 -0.0632  0.0820  0.1416
28913W        W45761  14.235   2.010  11.773  0.2354  0.1940 -0.2292
28914W        W45762   7.399   4.543  15.052 -0.0629 -0.2226  0.0470
28915W        W45763  11.334  10.633  13.992  0.0991 -0.0218 -0.0795
28916W        W45764   0.921  14.037  12.982  0.0591 -0.0853  0.2699
28917W        W45765  14.421   7.555  16.061 -0.2092  0.0326 -0.3327
28918W        W45766  17.014   2.687  13.919  0.1463 -0.2657  0.2814
28919W        W45767  13.362   9.990  15.021  0.0576  0.1628  0.0142
28920W        W45768  11.575   4.594   1.233 -0.2451 -0.1503  0.1903
28921W        W45769  16.802  17.544  11.353 -0.0679  0.1160 -0.2143
28922W        W45770  17.401   1.764   3.938  0.0799 -0.0047  0.0426
28923W        W45771   6.425   9.421   4.945  0.3146 -0.1888 -0.3155
28924W        W45772   1.872   7.414  15.034  0.1127 -0.1998  0.1893
28925W        W45773   6.074   9.596  14.523  0.0141  0.0867  0.0928
28926W        W45774  10.937   2.674  10.313 -0.2177  0.1512  0.2127
28927W        W45775   3.193  10.648  11.112 -0.0127  0.1778  0.1135
28928W        W45776   9.054  17.408  10.995 -0.0140 -0.1982 -0.0186
28929W        W45777   9.441  14.888  12.970 -0.1855 -0.2398  0.1527
28930W        W45778   1.296  13.114   2.274  0.1485 -0.1931  0.2744
28931W        W45779   4.504   2.460  15.806 -0.0959  0.3863 -0.4000
28932W        W45780  14.551   4.292   1.734  0.1396  0.0161  0.4340
28933W        W45781   1.058   3.252   2.621 -0.2856 -0.0528  0.0190
28934W        W45782   5.379  15.858  15.885  0.1551 -0.0133 -0.2025
28935W        W45783   0.919  15.397  14.635 -0.1707 -0.0305  0.0738
28936W        W45784   7.750  14.300   2.826  0.0857 -0.4292 -0.1106
28937W        W45785   7.244  17.504   3.019  0.1755 -0.0072 -0.0570
28938W        W45786   1.061  17.462  14.031  0.0551  0.1383  0.0790
28939W        W45787  12.703  15.006  13.601 -0.3134 -0.3231  0.1858
28940W        W45788  13.943   3.072   5.142 -0.0609  0.2297  0.1308
28941W        W45789   6.436   2.807  16.093  0.1983  0.2552  0.2858
28942W        W45790  11.725  16.978   5.977 -0.0937  0.0012  0.1122
28943W        W45791  18.174   1.922  15.939  0.2502  0.3402 -0.1866
28944W        W45792  14.904   1.867  11.865  0.1693 -0.0186 -0.0483
28945W        W45793   3.415   9.853   0.321 -0.0454  0.2299 -0.0681
28946W        W45794   7.802  18.107   5.379 -0.3414  0.1440 -0.0016
28947W        W45795   4.793   0.089  16.104 -0.1793 -0.0390  0.0719
28948W        W45796   3.552  12.136  13.850  0.2670  0.0716  0.2968
28949W        W45797   9.628   2.544   1.689  0.0906  0.0834  0.1782
28950W        W45798   2.621  11.604  12.899  0.0796 -0.0155 -0.1627
28951W        W45799   2.057   1.308   2.348 -0.1372  0.1507 -0.2730
28952W        W45800  16.628   2.655  14.853 -0.0981 -0.0668  0.1205
28953W        W45801  13.764  11.718   3.716  0.0287  0.0439 -0.3266
28954W        W45802  13.696  10.348  12.801  0.2017 -0.0933 -0.2752
28955W        W45803   2.973   9.091  11.177  0.1424  0.1358  0.1312
28956W        W45804  16.097   0.254  14.691 -0.1733  0.1809 -0.2224
28957W        W45805   7.290  17.341  11.872  0.2434 -0.0566  0.0222
28958W        W45806  10.907   7.613   2.582  0.1353  0.1732  0.1620
28959W        W45807   8.043   3.417  14.988 -0.1694  0.1998  0.1431
28960W        W45808  14.448   4.903   0.371 -0.0191  0.2329  0.1426
28961W        W45809  10.892   3.650   1.354  0.2084 -0.0559  0.3771
28962W        W45810   3.243  16.083  12.154  0.1337  0.1209 -0.0433
28963W        W45811   2.999  10.945   9.822  0.0198 -0.0752 -0.3727
28964W        W45812  12.583   1.421  15.167  0.2368  0.0287 -0.0606
28965W        W45813  15.151   1.787   0.046  0.0739  0.3637  0.0897
28966W        W45814  10.437  11.299  12.593 -0.0475  0.2012 -0.1502
28967W        W45815   3.765   6.372   1.134 -0.2714 -0.2728 -0.0615
28968W        W45816  14.656  13.508  11.370 -0.2518 -0.2404 -0.1062
28969W        W45817  11.208  10.998  10.418 -0.2808  0.0391  0.0772
28970W        W45818   6.214   0.126  13.752 -0.2857 -0.0746 -0.1671
28971W        W45819   9.724   4.596   1.375 -0.0239  0.0129  0.0129
28972W        W45820  15.724  15.433  11.497  0.0471 -0.0109  0.0160
28973W        W45821   8.384  17.572  13.375 -0.0471 -0.1182  0.3318
28974W        W45822  12.530   8.278   2.867 -0.2552 -0.0036  0.2260
28975W        W45823  16.178  17.685  10.746 -0.1875 -0.0269 -0.2107
28976W        W45824   2.809   1.014   3.696 -0.0415 -0.0129 -0.1788
28977W        W45825   8.607  12.603   2.031  0.1073 -0.0964  0.0263
28978W        W45826  10.334  15.217   2.931  0.0707 -0.1161  0.2543
28979W        W45827   3.848  14.136   1.742 -0.0690 -0.0036  0.0270
28980W        W45828   9.973   9.276   1.795  0.0440  0.0183 -0.2531
28981W        W45829  13.533   1.066  13.892 -0.0628 -0.1060 -0.2396
28982W        W45830  10.327  10.231   2.854  0.0306  0.0873 -0.1677
28983W        W45831  16.047  14.417  12.853  0.1305 -0.0984  0.2206
28984W        W45832   2.647   4.100   2.424  0.4076  0.2869  0.1771
28985W        W45833  11.772  12.302  12.280 -0.5334  0.1573  0.2328
28986W        W45834  10.666  14.764  11.002  0.0057  0.3097 -0.2307
28987W        W45835   0.013   3.844  15.143 -0.0423  0.0993  0.0225
28988W        W45836  18.128   2.662  12.853 -0.0987 -0.0168 -0.2174
28989W        W45837  17.147  17.499  13.542 -0.1262 -0.0055 -0.2472
28990W        W45838  16.732  10.249   0.828 -0.0668  0.1172  0.3195
28991W        W45839  11.880  15.750  14.073  0.0186 -0.0059  0.2299
28992W        W45840   4.896  14.035  12.741  0.0876 -0.1267  0.0979
28993W        W45841  10.370  14.211  12.302 -0.2019  0.1330 -0.0278
28994W        W45842   3.537  16.365  14.027 -0.0394  0.2935 -0.3784
28995W        W45843   7.193   5.449  13.983 -0.0492  0.1616  0.0429
28996W        W45844  17.485   8.519   0.208 -0.2300 -0.2582 -0.0051
28997W        W45845   6.924   2.636   1.321 -0.0888  0.2620  0.0361
28998W        W45846  17.260   3.157  13.187 -0.1764 -0.0848  0.0893
28999W        W45847   1.496  14.905   1.556 -0.1029 -0.1807 -0.2068
29000W        W45848   8.868   9.677  15.367  0.4645  0.2522 -0.0455
29001W        W45849   2.674   4.693  11.451  0.0173 -0.1863  0.0030
29002W        W45850  15.204   8.840  11.368  0.1271 -0.3964 -0.1944
29003W        W45851  13.067   0.485   3.808 -0.2083 -0.1056  0.2975
29004W        W45852  10.172   4.090  15.380 -0.1416  0.2113 -0.4527
29005W        W45853   2.293  10.428   2.609  0.2168  0.2544  0.0265
29006W        W45854  10.096   9.723   5.069 -0.0634  0.2926 -0.1298
29007W        W45855  13.498   5.378  14.038 -0.0012 -0.3770  0.0582
29008W        W45856   2.530  17.092  11.549  0.0184 -0.1700  0.1650
29009W        W45857  11.463   5.721  11.106  0.1198 -0.1278  0.0368
29010W        W45858  18.160   5.808   1.430  0.0007  0.0286 -0.2797
29011W        W45859   2.811  16.370  12.271 -0.0692 -0.0820  0.1787
29012W        W45860  10.230   1.000  11.530  0.0584 -0.2016  0.3595
29013W        W45861  17.378   9.308   5.717 -0.0829 -0.0999  0.0487
29014W        W45862   8.116   4.316  15.989 -0.0992  0.1394 -0.0121
29015W        W45863   5.941  10.430  15.635  0.0204 -0.1306  0.4266
29016W        W45864  17.988  12.436   4.338  0.4256  0.1959  0.1715
29017W        W45865  17.929   3.783  13.729  0.0348  0.0598 -0.1164
29018W        W45866  15.485   1.211  14.741  0.1049 -0.1996 -0.0328
29019W        W45867  14.477   2.494  13.127 -0.0769 -0.3311  0.0897
29020W        W45868   7.166   2.732  12.433  0.0853  0.2745 -0.2366
29021W        W45869   8.997   8.248   3.656  0.1777 -0.1393 -0.1617
29022W        W45870   9.809   2.900   0.309  0.0461 -0.1358  0.0691
29023W        W45871  12.383   7.798   2.269 -0.0028  0.1357 -0.0072
29024W        W45872  17.182  14.693   3.340  0.0376 -0.0867 -0.3029
29025W        W45873  12.603   0.734   2.491  0.0015 -0.0894 -0.0531
29026W        W45874   2.341  17.538   0.983  0.1743 -0.0159  0.0730
29027W        W45875  15.497   0.244   3.913 -0.0798 -0.0972  0.1052
29028W        W45876   8.815  17.745  13.178  0.0899 -0.3147 -0.0444
29029W        W45877   1.825   1.269  13.681  0.3869  0.2138 -0.0235
29030W        W45878  17.515   4.160  12.335  0.2106 -0.1431 -0.1250
29031W        W45879  16.198   4.680  15.684  0.0456  0.3443 -0.0819
29032W        W45880   2.107   0.572  14.287 -0.0097  0.0037 -0.1688
29033W        W45881   5.955   0.072  11.408  0.2020 -0.3120 -0.0831
29034W        W45882   6.813   1.257  12.547  0.2001 -0.1317 -0.0102
29035W        W45883  17.111  15.172   1.046 -0.1474  0.2742  0.0363
29036W        W45884   2.452   5.682  12.325 -0.1390 -0.0882 -0.1117
29037W        W45885  12.394  12.824  16.115  0.0218 -0.2847 -0.1989
29038W        W45886   2.794  11.643  12.393  0.1132 -0.0395 -0.1488
29039W        W45887  11.278   7.640   1.447  0.1742 -0.0059 -0.1299
29040W        W45888  12.127  15.278   0.193  0.3066  0.0906  0.1191
29041W        W45889   4.858  10.845   4.990  0.1441 -0.0499 -0.1545
29042W        W45890   7.102  14.226  15.346 -0.0064 -0.0779 -0.0548
29043W        W45891  11.452   1.570   3.100 -0.3726 -0.0871  0.0498
29044W        W45892  17.055  12.883  16.007 -0.1583  0.3912  0.0228
29045W        W45893  17.257  16.891   2.268 -0.2399 -0.1314 -0.0486
29046W        W45894  11.862   0.296  15.489  0.1042 -0.1940  0.2840
29047W        W45895  12.073   6.438   1.772  0.0095 -0.0670 -0.3789
29048W        W45896  18.069   6.487  11.539 -0.0514 -0.2433  0.1364
29049W        W45897  17.160  16.892   2.889  0.2306 -0.0501 -0.2452
29050W        W45898   5.674   1.011   4.027  0.0456 -0.0030 -0.1426
29051W        W45899   3.738  12.468   4.900  0.3429 -0.1092 -0.0153
29052W        W45900   4.409   5.626  15.686 -0.3416  0.1596 -0.2555
29053W        W45901  17.470   2.758  14.956  0.2443 -0.0736  0.1399
29054W        W45902   5.910   3.757   5.530  0.0481 -0.4101  0.0218
29055W        W45903  12.341   5.656   3.513  0.2983 -0.0307 -0.0397
29056W        W45904   9.840   6.660   3.765 -0.4267  0.5408 -0.2483
29057W        W45905   3.379   1.913  16.083  0.0824 -0.0428 -0.0041
29058W        W45906   7.730   4.350   0.696 -0.2214  0.2112  0.1690
29059W        W45907  17.202   4.596  14.486  0.0387  0.2317 -0.2126
29060W        W45908   2.337  11.188   3.189  0.0151 -0.0943 -0.0986
29061W        W45909   6.718  17.746  15.096  0.2190  0.0025  0.0547
29062W        W45910   6.106   7.565   0.493  0.0261 -0.0372 -0.4144
29063W        W45911  14.758   1.890   4.235  0.0794  0.2779  0.1892
29064W        W45912  13.466  14.693  11.094 -0.1463 -0.1590 -0.1255
29065W        W45913   6.793  17.415   4.791  0.1680  0.2072  0.2310
29066W        W45914  11.285  14.665  12.668 -0.0536 -0.0240 -0.0289
29067W        W45915  14.586  11.277  15.026  0.1426 -0.1743  0.2690
29068W        W45916  16.058   0.962  10.920  0.4126 -0.0649  0.0749
29069W        W45917   7.066  18.149   3.520 -0.0964  0.2460 -0.1388
29070W        W45918   3.980  18.141   1.642  0.1079  0.1729  0.1547
29071W        W45919   1.945   3.890  12.868 -0.0043 -0.2473 -0.2221
29072W        W45920  15.237  13.431  12.856 -0.0161 -0.0353 -0.0811
29073W        W45921  11.517  11.697  15.101  0.1843  0.1910 -0.1491
29074W        W45922   3.200   3.022   2.044  0.2403 -0.2229 -0.0387
29075W        W45923   1.763   4.738  13.234  0.0612  0.2330  0.0515
29076W        W45924  17.679   5.139  12.804 -0.0174 -0.0764  0.0646
29077W        W45925  13.005  10.388  12.863  0.2169  0.1840 -0.0563
29078W        W45926  11.993  13.047   3.060  0.2054  0.1549  0.2850
29079W        W45927   1.747   0.530   4.745  0.3464 -0.0354  0.1092
29080W        W45928  13.124  15.562  11.680 -0.2840 -0.1180  0.0643
29081W        W45929  18.097   1.379  13.934  0.1371 -0.0413  0.2814
29082W        W45930   2.792   9.565   3.918  0.3186  0.0910  0.2667
29083W        W45931  13.103   8.488   2.268 -0.0847  0.0284  0.1259
29084W        W45932  12.241   1.986   2.955 -0.1018 -0.2758  0.0619
29085W        W45933  13.382   0.775  14.411 -0.1570  0.0723 -0.4797
29086W        W45934   0.790  10.044   3.613  0.3237 -0.0726  0.1737
29087W        W45935  11.985  12.447  15.305 -0.2172  0.4423  0.0056
29088W        W45936   0.687   9.552   1.524 -0.1584  0.1167  0.0403
29089W        W45937  12.454  16.322  14.288 -0.1115  0.0305 -0.0433
29090W        W45938  13.138   8.455  12.815 -0.1862 -0.5160  0.1555
29091W        W45939  17.261   1.269   0.573  0.1629 -0.0742 -0.0528
29092W        W45940   6.593  17.545   1.430  0.0952 -0.4023 -0.1367
29093W        W45941  15.924  15.707   1.299  0.4142  0.0345  0.2393
29094W        W45942  15.878  13.461  15.770  0.2092 -0.1543  0.2359
29095W        W45943   6.578  15.619   1.040  0.2530 -0.0108 -0.2885
29096W        W45944   5.145   6.323  15.601  0.2722 -0.3183  0.0528
29097W        W45945  14.180   8.027  15.947  0.2359 -0.1282  0.4007
29098W        W45946   0.960  10.828  12.572  0.0288  0.2528 -0.3137
29099W        W45947   8.470  16.850   1.805 -0.0759 -0.1382 -0.1303
29100W        W45948  16.698  12.488  15.321 -0.1590  0.1003 -0.1037
29101W        W45949  18.215   2.607   0.047 -0.0347 -0.2223  0.0365
29102W        W45950   3.242  15.562  12.245  0.2402 -0.0682  0.1232
29103W        W45951   4.501   8.665  12.267  0.0398  0.1140  0.0541
29104W        W45952   5.026  10.474  13.636 -0.1548  0.1137 -0.2194
29105W        W45953  17.368   7.731   2.790  0.3469 -0.0020  0.2843
29106W        W45954  17.705   3.689   1.547  0.0132 -0.2452  0.0530
29107W        W45955  12.769   8.032   4.160  0.1727 -0.3034  0.0932
29108W        W45956   4.477  16.617   2.847  0.1560  0.2877  0.2555
29109W        W45957  17.265   6.792   2.813 -0.0135 -0.2644  0.1060
29110W        W45958  17.239   7.915  14.782 -0.0210  0.0476 -0.0862
29111W        W45959   7.609   5.417  11.037 -0.0870 -0.2875 -0.2892
29112W        W45960   7.251   5.834  12.023  0.3640 -0.1601  0.1484
29113W        W45961   2.906  15.747  13.819 -0.1633 -0.2143 -0.1684
29114W        W45962   5.146  14.697   2.115  0.0907  0.0269 -0.3809
29115W        W45963  11.974  17.337   0.889 -0.0460  0.2518 -0.0901
29116W        W45964  13.221  11.425  15.683  0.0193  0.1286 -0.1378
29117W        W45965   1.387   1.555   4.597 -0.0103 -0.1621 -0.1093
29118W        W45966  11.351  16.565  12.438  0.1571  0.2190 -0.1718
29119W        W45967   1.442  13.687  12.132 -0.2541  0.1174 -0.1835
29120W        W45968  15.391   1.225   4.628 -0.0145 -0.5415 -0.0060
29121W        W45969  12.866   4.297   0.097 -0.2038  0.3585 -0.0613
29122W        W45970  10.997  17.093   1.919  0.1518  0.1395 -0.3394
29123W        W45971  15.920   7.823   2.940  0.0553 -0.0557  0.3157
29124W        W45972   9.316  11.912   1.856  0.1396  0.1239  0.0955
29125W        W45973   7.236  10.824  12.973 -0.1992  0.1137  0.0132
29126W        W45974   4.987  16.206  13.439  0.1962 -0.2595  0.2871
29127W        W45975   3.876   4.688   0.518 -0.2215  0.0251  0.2650
29128W        W45976  13.751  13.222   1.923  0.0734 -0.1197  0.2631
29129W        W45977  13.868  18.138  14.909  0.0124  0.4309 -0.3376
29130W        W45978  18.174  11.551   5.285  0.2478 -0.7861  0.1513
29131W        W45979  16.873   2.200   2.538 -0.2396  0.0722  0.1357
29132W        W45980  10.213   7.921  14.770 -0.2445 -0.1711 -0.4604
29133W        W45981  16.845   0.953  11.460 -0.1439  0.2214 -0.2596
29134W        W45982   4.054   2.128  10.843  0.1176 -0.0960  0.2440
29135W        W45983  10.688  13.918   2.216  0.6321 -0.1044  0.3475
29136W        W45984   9.135  11.485   3.848 -0.0730 -0.1526 -0.1356
29137W        W45985   8.156  17.449   4.828 -0.0361 -0.1337 -0.0270
29138W        W45986   0.293  17.806  13.653 -0.0573  0.0459  0.0255
29139W        W45987   7.507   8.443   2.809 -0.1971  0.2239  0.2526
29140W        W45988   8.792  15.887  14.736 -0.1227  0.0890 -0.0390
29141W        W45989  13.510   9.805  15.661  0.0948 -0.2302 -0.2229
29142W        W45990  11.827  14.487  11.846 -0.1102  0.0848 -0.0618
29143W        W45991   6.324   0.032   4.568 -0.1628 -0.0195  0.0736
29144W        W45992   4.109   8.134   1.276  0.0156 -0.0461  0.1940
29145W        W45993  10.149  13.248  13.589  0.1065  0.2030  0.0188
29146W        W45994  15.549  16.976   1.121  0.0605 -0.3820  0.0224
29147W        W45995   0.211  10.177  12.251 -0.2645  0.5153 -0.0542
29148W        W45996   1.965   4.593  16.114 -0.0512  0.0311 -0.1519
29149W        W45997  12.861  10.587   3.089  0.1424  0.1805 -0.2218
29150W        W45998  10.745   9.381  15.590 -0.0361 -0.3331 -0.3543
29151W        W45999  12.691  17.311   4.386 -0.0410 -0.0329  0.0111
29152W        W46000   2.880   7.933  15.521 -0.0380  0.0073 -0.1261
29153W        W46001   4.595   7.617   4.171 -0.3051 -0.0619 -0.0064
29154W        W46002  11.126   8.036  14.284 -0.1442  0.1368 -0.1182
29155W        W46003  11.980   3.426   0.265 -0.0952 -0.1197  0.2902
29156W        W46004  11.846  11.450  12.626  0.1488  0.2784  0.4093
29157W        W46005  15.780   9.118   6.226  0.0770  0.0285 -0.1018
29158W        W46006  15.574  17.520  11.749  0.0729 -0.3983  0.0002
29159W        W46007  11.559   0.043  13.259 -0.0580  0.0722  0.1084
29160W        W46008   4.178   1.739  12.759 -0.2804  0.2413 -0.0529
29161W        W46009  10.087   0.985   1.077  0.0904 -0.0026 -0.1889
29162W        W46010  15.880   1.111   1.071 -0.1546  0.1791 -0.1666
29163W        W46011  15.613   6.623   2.569  0.0114  0.2064 -0.2037
29164W        W46012  16.425  10.803   0.961 -0.1232 -0.0863 -0.1149
29165W        W46013  14.513  17.833   2.123 -0.2314  0.1871 -0.1619
29166W        W46014   6.964  16.176  13.293  0.1093  0.0466  0.1102
29167W        W46015  18.191  11.023  12.953 -0.1818 -0.2469  0.0251
29168W        W46016  10.390   8.420  14.509  0.1818 -0.0401  0.0348
29169W        W46017  11.750   4.484  14.173 -0.1037  0.3287  0.0534
29170W        W46018   5.208  15.280  14.505  0.1863  0.3526 -0.5459
29171W        W46019   3.937   4.316  13.608  0.3858  0.0267 -0.3315
29172W        W46020   5.790  15.956  13.674 -0.0611  0.1966 -0.1178
29173W        W46021   7.571  13.965   3.364 -0.1547  0.1794  0.2131
29174W        W46022   9.379   2.004   0.657  0.0076 -0.1243  0.2380
29175W        W46023   5.604  14.603   4.055  0.3043  0.1001  0.1368
29176W        W46024   6.925   4.156   4.055 -0.0458  0.1945 -0.0662
29177W        W46025   0.854   2.313   3.647 -0.2933 -0.1873  0.0675
29178W        W46026  12.434  11.134  11.805  0.3573  0.2585 -0.1750
29179W        W46027   1.804  11.262   1.315 -0.0877 -0.0831 -0.3158
29180W        W46028  16.639   1.989   2.997 -0.0511  0.2927  0.0703
29181W        W46029  13.360  11.127  13.853  0.0583  0.0667  0.3629
29182W        W46030   5.768  13.546   5.070 -0.0282  0.0952  0.0469
29183W        W46031   2.396   5.190   4.038  0.1255  0.3981  0.0839
29184W        W46032  14.096  14.240  12.579  0.2105  0.3128  0.1656
29185W        W46033   1.671  15.772   4.121  0.3649  0.1476  0.0670
29186W        W46034   7.610   9.692   2.306 -0.0459 -0.1246  0.0366
29187W        W46035  11.811  13.701  12.027 -0.0017  0.1593 -0.0812
29188W        W46036   5.535  10.271   5.883 -0.1026 -0.0797  0.0041
29189W        W46037   4.739  10.806  11.257 -0.3055  0.0278 -0.1019
29190W        W46038   6.527  13.193  14.488 -0.0294 -0.2962  0.0789
29191W        W46039  13.988  13.745  15.874 -0.3086 -0.0783 -0.2094
29192W        W46040  13.625   9.079   0.153 -0.2122 -0.1217 -0.0138
29193W        W46041  17.784  11.962   2.448  0.3582  0.0903  0.0935
29194W        W46042   6.190   0.319  14.738 -0.0997 -0.0335 -0.1130
29195W        W46043   9.532  13.157   0.577 -0.0186 -0.0318 -0.1918
29196W        W46044   4.967   4.044  14.100 -0.0873 -0.0093 -0.2955
29197W        W46045   0.255   7.698   0.452  0.1786 -0.2623  0.2123
29198W        W46046   3.638   9.627  14.442 -0.0542  0.0867 -0.0101
29199W        W46047  15.219  17.545   2.517 -0.2889 -0.0533  0.0405
29200W        W46048   9.936  17.212   2.658 -0.1672  0.0759 -0.3315
29201W        W46049  15.431   9.687   4.052  0.0407 -0.1030 -0.0265
29202W        W46050   6.162   2.955   1.769  0.1309  0.0318  0.0951
29203W        W46051  11.301   3.268  13.009  0.0012 -0.1804  0.1613
29204W        W46052   4.762   7.421  15.119  0.0885 -0.0148 -0.3735
29205W        W46053   7.577   4.918  13.167  0.0033  0.2189  0.0652
29206W        W46054   0.433  17.551  10.942  0.0806  0.0063 -0.2903
29207W        W46055   3.146   5.243   1.554  0.2180 -0.1376  0.0510
29208W        W46056   6.176  16.634  11.499 -0.5059  0.0145 -0.0015
29209W        W46057  12.285  12.687   2.248  0.0584 -0.2206  0.0141
29210W        W46058   0.298   4.043  12.429  0.1393  0.1400 -0.0606
29211W        W46059  10.714   5.985  15.121 -0.2697 -0.1032 -0.0635
29212W        W46060   7.681  10.567  11.728  0.0143 -0.1557 -0.2828
29213W        W46061  17.807   4.885   0.441 -0.0140  0.2679 -0.0901
29214W        W46062   8.771  14.144  13.976  0.0225  0.4945 -0.2703
29215W        W46063   7.238   2.600   1.761 -0.0243 -0.0069  0.0174
29216W        W46064   2.715  13.981  15.289  0.2001 -0.3193 -0.0393
29217W        W46065  13.408   8.915   2.211 -0.1419 -0.0565  0.0062
29218W        W46066  13.927  17.386  14.509  0.0133  0.0765  0.2466
29219W        W46067   4.250  16.528   2.010 -0.1695 -0.1496 -0.0530
29220W        W46068   2.371   6.129   5.512  0.0800 -0.0140 -0.0358
29221W        W46069  13.135   4.173  10.476 -0.1016  0.0926 -0.0704
29222W        W46070   7.413  15.988   3.283  0.2433  0.0696 -0.4129
29223W        W46071   1.187   3.315   5.271 -0.1954 -0.1215  0.1215
29224W        W46072  14.049  16.359  15.260  0.2466  0.2570  0.2375
29225W        W46073  14.495  14.683  12.488 -0.3025 -0.5402  0.5128
29226W        W46074   4.604   2.288  12.770 -0.1378  0.3190 -0.2159
29227W        W46075  14.533  12.285   2.343 -0.4561  0.1034 -0.0085
29228W        W46076   5.649   0.552   3.633 -0.0018 -0.0076 -0.2105
29229W        W46077   4.230   0.327  11.158  0.0087  0.1429 -0.5816
29230W        W46078  16.931   7.672  12.652  0.3335 -0.2018  0.0326
29231W        W46079   4.461  12.133   0.156  0.0730  0.1096  0.0067
29232W        W46080   1.178   0.709  11.688 -0.4208 -0.2423  0.3111
29233W        W46081   4.628  15.137   3.154 -0.0267 -0.4409 -0.0017
29234W        W46082  14.829  14.419   2.675  0.0919  0.0746 -0.2937
29235W        W46083   2.380   5.591   0.721 -0.0219 -0.0872  0.2619
29236W        W46084   2.876  16.230  13.457 -0.2235  0.0861  0.1371
29237W        W46085   4.760   7.290   1.064  0.0141 -0.1374 -0.0384
29238W        W46086   7.918   6.286  11.036 -0.1835 -0.3493 -0.3701
29239W        W46087   8.402   9.562   3.690 -0.1132  0.2355  0.0785
29240W        W46088   7.687   6.529   4.956  0.0914 -0.1016  0.0172
29241W        W46089   6.462   2.952   1.315 -0.2588 -0.0907  0.2880
29242W        W46090  10.655   1.386   0.419  0.0477  0.0745  0.1096
29243W        W46091   4.817  10.082  12.580 -0.0435  0.2411 -0.0437
29244W        W46092   9.399   0.887   4.719  0.2404  0.2026  0.0891
29245W        W46093  12.823  13.393   4.678 -0.1428 -0.1876  0.3612
29246W        W46094   2.128  18.171  12.285 -0.1597 -0.1322  0.0888
29247W        W46095   9.867   1.510  12.072  0.0611  0.2815  0.0580
29248W        W46096  10.174  10.187   5.423  0.0808 -0.1439  0.3593
29249W        W46097   9.260  12.802  13.604  0.2340 -0.1070  0.3041
29250W        W46098  13.259   5.473  13.524 -0.1265  0.0553 -0.1497
29251W        W46099   9.474   5.154  12.795  0.0554  0.4338  0.0421
29252W        W46100   2.937  12.698  15.748  0.1112 -0.2336  0.1390
29253W        W46101  12.993   5.197  13.066 -0.1718  0.1156  0.0372
29254W        W46102   7.643   4.987  15.840 -0.1035  0.0427  0.2912
29255W        W46103   8.313   2.858   1.221 -0.1466  0.0575 -0.0651
29256W        W46104   5.132   4.360  12.556 -0.1056  0.1527 -0.2935
29257W        W46105   3.090   5.048   0.605 -0.0503  0.0677  0.1534
29258W        W46106  11.711  14.925   0.234 -0.1179  0.0724 -0.0029
29259W        W46107   0.471   3.714   4.298  0.1096  0.4119  0.1310
29260W        W46108   1.969   9.117  12.241 -0.0311 -0.0105 -0.0630
29261W        W46109  11.468   8.113  11.302  0.2131 -0.2091  0.2276
29262W        W46110   3.897   2.452  13.887 -0.0104 -0.0710 -0.2267
29263W        W46111  13.410   0.978   3.748 -0.0466 -0.0467 -0.2922
29264W        W46112  14.637   3.216  12.329  0.0115  0.1731  0.0404
29265W        W46113   0.138   9.300   0.501  0.1399  0.3560  0.1282
29266W        W46114  15.574  11.848  11.392 -0.1961 -0.2940  0.2993
29267W        W46115   2.403   9.943  14.524  0.0337 -0.1637 -0.1400
29268W        W46116  15.016  15.352   0.268  0.1318 -0.1005  0.1355
29269W        W46117   2.898   9.272  11.682 -0.1518 -0.1873  0.0613
29270W        W46118   8.187   9.169   3.402  0.0346  0.2651  0.3014
29271W        W46119   2.123   9.551  14.585  0.1852  0.0577 -0.1517
29272W        W46120  14.124  11.173   1.403  0.2579  0.2266  0.0326
29273W        W46121  13.669  13.198   0.704 -0.1518 -0.0644  0.2999
29274W        W46122  13.577   4.853  12.906  0.3333  0.1713 -0.1807
29275W        W46123   9.951  12.176   3.666 -0.1311  0.0904  0.0559
29276W        W46124   8.942  11.277  16.102 -0.0035  0.2559 -0.0979
29277W        W46125  14.647   0.874   2.762  0.1317  0.2246 -0.1416
29278W        W46126  14.772   0.744  15.032 -0.0966  0.0438  0.1091
29279W        W46127   6.773   3.491  15.747 -0.2251 -0.0882  0.0800
29280W        W46128  13.158   8.407   4.826 -0.1941 -0.1851 -0.0504
29281W        W46129  14.980  14.815   5.276 -0.0764  0.0460  0.3758
29282W        W46130   2.555  12.726   1.377 -0.1570  0.0565 -0.3654
29283W        W46131  15.572   5.583   4.883  0.0609 -0.0469  0.0267
29284W        W46132   9.167   1.035  14.299  0.1771  0.1087 -0.1052
29285W        W46133  16.389  16.979  11.633  0.1239 -0.0199  0.1870
29286W        W46134  11.263  18.222   4.327 -0.4027 -0.1358  0.0404
29287W        W46135   8.376   9.689   2.247 -0.1257 -0.1948 -0.1142
29288W        W46136   6.333   8.211  15.928  0.1211  0.0513  0.5364
29289W        W46137   0.742  13.435  13.638  0.2439 -0.2595  0.0806
29290W        W46138  14.319   6.375  12.377  0.0581 -0.3002  0.1084
29291W        W46139   0.992  13.787   3.304 -0.1983  0.1690  0.3828
29292W        W46140  16.189   0.169   1.538  0.1298 -0.0746 -0.1146
29293W        W46141   4.356   9.982  11.865 -0.2709  0.2087 -0.0393
29294W        W46142   6.903   5.818   0.814 -0.1440 -0.2114 -0.2038
29295W        W46143   9.235  13.208   1.885 -0.2197 -0.0564 -0.0596
29296W        W46144  16.377  12.586  10.398  0.0961  0.0810  0.1310
29297W        W46145   2.388   1.154   1.768 -0.2341 -0.1095  0.2829
29298W        W46146  14.199  10.254   1.861  0.0415  0.1680  0.0561
29299W        W46147  17.353  11.490  14.322 -0.1668 -0.0826  0.0296
29300W        W46148  11.345   7.437   2.355  0.1833  0.2190 -0.3181
29301W        W46149   1.257  10.773  14.149  0.2308 -0.0857  0.0582
29302W        W46150  15.057  15.543  12.625 -0.0823 -0.0088 -0.1976
29303W        W46151  15.752  10.810  15.700  0.0137 -0.1135 -0.1988
29304W        W46152   7.178   6.417  14.252  0.0479  0.1820  0.1030
29305W        W46153  14.574  15.681  14.646 -0.0519  0.1027  0.1268
29306W        W46154  15.429   9.664  12.532 -0.1550 -0.2271  0.1627
29307W        W46155  18.142   1.230  12.133  0.0284 -0.2115  0.1561
29308W        W46156  14.200   6.799   4.936  0.0724  0.2188 -0.3327
29309W        W46157   2.118   7.461  12.021  0.3276 -0.2004  0.2014
29310W        W46158  11.482  16.483   4.408  0.3040  0.0046  0.0895
29311W        W46159   0.656   9.640  12.035 -0.2344 -0.1261 -0.0398
29312W        W46160  14.528  17.408  13.810 -0.1824  0.4693 -0.0754
29313W        W46161   6.378  12.660  15.960 -0.0945 -0.1585  0.0332
29314W        W46162  15.957   9.670   1.588 -0.1009 -0.1614 -0.2838
29315W        W46163   0.154   9.781   1.239 -0.3563 -0.1156  0.0659
29316W        W46164   9.872  12.348   0.599  0.1116 -0.1596 -0.1601
29317W        W46165   6.768   5.817  13.225 -0.0574 -0.1447 -0.1442
29318W        W46166   9.942   2.507  15.675 -0.0442 -0.0269 -0.0620
29319W        W46167  15.020  11.788  11.896 -0.3550 -0.0011 -0.2283
29320W        W46168   4.089   4.720  13.341  0.1945 -0.3156  0.1183
29321W        W46169   7.960  11.695   4.771 -0.0965  0.1187  0.0775
29322W        W46170   4.580   4.494   1.291 -0.0795 -0.2296  0.0504
29323W        W46171  10.534  11.264  12.030 -0.1532  0.1410  0.1225
29324W        W46172  16.046  13.371  11.099  0.1618 -0.2283  0.0440
29325W        W46173   1.105   7.529   2.799 -0.0561 -0.0012  0.2147
29326W        W46174  10.734  17.377   5.033  0.1712 -0.1020  0.1509
29327W        W46175   0.592   2.897   3.813 -0.0513 -0.0277 -0.2635
29328W        W46176  10.603   2.679   0.536 -0.1467  0.1836  0.0351
29329W        W46177   6.970  13.818   2.675  0.1635 -0.1080  0.3036
29330W        W46178  13.741   7.627   4.945 -0.1353 -0.0798  0.0080
29331W        W46179   8.715  15.550  14.357 -0.0388 -0.0929  0.1104
29332W        W46180   8.952   4.355  15.063  0.1114 -0.1361  0.0910
29333W        W46181   6.668  17.428  12.847  0.0252 -0.3568 -0.0586
29334W        W46182   3.460  13.328   2.539  0.1087 -0.0351 -0.2193
29335W        W46183  15.919   5.756  13.762  0.0922 -0.0500 -0.0722
29336W        W46184  12.835   0.420   0.796  0.2561 -0.1652 -0.2656
29337W        W46185   2.103   8.477   3.514  0.3401 -0.3469 -0.0726
29338W        W46186   2.001   8.077  15.561 -0.1729  0.0262  0.0753
29339W        W46187   9.156  14.318   4.335  0.1660  0.0754  0.2292
29340W        W46188   6.385  11.882   1.725  0.1080  0.3853  0.0105
29341W        W46189   0.058   5.671   4.922  0.1126 -0.3189  0.2115
29342W        W46190   4.121   4.538  12.872 -0.2002  0.1350  0.0030
29343W        W46191  13.576   9.161  13.517  0.0465 -0.1588  0.0625
29344W        W46192   4.381  13.096   0.828  0.0595 -0.2722  0.0334
29345W        W46193  16.343  12.263  13.546  0.1621  0.2328 -0.0588
29346W        W46194  14.782   9.738   2.760 -0.1901  0.1017  0.1085
29347W        W46195  13.926   0.886   3.581  0.0755 -0.0446  0.1930
29348W        W46196   3.723  16.773   0.013  0.0232  0.1406 -0.0938
29349W        W46197   6.242   0.284  14.241 -0.4532  0.0374 -0.2635
29350W        W46198  16.881   6.237   1.155 -0.0093  0.2323 -0.3102
29351W        W46199  11.179   6.254  12.225 -0.1503 -0.1689 -0.0259
29352W        W46200  17.578  14.436  13.972  0.0129 -0.0959 -0.1260
29353W        W46201   9.080   3.428  15.783  0.1747  0.0999  0.0419
29354W        W46202  10.868   5.549   1.872  0.0128 -0.0632  0.1191
29355W        W46203  11.920   2.783  15.979  0.0897  0.0843 -0.2255
29356W        W46204  11.011   5.487  11.361  0.3197  0.3508 -0.4143
29357W        W46205  10.889   2.535  12.828  0.1204 -0.3240  0.2209
29358W        W46206   5.661  16.216  15.726 -0.0681  0.3591 -0.1992
29359W        W46207   3.930   3.448   1.810  0.0964 -0.0197  0.1731
29360W        W46208   4.301   8.532  10.932  0.1595 -0.0834 -0.1597
29361W        W46209   1.471  14.035  11.749 -0.3473  0.0339  0.1835
29362W        W46210   4.439  13.516  13.404  0.0239 -0.0713  0.2886
29363W        W46211   9.705   6.142  11.241 -0.1872 -0.0707 -0.1997
29364W        W46212  16.077   2.935  12.749  0.1649  0.0497 -0.2002
29365W        W46213   2.414   5.789   2.464  0.5482  0.3233 -0.0685
29366W        W46214   1.000   3.276   2.080 -0.1176  0.1517  0.0900
29367W        W46215   1.187   6.687   4.108 -0.0615 -0.0636  0.0389
29368W        W46216   1.435   1.957  15.721 -0.1903  0.0241  0.2842
29369W        W46217  16.861  12.148   4.952 -0.2287  0.2245 -0.0018
29370W        W46218  15.948  17.050   2.249 -0.1124  0.1724 -0.2161
29371W        W46219   9.933   9.097  13.174  0.0014 -0.4653  0.0948
29372W        W46220  15.534  13.255   1.308  0.0149  0.3128 -0.0210
29373W        W46221   1.604  16.209  13.276  0.1351 -0.0800 -0.5871
29374W        W46222   7.358   0.650   5.884  0.2899 -0.1979  0.1286
29375W        W46223  12.562   6.853   5.312  0.0431 -0.0412 -0.0593
29376W        W46224  14.166  16.082  10.663  0.0236  0.1742 -0.0571
29377W        W46225  15.844   7.566   0.951 -0.3039 -0.1833 -0.1613
29378W        W46226  12.218   4.378   0.327 -0.0032  0.3516 -0.0786
29379W        W46227  16.441   7.647   3.431 -0.2059 -0.2541  0.1147
29380W        W46228  13.541   7.455   2.087 -0.1067 -0.1106 -0.1622
29381W        W46229  12.457  14.425   1.470  0.0099  0.1851  0.0110
29382W        W46230   7.667  16.295  14.537  0.0389  0.3295 -0.1224
29383W        W46231  11.438   5.384  16.051 -0.0396  0.1434  0.1195
29384W        W46232   5.149   9.077  12.920  0.0322 -0.2804 -0.0091
29385W        W46233   0.245   2.384  12.026  0.1475 -0.1021  0.0656
29386W        W46234   9.729  17.695  13.291 -0.0710  0.0279  0.1942
29387W        W46235   8.341  13.674   4.942 -0.0659 -0.2835  0.1212
29388W        W46236  16.648   9.130   1.185  0.0347  0.0337 -0.3540
29389W        W46237   6.383   5.288   1.878 -0.0081 -0.1998 -0.2091
29390W        W46238   0.090   6.335  13.382  0.0116 -0.0447  0.0480
29391W        W46239  10.001   9.939  13.678  0.2594 -0.0392  0.1299
29392W        W46240  15.312   8.811   0.709 -0.1901 -0.0893  0.4018
29393W        W46241  11.877  11.974  12.612 -0.0104 -0.0552  0.0540
29394W        W46242   3.744  11.340  14.906  0.1306 -0.0955  0.2020
29395W        W46243  12.157  16.629   1.701  0.1680  0.1265  0.0449
29396W        W46244  14.755  14.341   1.050  0.1242 -0.2034  0.0140
29397W        W46245   1.928  15.272   1.498  0.1803 -0.0994 -0.3395
29398W        W46246   2.431   4.010   0.251 -0.1006  0.2003 -0.2989
29399W        W46247  13.866  13.646   0.264 -0.1130  0.1971 -0.2555
29400W        W46248  12.853   4.006  12.181 -0.0017 -0.0046 -0.0380
29401W        W46249  11.085   3.779  15.761  0.2589 -0.1281  0.2827
29402W        W46250   5.236  13.460   0.739 -0.1124 -0.0829  0.0581
29403W        W46251   7.744  12.573   1.393  0.3615 -0.2061  0.0382
29404W        W46252   3.241  17.770   3.545 -0.5430 -0.2502  0.2074
29405W        W46253  17.430   8.945   1.761 -0.2269  0.1465  0.1061
29406W        W46254   7.222   5.956  14.757 -0.0354 -0.2643  0.0469
29407W        W46255   6.934  17.228   2.711 -0.0326 -0.1313  0.0950
29408W        W46256  18.013  16.847   4.054 -0.0164 -0.3573  0.0538
29409W        W46257   4.516   1.937  15.641  0.0343 -0.1255 -0.2113
29410W        W46258  14.547  10.687  14.752 -0.0757 -0.1344  0.0520
29411W        W46259   8.924   0.496  12.011 -0.0465  0.4953  0.0258
29412W        W46260   1.092  17.301   1.217  0.4400 -0.1765  0.0192
29413W        W46261   8.647   4.940   3.286  0.0481 -0.0678 -0.1151
29414W        W46262  17.107   0.912   0.945  0.1133 -0.2375 -0.1106
29415W        W46263   8.335  17.170  13.122 -0.1810 -0.1864  0.0027
29416W        W46264  11.921   4.375  11.010 -0.1449 -0.0276 -0.0742
29417W        W46265   2.115   2.950  13.975  0.0781 -0.1690  0.4175
29418W        W46266   6.417  10.271   3.804 -0.2105 -0.0225  0.1530
29419W        W46267   9.617  14.435  12.669 -0.2720  0.2696 -0.1414
29420W        W46268   7.236   9.373   2.278  0.1457  0.3456 -0.0969
29421W        W46269  16.018   3.533   3.273 -0.0465 -0.2948  0.0547
29422W        W46270   6.764  13.644   5.535 -0.1533  0.2260  0.0884
29423W        W46271   5.344  15.418  10.715 -0.3012  0.1276 -0.2527
29424W        W46272  16.467   3.266  13.601  0.2104  0.0040 -0.0437
29425W        W46273  12.156   5.955  15.516 -0.0666  0.2536 -0.4522
29426W        W46274   4.176  13.092  15.727 -0.4122  0.1103 -0.2462
29427W        W46275  12.633   4.669   4.262 -0.0369  0.1144 -0.0068
29428W        W46276   3.072   5.056  14.448  0.0419 -0.1166 -0.0016
29429W        W46277   2.136  15.475  12.094  0.1106  0.4623  0.0290
29430W        W46278  11.475  10.581   1.889  0.0486  0.2464  0.2327
29431W        W46279  12.783  16.327  13.818  0.0940 -0.0676  0.0840
29432W        W46280  14.149   6.480  10.089  0.1314  0.0611  0.4101
29433W        W46281   5.822   5.345   1.227  0.0313  0.2270  0.1989
29434W        W46282   4.523  12.030   2.071  0.2589  0.3877 -0.0317
29435W        W46283   4.405  16.838  15.495  0.1525  0.1033  0.0898
29436W        W46284   9.239   0.632   5.183  0.0952 -0.0518  0.0733
29437W        W46285   0.612   7.321   4.121 -0.0818 -0.0704  0.1848
29438W        W46286  17.685  13.255  15.733 -0.0981 -0.0967 -0.0201
29439W        W46287  10.954  12.762  13.374  0.3239  0.0771 -0.0322
29440W        W46288   8.975  14.291   5.323  0.5203 -0.3593 -0.0143
29441W        W46289  12.245  13.287  13.735 -0.0902 -0.0192  0.4773
29442W        W46290   0.996   9.385   2.431 -0.0616 -0.2196 -0.2932
29443W        W46291  14.414   5.060   3.086 -0.3152 -0.0568  0.0735
29444W        W46292   2.084   5.223  14.377 -0.0256  0.0131  0.1900
29445W        W46293  11.236   4.812  13.684  0.1026  0.1825 -0.1098
29446W        W46294  16.713  10.437  15.254  0.0228  0.1316 -0.1023
29447W        W46295  14.774   1.789  15.811 -0.0543 -0.0498  0.1183
29448W        W46296   0.044   6.839   0.410  0.4462  0.0282 -0.1937
29449W        W46297   8.833   1.590  14.472  0.3150 -0.2536 -0.1089
29450W        W46298   7.298   1.205  12.665  0.0171  0.0418 -0.0454
29451W        W46299   0.752  10.906   4.305  0.1633  0.3968  0.2406
29452W        W46300   1.032   5.623   4.686  0.0596 -0.0954 -0.1018
29453W        W46301  14.804   7.816   4.932 -0.1307  0.3858  0.0636
29454W        W46302  10.129  11.703  10.738  0.3793 -0.0343 -0.2086
29455W        W46303   4.324   9.160  14.054 -0.0196  0.0502  0.2670
29456W        W46304   2.545  13.559  12.238  0.1692 -0.1949 -0.1747
29457W        W46305   7.728  12.050   0.657  0.2002 -0.0188 -0.2545
29458W        W46306   5.403   9.842   2.166  0.0523  0.2527 -0.0715
29459W        W46307   9.820   0.863  13.399 -0.0327  0.0807  0.3394
29460W        W46308   0.159   1.249  11.152 -0.0828  0.1088  0.1826
29461W        W46309   4.015   6.378   3.338 -0.1765  0.2315  0.0432
29462W        W46310   2.509   2.775   0.938 -0.0187  0.0178  0.0370
29463W        W46311  14.532   9.242   0.465  0.0253  0.0205  0.0217
29464W        W46312   5.127  10.424   3.589  0.3514  0.0449  0.0828
29465W        W46313  14.391  17.727  14.189  0.0638  0.2788 -0.1242
29466W        W46314  12.695  11.990  14.231  0.4099  0.1371 -0.1292
29467W        W46315  10.998   3.048   1.521 -0.0467  0.0021 -0.2864
29468W        W46316  15.557   3.355  12.031  0.1630  0.1093 -0.1865
29469W        W46317   3.583   4.360   5.808 -0.1255 -0.1275  0.0925
29470W        W46318   4.001  18.032  12.608 -0.0271 -0.2125  0.0226
29471W        W46319   3.142   3.688   4.624  0.0114  0.0345 -0.1763
29472W        W46320   7.840  10.724  16.030  0.0044  0.0427 -0.0357
29473W        W46321  14.091  13.037  14.086 -0.1221  0.2224 -0.3316
29474W        W46322   2.781   5.865   2.037  0.1998  0.3198 -0.0460
29475W        W46323   8.187  14.385  12.179  0.2488 -0.0230 -0.1347
29476W        W46324  13.688   8.068  14.365 -0.0543 -0.0111 -0.0031
29477W        W46325   0.656   7.992   0.613 -0.2561  0.0597 -0.1528
29478W        W46326  16.391   0.703  15.364 -0.1512 -0.1569 -0.2259
29479W        W46327  16.948  10.949  11.807 -0.3381 -0.0451 -0.2017
29480W        W46328  17.527   3.953   0.874 -0.1696 -0.0775  0.0565
29481W        W46329   4.474   3.596  14.740  0.1030  0.2604  0.0240
29482W        W46330   1.028  11.393  10.675 -0.1633 -0.0498 -0.0614
29483W        W46331  17.519  12.946  12.993 -0.1306 -0.1935  0.3603
29484W        W46332   7.945   2.366  12.496 -0.2292  0.1929 -0.3418
29485W        W46333  17.002  17.922  14.480 -0.0108  0.0504 -0.2225
29486W        W46334   2.064  11.415  11.452 -0.1709  0.0419  0.0186
29487W        W46335   9.474  15.513  12.974 -0.0592  0.2432  0.2505
29488W        W46336   8.005  15.794  15.204  0.0640 -0.2692 -0.0646
29489W        W46337  12.735   6.777  14.767  0.0079  0.1818  0.1562
29490W        W46338   4.011   0.366   2.762 -0.0400  0.0043  0.0544
29491W        W46339  13.320   1.045   1.270 -0.1422 -0.1464  0.0415
29492W        W46340   4.144   2.274  14.440  0.0741 -0.1777 -0.0150
29493W        W46341   2.290   6.432  13.723 -0.0077 -0.1622 -0.3904
29494W        W46342   6.573  15.249  12.256 -0.1548 -0.0157 -0.0708
29495W        W46343   7.882   4.890   5.271  0.0501 -0.0329  0.0212
29496W        W46344  17.285   5.098  14.174 -0.1297 -0.2459  0.1089
29497W        W46345   1.021  10.659   2.977 -0.1352 -0.2163  0.0334
29498W        W46346  12.727   7.880  12.326 -0.0902  0.2745 -0.1542
29499W        W46347   1.204  13.773  12.598  0.1476  0.1612 -0.3968
29500W        W46348   1.166  12.716   3.024 -0.0315 -0.0451  0.0479
29501W        W46349   9.218  15.714   1.883 -0.0353 -0.2860  0.1515
29502W        W46350  12.989   1.706   4.498 -0.3539  0.0398  0.1085
29503W        W46351   7.626   1.817   1.500 -0.1846  0.2284 -0.0573
29504W        W46352   5.118   2.972  15.064 -0.0934  0.2142 -0.0892
29505W        W46353  16.083   7.642  15.767 -0.3025  0.2756 -0.1236
29506W        W46354   5.929  13.958   4.116 -0.2951 -0.0595  0.0935
29507W        W46355   2.668   5.182  11.309 -0.0363  0.0454 -0.1917
29508W        W46356  10.660  12.642  15.883  0.0487  0.1935  0.1931
29509W        W46357   6.200   6.545   3.615 -0.3523  0.3826  0.0696
29510W        W46358   9.951  11.830   5.210  0.1190  0.0184 -0.2644
29511W        W46359  12.550   5.124  15.816  0.2067 -0.2944 -0.0889
29512W        W46360   9.021   1.977   2.038 -0.0295 -0.3227 -0.3026
29513W        W46361  12.250  12.611   3.813  0.2573 -0.0553  0.1336
29514W        W46362   1.051   6.716   5.044  0.0026  0.2076  0.1320
29515W        W46363   6.276   3.248   3.335  0.0533 -0.4306  0.1127
29516W        W46364  17.982   5.328   1.607  0.3712 -0.0455  0.2017
29517W        W46365  11.198   9.111   2.938 -0.2142 -0.1228  0.1647
29518W        W46366   7.509   5.816  12.776 -0.1902  0.1917 -0.2610
29519W        W46367  14.718   4.362  13.450 -0.0055  0.0287 -0.0700
29520W        W46368   4.866  11.955   1.721  0.0214  0.2335  0.2862
29521W        W46369   8.999   3.231   0.360 -0.1517  0.0715 -0.2576
29522W        W46370  11.645  16.679  13.678 -0.0466  0.0025 -0.1018
29523W        W46371   3.231  12.211  11.118  0.2593  0.1929 -0.0894
29524W        W46372  13.896  17.889  12.497 -0.0460  0.2182 -0.1877
29525W        W46373  11.894   1.430  10.320 -0.5009 -0.1007 -0.1095
29526W        W46374   2.779   8.328  14.335  0.1055 -0.2215 -0.3236
29527W        W46375   1.235  17.826  12.479 -0.2482  0.1321  0.0108
29528W        W46376   0.662   9.942   0.198  0.0985 -0.0249  0.3604
29529W        W46377   5.110   2.694   2.080  0.0787 -0.0665  0.2355
29530W        W46378  10.251  17.077  12.257 -0.1594 -0.0471 -0.0515
29531W        W46379   1.625  17.450   5.241 -0.1811 -0.0465  0.0058
29532W        W46380  15.782   2.749   3.674 -0.0084 -0.2100 -0.0218
29533W        W46381   0.187   7.611   2.919  0.0261  0.5270 -0.1954
29534W        W46382   7.766   2.041   0.148 -0.1136  0.3093 -0.2942
29535W        W46383  13.371   3.596  12.242  0.1979 -0.2950  0.0600
29536W        W46384  14.632   2.093  11.111 -0.0556  0.2055 -0.0259
29537W        W46385   6.927  11.903   1.101 -0.0875 -0.0826  0.3422
29538W        W46386  18.196  14.653  12.677 -0.2374  0.2315  0.1719
29539W        W46387  17.472  17.875  13.874  0.1039 -0.2177  0.1999
29540W        W46388   9.929   8.337   0.418 -0.2868 -0.1552  0.1631
29541W        W46389   0.164  17.963   1.968 -0.0339  0.1054  0.1669
29542W        W46390  17.724  14.524  13.479  0.0266  0.3502  0.3586
29543W        W46391   4.761   9.437  11.289  0.0950 -0.1571 -0.1050
29544W        W46392   4.182  16.939   0.863 -0.2059  0.1603  0.0608
29545W        W46393   9.909  16.222  15.142  0.0256  0.1096 -0.0712
29546W        W46394   8.989   7.962   0.505 -0.1901 -0.0655 -0.0079
29547W        W46395  13.022   6.228   1.737 -0.0288  0.0546  0.3442
29548W        W46396  13.390  13.063   3.495  0.1805 -0.1240 -0.4710
29549W        W46397  18.206  10.325  11.773  0.0599  0.0407  0.1236
29550W        W46398   2.471   4.410  15.122 -0.3564 -0.2390  0.2991
29551W        W46399   2.521   5.804  11.831 -0.3040 -0.0106  0.1981
29552W        W46400   5.981  12.311  14.016 -0.0179 -0.2122  0.2139
29553W        W46401   6.033   3.665  14.247  0.2029 -0.0212  0.1514
29554W        W46402  16.557  10.410   1.790 -0.0389  0.0443 -0.1902
29555W        W46403   8.231   3.984   2.475  0.2205  0.4339  0.0176
29556W        W46404   6.196  16.596   4.024 -0.0949 -0.0243 -0.0571
29557W        W46405   5.973  16.481   4.505 -0.0085 -0.3262 -0.0248
29558W        W46406  11.680  13.231  15.263 -0.1978  0.2932  0.0706
29559W        W46407  13.943   2.000   4.556  0.2335 -0.0761  0.3104
29560W        W46408  14.442   8.145  12.303 -0.2899 -0.0993 -0.1849
29561W        W46409   1.193  18.073  12.902 -0.0945  0.5388  0.0576
29562W        W46410   1.776   0.648   1.510 -0.0165 -0.1678  0.2198
29563W        W46411  16.300   3.200   4.248  0.0460 -0.1248 -0.1654
29564W        W46412  10.996   5.020   1.910  0.0011  0.5416 -0.1293
29565W        W46413   9.419  16.097   0.823 -0.0552 -0.2248 -0.2520
29566W        W46414   9.858  16.116   2.523 -0.1756  0.0129  0.0448
29567W        W46415   7.037   9.999   5.329  0.1438  0.1561 -0.0402
29568W        W46416   4.329  17.905  13.380  0.2234 -0.0280 -0.0511
29569W        W46417  15.648   2.834   0.199 -0.0105 -0.1833 -0.0580
29570W        W46418  10.131   3.472  12.136 -0.0573  0.1290  0.0707
29571W        W46419  14.112   5.536  12.307  0.0336 -0.0804 -0.1495
29572W        W46420   4.210  14.140   3.249  0.0120 -0.0364  0.0169
29573W        W46421  14.494   8.803  13.723  0.1556  0.0609  0.1887
29574W        W46422  16.711  14.542   4.885 -0.0842  0.1285 -0.1248
29575W        W46423  10.112  16.716   2.708  0.1638  0.4336 -0.0393
29576W        W46424   8.049   0.935  10.657  0.0629 -0.1341 -0.2568
29577W        W46425   8.469  12.566   2.607  0.3538  0.2334  0.2076
29578W        W46426  17.183   2.380   2.147 -0.0678 -0.0034 -0.1756
29579W        W46427   8.200   5.164   3.603 -0.0284  0.2186  0.2094
29580W        W46428  11.289   5.412  12.072  0.1501  0.1432 -0.0958
29581W        W46429  17.362   9.277  14.584  0.3083 -0.2077 -0.0948
29582W        W46430   6.579   0.854   0.654 -0.4371  0.2282 -0.1714
29583W        W46431   7.932  15.476  13.317  0.0487  0.1143 -0.1536
29584W        W46432   4.321   4.490   0.284  0.2691 -0.6009  0.0518
29585W        W46433  12.837   3.565   0.604  0.1689 -0.2491 -0.1236
29586W        W46434   9.619  14.140   2.649 -0.1617  0.0917  0.0541
29587W        W46435  14.295   2.705  15.687 -0.1413  0.0341  0.1608
29588W        W46436   0.434   4.876  11.126  0.0460  0.2024  0.0834
29589W        W46437  15.550   9.434   5.355  0.2263 -0.0299  0.0601
29590W        W46438   3.457   1.247  13.691  0.0985 -0.1453  0.1170
29591W        W46439   8.291  17.267   0.205  0.1026  0.1475 -0.0184
29592W        W46440  14.388   6.507   0.374  0.2471 -0.0988  0.0177
29593W        W46441   9.930  15.004  11.477  0.0962 -0.1414 -0.1233
29594W        W46442   8.128   7.140   1.884 -0.0952  0.2659  0.1020
29595W        W46443  14.496  16.741   1.356 -0.3344  0.0496 -0.0164
29596W        W46444   7.311   0.095   4.387 -0.5322 -0.3110  0.2289
29597W        W46445  11.056   7.391  11.294  0.2141  0.3588  0.1160
29598W        W46446  16.218   0.029  13.849 -0.0260 -0.1161  0.2860
29599W        W46447   3.469   5.323  11.016  0.1126  0.0377 -0.4154
29600W        W46448   9.899  11.607  13.253  0.2248 -0.3615  0.1596
29601W        W46449  10.398  13.517  11.416  0.0459  0.0048 -0.0909
29602W        W46450   7.379   9.601   2.974 -0.0076  0.1842 -0.1128
29603W        W46451   2.983  10.461   9.991 -0.2618  0.0017  0.0052
29604W        W46452  14.375  13.855   0.199  0.1167  0.0573 -0.3447
29605W        W46453  15.475  10.865   4.532 -0.2068  0.0924  0.0119
29606W        W46454   5.944  11.053   4.053 -0.1106 -0.2477 -0.6103
29607W        W46455   1.818  12.375   4.131  0.0696 -0.0703 -0.0272
29608W        W46456  12.630  12.932  15.694  0.0426 -0.0722  0.1381
29609W        W46457   9.389  15.323   2.868 -0.0028 -0.3516 -0.0483
29610W        W46458  12.482   8.895   4.378  0.0576  0.0582 -0.2276
29611W        W46459   9.667   4.303  11.294  0.1457  0.0428  0.1361
29612W        W46460   1.042   9.570  15.945  0.0704 -0.2006 -0.0231
29613W        W46461  11.221  13.974  13.213  0.1763 -0.1549 -0.0706
29614W        W46462   9.158   6.759  13.866 -0.3205  0.3407 -0.2566
29615W        W46463  11.034  14.485  13.052  0.5491  0.1918 -0.1196
29616W        W46464   3.544  10.127   4.388 -0.0821 -0.0056  0.1217
29617W        W46465  13.517   6.135   0.872 -0.1332  0.3169  0.1530
29618W        W46466  17.644  10.347  11.673  0.0030  0.1142  0.2208
29619W        W46467   5.570  15.265  10.312 -0.0369 -0.2684 -0.0169
29620W        W46468  13.606   7.081  14.481 -0.2180 -0.1222 -0.0830
29621W        W46469   6.080   4.194   5.782 -0.0595  0.1053  0.0958
29622W        W46470  11.029   0.821  15.448  0.3746 -0.3721 -0.1822
29623W        W46471   6.074   2.758   3.129  0.2777 -0.1446 -0.1032
29624W        W46472   5.770  16.380  15.287 -0.0497 -0.1593 -0.0602
29625W        W46473   5.874  15.066   3.669 -0.0774 -0.2061  0.1657
29626W        W46474   4.229   1.291   1.852  0.2552 -0.0629  0.0699
29627W        W46475  17.774  11.135  15.919 -0.0625 -0.0832 -0.0774
29628W        W46476   1.752  13.087  11.383 -0.0706  0.2652  0.0078
29629W        W46477   5.724   7.069  11.235 -0.1054 -0.3062  0.0527
29630W        W46478   8.968   2.233   4.968 -0.2812 -0.4508  0.3543
29631W        W46479  10.632   1.700   0.974  0.1200 -0.2728 -0.2571
29632W        W46480  15.909   0.718   4.759  0.2427 -0.1607 -0.0876
29633W        W46481   1.401  16.920   0.621 -0.1769  0.0836  0.0395
29634W        W46482  13.416   6.598  10.229 -0.1651  0.0783  0.0600
29635W        W46483  17.061   1.862   2.020 -0.3570  0.2288 -0.0794
29636W        W46484   2.728   7.571  12.714 -0.1777  0.1401  0.2689
29637W        W46485   5.739  15.990  10.957  0.3574 -0.0178  0.0402
29638W        W46486   4.083  16.459  14.877 -0.0842  0.1268 -0.0646
29639W        W46487   5.004   0.370   4.513 -0.0921  0.0279  0.0801
29640W        W46488   2.891  16.894  11.123  0.0119  0.3364 -0.0977
29641W        W46489  15.402   9.845   0.784  0.2090 -0.0997  0.0438
29642W        W46490   6.069   5.779   0.435  0.1597  0.0986 -0.3053
29643W        W46491   2.685   8.732  11.314 -0.0572 -0.1760  0.0224
29644W        W46492  12.314  11.698   3.953 -0.0226  0.0633  0.0473
29645W        W46493   2.626   9.461  14.320  0.1799  0.1430 -0.1771
29646W        W46494  16.428  11.943   3.096  0.0355 -0.0849 -0.1633
29647W        W46495   8.224  14.228   4.258  0.0224 -0.0886 -0.2365
29648W        W46496  17.594  13.762  12.366  0.0631  0.2562 -0.1273
29649W        W46497   1.653  11.040  11.989 -0.1475  0.1697 -0.5142
29650W        W46498  13.687  11.671  15.946  0.1180  0.0891 -0.0793
29651W        W46499  13.169   8.753   0.353  0.1720 -0.0719 -0.2098
29652W        W46500   0.071  15.380   3.859 -0.0030 -0.2148 -0.2662
29653W        W46501   7.210  14.985  11.611  0.0463 -0.2573 -0.1766
29654W        W46502  13.630  16.117  11.515 -0.2130  0.1634 -0.3486
29655W        W46503  11.488   4.644   0.760 -0.1204 -0.0229 -0.1951
29656W        W46504   9.169  14.844   1.431  0.1799 -0.1527 -0.1503
29657W        W46505   9.301   9.529  15.809  0.4469  0.2291 -0.1004
29658W        W46506  11.997   3.538   3.936 -0.2076 -0.0470 -0.1691
29659W        W46507   4.440   1.081  16.117  0.0023 -0.2832 -0.1484
29660W        W46508   5.910   3.582   4.097 -0.0819  0.3807  0.0164
29661W        W46509   0.294   9.897  11.213 -0.1222  0.4075 -0.0151
29662W        W46510   0.585   4.502  14.521 -0.0994 -0.1002  0.0313
29663W        W46511   6.797   3.614  14.808 -0.0132  0.1003  0.2618
29664W        W46512  13.758  15.715  14.335 -0.0081  0.1397 -0.2037
29665W        W46513   9.792   8.892  12.688  0.0488  0.0297  0.1568
29666W        W46514   7.490   2.977   3.400  0.2468  0.0361 -0.2700
29667W        W46515  11.798   1.338   4.176 -0.0701  0.1141 -0.2121
29668W        W46516   3.062   9.851   4.252  0.0278  0.0756  0.0526
29669W        W46517  17.711   0.812   3.661 -0.4082 -0.0802  0.0280
29670W        W46518  16.406   0.327  13.430  0.2569 -0.2871 -0.3155
29671W        W46519  17.400  15.629   1.961 -0.0959  0.0659 -0.1664
29672W        W46520   3.130   8.185  14.641 -0.3076 -0.3061  0.0368
29673W        W46521  17.916   3.439   1.124  0.2681 -0.1354  0.2650
29674W        W46522  18.112   0.500   2.319 -0.0986 -0.1257 -0.0279
29675W        W46523  15.094  11.525  13.344  0.0562  0.1979 -0.0761
29676W        W46524  15.963   2.558  11.006  0.1630  0.1835  0.2698
29677W        W46525   9.729  13.312   3.051 -0.0277  0.0126  0.0305
29678W        W46526   0.650   5.785  15.187 -0.1081  0.3744  0.1781
29679W        W46527  10.116   6.190   0.926  0.1351  0.0520 -0.1286
29680W        W46528   2.788  15.386  11.555  0.1733 -0.1251  0.3504
29681W        W46529  17.815  14.884   1.192 -0.2309 -0.0111 -0.2544
29682W        W46530   2.376  11.133   0.448  0.0205 -0.1149  0.5895
29683W        W46531  17.292   6.778   3.686  0.0593  0.0116  0.1780
29684W        W46532   0.080   4.962   0.188  0.0576 -0.0333 -0.0434
29685W        W46533   5.262  15.807   2.095  0.0236  0.2132  0.2583
29686W        W46534  15.440   9.145  12.307  0.2071  0.0982  0.2429
29687W        W46535   0.734   7.488   0.596  0.2760 -0.1528 -0.3217
29688W        W46536   2.982   2.837  15.620  0.0230  0.0930 -0.1588
29689W        W46537   9.232  11.001  11.813 -0.0191  0.3506  0.3063
29690W        W46538   7.609   5.046   0.225 -0.0483 -0.0622  0.1963
29691W        W46539   9.631   4.497   2.876  0.0995  0.1205  0.1071
29692W        W46540   2.100   2.634  10.416  0.1283  0.1226  0.0534
29693W        W46541   4.746  10.547   2.014  0.2679  0.1203  0.0614
29694W        W46542   7.293   4.179  14.287 -0.1379  0.1854 -0.0084
29695W        W46543  11.171   6.272   4.318  0.1212 -0.3650  0.0472
29696W        W46544  16.399  14.778  11.721 -0.1054 -0.0986  0.1535
29697W        W46545  17.696  15.245  14.517 -0.0020 -0.1827 -0.1207
29698W        W46546  10.131   0.307   2.646 -0.0804 -0.0620  0.3910
29699W        W46547   9.161   2.040   3.040  0.0618 -0.4423 -0.1646
29700W        W46548  15.620   4.465   1.828 -0.1272  0.0069  0.0137
29701W        W46549   9.036  11.588  12.547  0.0303  0.1698 -0.2609
29702W        W46550  14.242  15.198  13.642  0.1111  0.0996  0.0632
29703W        W46551   6.253  11.310  15.663 -0.2360 -0.0710 -0.1041
29704W        W46552  17.451  11.194  13.508 -0.1205 -0.0540  0.0993
29705W        W46553  11.230   2.681   1.227 -0.3004  0.0770  0.0544
29706W        W46554   9.868   8.657  14.389 -0.4816  0.0532  0.0336
29707W        W46555  12.870   6.884   4.868 -0.0441  0.1124  0.4607
29708W        W46556   4.001  17.391   4.811  0.1601  0.1432  0.0311
29709W        W46557   4.122  15.662   4.452  0.1307  0.1853 -0.2497
29710W        W46558  11.727   0.365  12.886 -0.0454 -0.0188 -0.1053
29711W        W46559   5.133   3.170  15.569  0.0478 -0.0841 -0.1251
29712W        W46560   3.760   4.220  12.174 -0.4313  0.1438 -0.3632
29713W        W46561  13.201   6.131   3.084 -0.1971  0.0703 -0.4316
29714W        W46562  13.408   8.742   4.532 -0.0554  0.2047 -0.3401
29715W        W46563   4.548  10.730   2.512 -0.4148  0.4454  0.3206
29716W        W46564   1.443   2.102   4.505  0.0415  0.4643 -0.0641
29717W        W46565  12.035   6.665  15.955  0.0336 -0.1251 -0.0440
29718W        W46566  16.998   6.524  15.331  0.0376 -0.1551 -0.1669
29719W        W46567   5.652  16.517   0.067  0.3727  0.3309 -0.2866
29720W        W46568  12.123   1.535  13.002  0.0947 -0.2481  0.1904
29721W        W46569   0.654   0.490   3.543  0.1119  0.1534  0.1999
29722W        W46570  12.228  14.050  14.062 -0.1281 -0.0843 -0.3298
29723W        W46571  13.435  12.279  14.164  0.1941 -0.2755  0.1253
29724W        W46572  16.714  11.275   4.920 -0.0473  0.2581  0.0609
29725W        W46573   3.382   7.157   2.117  0.0595 -0.0474 -0.1073
29726W        W46574  17.982   9.051   0.871  0.2065  0.3387 -0.0497
29727W        W46575   0.693  13.664   4.690 -0.3072 -0.1891 -0.0482
29728W        W46576   4.273  16.082   1.356 -0.0287  0.2787 -0.1619
29729W        W46577   9.247   5.367   2.799 -0.1121  0.0915  0.0352
29730W        W46578  13.193   3.215   3.451 -0.4795 -0.1704 -0.3897
29731W        W46579  10.570  13.127   1.385 -0.0815 -0.2341 -0.1098
29732W        W46580   6.449   9.008  10.875 -0.1505  0.5388  0.3257
29733W        W46581  14.347   1.162   2.176 -0.1556  0.0610 -0.0595
29734W        W46582  10.813  12.729   6.072  0.0212  0.0160 -0.2057
29735W        W46583   8.389  11.946   5.797 -0.1791  0.1022 -0.1422
29736W        W46584   2.954  16.200   2.041 -0.2229  0.0563  0.2132
29737W        W46585  17.712   6.443  12.424 -0.1885  0.1565  0.0919
29738W        W46586  10.866   4.548  11.778 -0.1711 -0.0430 -0.2576
29739W        W46587   6.210  14.555   2.744 -0.0426 -0.0927  0.1195
29740W        W46588  15.486  15.881  11.300 -0.1107  0.0235  0.0791
29741W        W46589   3.804  17.247   1.921  0.2500 -0.0758  0.0519
29742W        W46590  11.622   3.433  13.727  0.2464  0.0190 -0.2320
29743W        W46591   7.900  13.502   0.148  0.1609  0.3898  0.2560
29744W        W46592   4.660  12.051  12.765 -0.0114  0.0319  0.0596
29745W        W46593  17.455  17.504   0.134 -0.1255  0.0775 -0.0431
29746W        W46594   5.789  11.663   1.893 -0.0171 -0.3014 -0.2164
29747W        W46595   7.274  10.144  13.716 -0.1384  0.1069 -0.1092
29748W        W46596  13.883   5.252   0.702 -0.2090 -0.2590  0.3147
29749W        W46597  11.201   2.425   2.812  0.4528  0.0473  0.0670
29750W        W46598   5.349   0.523   2.921 -0.3308  0.0313 -0.1983
29751W        W46599   5.583   8.460  12.871  0.0993 -0.0734 -0.1415
29752W        W46600   4.471   0.067   0.824  0.3014  0.2430  0.0152
29753W        W46601  11.425  14.861  11.671  0.2615 -0.0231  0.1554
29754W        W46602   6.816   9.345  13.486 -0.1004  0.0802 -0.3767
29755W        W46603   7.425  13.880  15.579  0.1991  0.0213 -0.2390
29756W        W46604  14.749   3.182   4.512  0.1606 -0.4743 -0.1738
29757W        W46605   3.389  12.735  15.070  0.1764  0.0779  0.2241
29758W        W46606  15.618  15.293   1.999  0.0573  0.1607 -0.2549
29759W        W46607  10.251   5.333   0.866 -0.1965  0.0037 -0.3087
29760W        W46608   4.870  14.086  16.036  0.0182 -0.1757 -0.0723
29761W        W46609   5.269   6.189   4.949  0.1543  0.0792 -0.0905
29762W        W46610   7.152  14.132   3.594 -0.2153 -0.2674  0.0542
29763W        W46611  10.162  11.445   4.720  0.1026 -0.3700  0.0260
29764W        W46612   9.635   0.727  14.249  0.0864  0.1745 -0.2652
29765W        W46613   8.160  16.041  10.864 -0.1236 -0.0075 -0.1086
29766W        W46614   2.796  16.365   1.553  0.0291  0.0919  0.0604
29767W        W46615  11.180   5.703  15.805  0.1866 -0.1831  0.0589
29768W        W46616  14.103   4.407   1.434 -0.1717 -0.1001  0.0531
29769W        W46617  11.210   5.455   4.924 -0.2512  0.2637 -0.0292
29770W        W46618  18.105   7.775  12.509 -0.1542 -0.1346 -0.3334
29771W        W46619   3.447  15.790   4.581  0.0616 -0.0573  0.0293
29772W        W46620  16.480   4.590   3.841  0.1316 -0.1446  0.0310
29773W        W46621   3.081  14.408   5.062 -0.0839  0.2368 -0.0910
29774W        W46622  16.540   1.781  12.009 -0.0146  0.1968  0.0169
29775W        W46623   8.229  15.222   0.138 -0.4931  0.2391 -0.3636
29776W        W46624  10.036   2.586   2.376  0.0245 -0.0757  0.0674
29777W        W46625  12.939   9.938  11.624 -0.0546  0.1843 -0.2184
29778W        W46626   6.762   6.563   0.149 -0.0678 -0.1562 -0.1463
29779W        W46627  16.059  12.299   0.134  0.1959  0.0416 -0.0060
29780W        W46628   8.162  15.982  11.892 -0.2835 -0.0352 -0.3359
29781W        W46629  11.866   4.640  14.647  0.0530 -0.1031 -0.0087
29782W        W46630  15.446  15.221  12.666  0.0758 -0.2147  0.1090
29783W        W46631  11.939   1.919  11.944 -0.0134  0.2058  0.1042
29784W        W46632  12.334   2.532   0.077  0.0390 -0.1982  0.2832
29785W        W46633  16.097  13.154  13.723  0.0860 -0.0090 -0.1231
29786W        W46634   5.516  10.324   2.323  0.0382 -0.1653  0.3252
29787W        W46635   2.635   2.456  13.331  0.1079  0.0558  0.1860
29788W        W46636   7.943   5.177   2.511 -0.0433 -0.1826 -0.0760
29789W        W46637   2.155  12.893  11.144 -0.3187  0.0403  0.0686
29790W        W46638   2.797   9.957  15.128  0.1551  0.1524 -0.5023
29791W        W46639  15.301   6.705   0.510 -0.0206  0.4113  0.2438
29792W        W46640  12.430  13.790  11.534 -0.0829  0.4047 -0.1898
29793W        W46641   5.526   6.965   4.723  0.0171  0.1745 -0.0870
29794W        W46642  14.516   3.325   1.691  0.1209 -0.1413  0.3825
29795W        W46643  14.250   9.283   1.029  0.0403  0.0304  0.2087
29796W        W46644   9.642   1.674  11.531  0.1052 -0.0893  0.0870
29797W        W46645  12.908  12.644  12.206 -0.3122  0.0091  0.0500
29798W        W46646   1.952   2.749  15.345  0.0500 -0.1548  0.1706
29799W        W46647   6.785  16.041   5.322  0.2327 -0.0083 -0.1650
29800W        W46648   0.339   3.471  12.486 -0.1472 -0.0438 -0.0656
29801W        W46649   2.066   8.232   0.529  0.0754  0.0367  0.0410
29802W        W46650   1.538  13.958   4.579  0.1791  0.0486 -0.0119
29803W        W46651   9.786   5.575  13.162  0.0414 -0.0335 -0.1134
29804W        W46652  16.035  11.229   0.091  0.0880 -0.0033  0.0833
29805W        W46653   9.390  12.550   1.497 -0.1717  0.3974  0.1883
29806W        W46654   1.479   4.019   2.328 -0.2840  0.0538 -0.1134
29807W        W46655  17.797  10.845   2.611 -0.0497 -0.2553 -0.1407
29808W        W46656  13.260  10.790   3.547  0.0273 -0.2917 -0.0773
29809W        W46657   9.879  16.298   3.069  0.0569  0.0683  0.0239
29810W        W46658   0.051  18.120   2.459  0.1360 -0.2597  0.0596
29811W        W46659   7.126   1.355  15.048 -0.3762 -0.3570  0.0858
29812W        W46660   8.678   3.122  14.483 -0.1045  0.0738 -0.1853
29813W        W46661   1.044   8.808  15.631 -0.2514 -0.0065 -0.2346
29814W        W46662  18.207   2.193  12.993  0.0918  0.0469 -0.2157
29815W        W46663   3.797   3.653  13.332  0.1546 -0.1788  0.1873
29816W        W46664  11.664   4.341   0.315 -0.1898 -0.4604  0.0549
29817W        W46665  11.726   0.457  11.373 -0.0524 -0.1944  0.2212
29818W        W46666   0.851   9.847  12.907 -0.0937  0.3535  0.2480
29819W        W46667   9.463  10.195  11.790  0.0973  0.3080  0.0687
29820W        W46668   0.706  10.710   0.116  0.2620 -0.0248  0.0897
29821W        W46669  15.812  15.802   3.926 -0.2620 -0.3314  0.1273
29822W        W46670   6.066  14.015   0.255  0.0366 -0.0057  0.3327
29823W        W46671  16.208  12.359   0.617  0.0300 -0.1101  0.1890
29824W        W46672  16.267   3.352  15.742  0.1198  0.2787  0.0829
29825W        W46673  13.679   8.042  14.913  0.1386  0.0351 -0.3904
29826W        W46674  12.021   6.716  11.895 -0.3407 -0.3326 -0.4015
29827W        W46675   8.967   7.614  12.467  0.0206 -0.0633 -0.2358
29828W        W46676   3.384   1.731  13.705  0.1970  0.0973 -0.1511
29829W        W46677  11.404   9.839  14.859 -0.1337  0.4095  0.1889
29830W        W46678   9.544   9.888  13.035 -0.1659  0.1166 -0.1479
29831W        W46679   2.306  14.031  15.621 -0.1817 -0.0962 -0.5160
29832W        W46680   1.017   5.692  14.867  0.0521 -0.0470  0.0570
29833W        W46681   5.466   5.333   5.856  0.2079 -0.1460  0.1564
29834W        W46682  15.948   7.129   0.712  0.1559  0.3355  0.0811
29835W        W46683  17.623  11.754  13.208 -0.0878  0.3515 -0.0186
29836W        W46684  15.410   6.511  15.044 -0.1216  0.1578 -0.0466
29837W        W46685   1.001  11.583   0.272 -0.3886  0.1392 -0.3943
29838W        W46686   7.962  15.264  14.729 -0.0653  0.1449  0.0581
29839W        W46687  11.740  10.276   2.707  0.4216  0.5958  0.1157
29840W        W46688  13.381  12.796   0.547 -0.0754  0.0706 -0.0645
29841W        W46689  14.057   5.709   0.760 -0.1482 -0.0744 -0.2316
29842W        W46690  17.984  12.792   4.795 -0.2721 -0.3101 -0.2020
29843W        W46691  15.124  15.525   1.676 -0.1442  0.0715  0.2416
29844W        W46692   0.758  11.574   2.046  0.1063  0.3013  0.2620
29845W        W46693  13.380   9.250   3.462 -0.0925  0.1715  0.1511
29846W        W46694   6.443   9.848  15.853 -0.1215  0.1228  0.1738
29847W        W46695  11.473  11.539   1.917  0.2543 -0.1117  0.2425
29848W        W46696   2.865  12.462   5.906  0.1230 -0.0660  0.2753
29849W        W46697  18.148  16.421   4.348 -0.1638  0.2279 -0.0169
29850W        W46698  17.211   4.038  12.715  0.2011  0.0869 -0.0683
29851W        W46699   0.778   9.001   4.000  0.0626  0.1795  0.0017
29852W        W46700   1.550   9.662  15.460  0.1171 -0.0182  0.0495
29853W        W46701  12.913   4.707   3.029  0.1553  0.0682  0.1067
29854W        W46702   2.150   3.188   0.036 -0.0666 -0.1177  0.3392
29855W        W46703   8.740  15.764  15.749  0.0582  0.2730 -0.4413
29856W        W46704   4.171   8.776  15.526  0.4238  0.0033 -0.0509
29857W        W46705   4.663  12.510   2.684 -0.0047 -0.0275  0.3578
29858W        W46706  17.107  16.691  11.858  0.2150  0.2482 -0.0740
29859W        W46707   0.492  12.008   2.081  0.0878  0.0414 -0.0004
29860W        W46708   6.880  11.872  10.479  0.4220  0.1164 -0.1277
29861W        W46709   8.616   6.201   1.306 -0.0817  0.1369 -0.1804
29862W        W46710   3.063  11.379   1.104 -0.0960  0.0047 -0.0323
29863W        W46711  18.085  15.304   4.870 -0.0919  0.0417  0.3213
29864W        W46712   3.343  10.093  11.091 -0.1835 -0.0820 -0.0614
29865W        W46713   7.269  16.804  14.570 -0.2939 -0.1517 -0.0140
29866W        W46714  15.179   4.399  15.289  0.2818 -0.0675  0.1621
29867W        W46715  10.431   8.827   0.029  0.1348 -0.2001 -0.1977
29868W        W46716  14.238   9.351  12.775 -0.0576  0.0830 -0.1988
29869W        W46717  13.244  15.011   0.637  0.2559 -0.0322  0.0435
29870W        W46718   7.382  14.784  13.512  0.2169 -0.0273  0.0073
29871W        W46719  15.530  16.814  14.221 -0.0608 -0.5628 -0.1967
29872W        W46720   4.335   5.779   5.883  0.0107 -0.1512  0.1096
29873W        W46721  17.479   2.135   5.636  0.2192  0.0167  0.3919
29874W        W46722   0.877  12.028  13.824  0.0005 -0.2999 -0.3675
29875W        W46723   4.983  10.142   2.106 -0.1368 -0.1320  0.0350
29876W        W46724   3.811  11.033   0.969  0.0979 -0.1740 -0.0305
29877W        W46725  14.008   2.883  11.109 -0.1212 -0.1645  0.2948
29878W        W46726  13.506   6.522  13.155  0.4194 -0.1204 -0.1963
29879W        W46727   1.613   7.994   0.611 -0.1246 -0.0561 -0.2195
29880W        W46728  13.943  15.426  13.927  0.3725  0.3552 -0.2714
29881W        W46729   6.258   5.144  11.917  0.0331  0.1138  0.1171
29882W        W46730   6.270  13.819  14.956  0.0569  0.0991  0.0392
29883W        W46731  17.731  13.693   2.664 -0.4647  0.0470 -0.1367
29884W        W46732  12.171   0.879   3.305  0.0324  0.1909 -0.0933
29885W        W46733  12.016   2.650  15.153 -0.0635 -0.0969 -0.1082
29886W        W46734   4.903  14.187   4.646  0.0289  0.2128 -0.1297
29887W        W46735  17.523  14.372   0.013  0.0044  0.0076  0.2408
29888W        W46736  13.033   8.424  14.930 -0.4580  0.1058  0.0740
29889W        W46737  10.607   4.729  14.865 -0.0817 -0.0381  0.1703
29890W        W46738  13.892   4.274  13.123  0.1798  0.3195 -0.2463
29891W        W46739   0.335   4.339  15.583  0.2581 -0.2185  0.0301
29892W        W46740   7.019   8.946   2.068  0.0016  0.2050  0.2890
29893W        W46741  10.704  13.009   1.849  0.2298  0.0167  0.0258
29894W        W46742   9.093  10.306  13.546 -0.0348 -0.1162  0.1165
29895W        W46743  15.123  13.943  15.857  0.1642 -0.1602  0.1354
29896W        W46744  17.988   2.251  13.445 -0.2313 -0.1341 -0.0926
29897W        W46745  10.088  10.651  15.532 -0.2048 -0.2117  0.1991
29898W        W46746  16.702   2.229   2.070 -0.2418  0.1590  0.1139
29899W        W46747   5.081   3.027   3.703  0.0841 -0.1130 -0.1168
29900W        W46748   1.169  15.117   5.425 -0.1016  0.2331 -0.1762
29901W        W46749  13.324   7.397  14.185 -0.1486  0.1271 -0.0106
29902W        W46750  15.492   3.759   3.531 -0.3305  0.0026  0.1017
29903W        W46751  16.447  17.077   3.785 -0.1451 -0.0872 -0.0699
29904W        W46752   4.506   4.843  13.030 -0.1178  0.1967 -0.2216
29905W        W46753  12.020   9.321   3.358  0.0471  0.2674  0.2470
29906W        W46754   2.343   4.307   5.917 -0.3128 -0.0812  0.0038
29907W        W46755   5.790   1.871   4.685 -0.1487 -0.1887  0.0646
29908W        W46756   0.954   4.103   2.086  0.1102  0.0221  0.1288
29909W        W46757  15.340   1.685   2.598  0.0870  0.2246 -0.3374
29910W        W46758  17.007   0.147  16.071  0.0767 -0.0457  0.1407
29911W        W46759   0.408  15.775  11.776 -0.0390 -0.1780 -0.2628
29912W        W46760  12.550  18.093  14.924 -0.0933 -0.1351 -0.0476
29913W        W46761  12.774  18.093  10.504  0.0416  0.3177 -0.1320
29914W        W46762   3.943   1.800   4.955  0.0547  0.0277  0.1547
29915W        W46763  15.530  10.080   3.617  0.1295 -0.0085  0.3309
29916W        W46764  14.999  14.545   0.666 -0.1477  0.1646 -0.0568
29917W        W46765   0.405  17.891   0.047  0.0011 -0.0341 -0.1345
29918W        W46766  15.597   2.161  13.294  0.0381  0.0230  0.2063
29919W        W46767  13.095  16.443   1.050  0.1154 -0.1158  0.1213
29920W        W46768   1.420   5.026   4.860 -0.0715 -0.3159  0.0696
29921W        W46769   7.058  16.298   0.254  0.2568  0.1158  0.3400
29922W        W46770   6.839  10.090   3.465 -0.1116  0.2416  0.1424
29923W        W46771   2.032  16.939  14.880 -0.0064  0.0233  0.1254
29924W        W46772   8.675  13.073  15.653 -0.1827 -0.2287 -0.0984
29925W        W46773  15.400   2.775   2.125  0.1197  0.0401 -0.1232
29926W        W46774  17.383   0.365  12.579 -0.0591 -0.1137  0.2714
29927W        W46775  14.188   3.364  12.539  0.2930  0.3337 -0.4352
29928W        W46776  17.882  14.144   4.403 -0.0089  0.1309  0.1543
29929W        W46777  14.696   0.820   0.882  0.1709  0.0219 -0.6340
29930W        W46778  11.382  13.334   3.796 -0.0737  0.0314 -0.3853
29931W        W46779   8.814   6.929   0.859 -0.3698  0.3339  0.2187
29932W        W46780   6.591   3.134  14.764  0.0200  0.2119 -0.0507
29933W        W46781   4.239  13.326   0.439 -0.1875  0.0130  0.0783
29934W        W46782  17.623  12.797  13.524 -0.3825  0.3142  0.0038
29935W        W46783   1.419  16.095   5.676 -0.1602  0.1401 -0.0904
29936W        W46784   5.696   9.966  14.845  0.1421  0.1584 -0.0238
29937W        W46785   4.669   4.024  13.693  0.2209  0.4178 -0.1614
29938W        W46786   8.524   6.813   1.836 -0.0926  0.0950 -0.0498
29939W        W46787   9.687  13.046  14.726 -0.4276  0.0466 -0.1619
29940W        W46788  12.035  12.261   0.811  0.2902 -0.0113  0.0619
29941W        W46789   2.512   7.128   3.984 -0.0385 -0.4035 -0.0387
29942W        W46790  10.733  17.194   0.523 -0.4454 -0.1357 -0.1277
29943W        W46791   8.227   5.464  13.223  0.2081  0.0341 -0.2639
29944W        W46792  12.619   2.748  13.389 -0.0296 -0.0974 -0.3866
29945W        W46793   6.675  18.091  11.637  0.5781  0.0582 -0.1302
29946W        W46794   9.675  17.706  12.095  0.3304  0.1394  0.2843
29947W        W46795  14.296   9.036  11.587 -0.1055 -0.0979 -0.0070
29948W        W46796  14.985  14.347  11.920  0.2269  0.0343  0.1943
29949W        W46797  16.215  14.822  13.963  0.0897  0.2376 -0.0133
29950W        W46798   1.783   8.362  14.706 -0.1821  0.2269 -0.0801
29951W        W46799   6.802  13.145  12.423 -0.0843 -0.0675  0.0028
29952W        W46800  11.820  11.873   3.983  0.2458 -0.1496 -0.1927
29953W        W46801  17.463   7.397  14.253 -0.0163  0.1194  0.0833
29954W        W46802  10.766   2.837   0.931 -0.2203 -0.2559  0.1292
29955W        W46803  10.231  10.696  14.990 -0.1095 -0.1103 -0.3009
29956W        W46804   6.241  11.603  11.395 -0.1971  0.0399 -0.0166
29957W        W46805   3.027   1.683   2.769  0.1977 -0.0995  0.1215
29958W        W46806   6.474   0.153   0.907 -0.0366 -0.0455 -0.2615
29959W        W46807  11.726  15.339  15.564  0.4559 -0.2046 -0.0632
29960W        W46808  11.517   3.410  12.498  0.2764 -0.1309 -0.1226
29961W        W46809  16.288   9.938   2.657 -0.0777  0.0388 -0.2117
29962W        W46810   7.847  13.982  15.856 -0.2628 -0.2210 -0.0279
29963W        W46811   5.438  11.597   4.812 -0.0549  0.0460 -0.0606
29964W        W46812   5.401   9.615   0.602 -0.0644 -0.1766  0.1097
29965W        W46813  12.028  15.896   0.773  0.2166 -0.1528 -0.2048
29966W        W46814   4.638   4.935   2.154  0.0255  0.2177 -0.3001
29967W        W46815  13.234  11.932   3.789  0.0523 -0.1375  0.1123
29968W        W46816  13.962   4.447  12.674 -0.0520  0.0163 -0.0637
29969W        W46817  13.568  14.158   3.314 -0.2890  0.0687  0.0114
29970W        W46818   9.253  13.059  11.524  0.2934 -0.0635 -0.0047
29971W        W46819  14.438   8.006   3.118  0.0675  0.1165 -0.0812
29972W        W46820  15.474   7.825  12.626 -0.1540 -0.0220  0.0734
29973W        W46821   2.168   0.685  15.531 -0.0517  0.0193 -0.0300
29974W        W46822   4.186   5.484  13.692 -0.2185 -0.0360  0.0799
29975W        W46823  13.502   9.822   2.369 -0.1070 -0.1255 -0.0536
29976W        W46824  18.005   4.079   0.426 -0.1885 -0.0312  0.1524
29977W        W46825  15.468   9.433  10.274  0.0379  0.0854 -0.0188
29978W        W46826   1.029   6.871   4.566 -0.1777  0.2528  0.1231
29979W        W46827   9.215  13.749  15.418  0.0262 -0.3975  0.2289
29980W        W46828   2.524  14.110  11.044  0.1285  0.0352  0.1335
29981W        W46829  12.910  13.377  14.279  0.1023 -0.1530  0.2548
29982W        W46830  13.006   9.050  14.391 -0.0753 -0.0355  0.0818
29983W        W46831  15.773  16.688  12.610  0.1300  0.1010  0.0768
29984W        W46832  10.204   4.282  11.577  0.0654  0.1800 -0.1913
29985W        W46833  16.725   8.966   2.865 -0.2061  0.2338 -0.2148
29986W        W46834  16.512   4.206  14.550 -0.3067 -0.2081  0.1937
29987W        W46835   4.833  17.746   1.821  0.0994  0.0129  0.1061
29988W        W46836  17.769   6.702   0.009 -0.3524  0.0755  0.0440
29989W        W46837   9.050   6.117   0.865 -0.1886  0.3204 -0.1522
29990W        W46838  16.538   3.013   4.761  0.0404  0.1010  0.1930
29991W        W46839   3.116   4.691  15.582 -0.0677  0.0202  0.3437
29992W        W46840   6.560   3.426  14.388  0.2055 -0.0526 -0.1864
29993W        W46841  16.728   3.896  12.826  0.1701 -0.0989 -0.1556
29994W        W46842  12.957  16.242  12.335  0.0035 -0.2934 -0.2678
29995W        W46843  10.947   9.277   3.970 -0.1851  0.2566 -0.4354
29996W        W46844  13.713  13.863  13.999 -0.1954  0.2247  0.0129
29997W        W46845   4.281  13.769  11.620 -0.0865 -0.0746  0.2252
29998W        W46846   1.044   5.923   5.145  0.2043  0.0760  0.0453
29999W        W46847   3.030   2.602  13.620 -0.0445 -0.1574  0.1297
30000W        W46848   0.209   2.028  15.438 -0.0960  0.0334  0.0897
30001W        W46849  13.706  16.333  13.762 -0.0723 -0.1649  0.3917
30002W        W46850   1.270   4.071  15.394 -0.2582  0.2668  0.0334
30003W        W46851  15.463  12.609   3.120  0.1008  0.1436 -0.2639
30004W        W46852   5.160  12.326   2.609 -0.0082 -0.0027 -0.2340
30005W        W46853  13.113   5.227   4.748  0.2013  0.1573 -0.3872
30006W        W46854   7.133   2.797  14.506  0.1627 -0.0572 -0.0683
30007W        W46855  12.469   5.928   0.206  0.2288  0.1978  0.0560
30008W        W46856  16.258  11.903   4.348  0.0206  0.0064  0.0188
30009W        W46857  11.570   1.048   4.633  0.1822  0.1976 -0.3841
30010W        W46858   9.531   1.027   1.104 -0.0757  0.3653  0.1776
30011W        W46859   9.817  18.104   4.005  0.1453 -0.0453  0.1328
30012W        W46860   4.518   6.443  12.257  0.0663  0.2641 -0.0181
30013W        W46861   1.534  11.295   4.572 -0.2000 -0.0181  0.1400
30014W        W46862   8.832  14.996  12.368  0.2376 -0.0086 -0.2669
30015W        W46863   7.664  18.161  13.688 -0.2122 -0.1460  0.0666
30016W        W46864  10.908  10.471  15.440 -0.1229 -0.0006 -0.0544
30017W        W46865  15.700  13.678  10.245 -0.2881 -0.1839 -0.3258
30018W        W46866   9.780  11.369   5.134  0.1204  0.0754 -0.1418
30019W        W46867  10.519   1.649   4.900 -0.0866  0.1733 -0.2557
30020W        W46868   8.684   6.005   5.787 -0.0287 -0.3328 -0.5486
30021W        W46869   0.275   9.199  14.012 -0.0897  0.2368  0.1869
30022W        W46870   7.289   3.326   3.760 -0.1330  0.1053  0.0337
30023W        W46871  17.987  10.889   1.709 -0.3272  0.1229  0.3270
30024W        W46872  17.443  16.399  11.586 -0.3305  0.0446  0.0302
30025W        W46873  17.486   9.801   0.285  0.0019 -0.4171 -0.2284
30026W        W46874  17.490  16.814  12.149  0.5425 -0.0974  0.0770
30027W        W46875   6.149  12.240   3.158  0.0445 -0.2317 -0.0316
30028W        W46876  10.079   2.588  14.180 -0.0107  0.0280  0.3204
30029W        W46877   3.582  10.181   0.575 -0.1028 -0.1034 -0.0591
30030W        W46878  11.278   9.655   5.217  0.0212  0.1967  0.1080
30031W        W46879   1.930  12.357   5.290  0.2647  0.1958  0.0834
30032W        W46880   4.120  13.860  15.413 -0.2155 -0.1747 -0.0342
30033W        W46881  10.857   5.527  14.896  0.0450  0.0057  0.0312
30034W        W46882   8.342  17.712   3.533 -0.0366  0.0846 -0.1363
30035W        W46883  17.065   2.756  12.450  0.1916  0.0357  0.1638
30036W        W46884  15.478   2.812  14.485  0.0731  0.1847 -0.1073
30037W        W46885  15.616  11.301   4.329 -0.0049 -0.2338  0.1686
30038W        W46886  17.300  15.889  11.414 -0.2628  0.0562  0.1175
30039W        W46887  17.556   1.276  12.898 -0.0406  0.0479  0.0682
30040W        W46888   5.492  11.901  16.074  0.2052 -0.0541  0.0787
30041W        W46889  13.038   4.732  15.793  0.1757 -0.3609 -0.4640
30042W        W46890   0.798   8.233  12.375 -0.3062 -0.1475 -0.1556
30043W        W46891   3.339   8.929   4.209  0.0749 -0.0323 -0.2518
30044W        W46892  17.686   1.424   4.882  0.0170 -0.1240  0.1324
30045W        W46893  17.709   8.866   0.446 -0.2935 -0.0575  0.1445
30046W        W46894  12.772   5.939  10.039  0.3711 -0.1592  0.2318
30047W        W46895  13.664  12.803  13.160  0.1528 -0.1885  0.1377
30048W        W46896   9.793  14.874   2.000 -0.0343  0.0223  0.2733
30049W        W46897   8.716   4.166   2.389  0.0476 -0.1343  0.0440
30050W        W46898  14.987  17.702  12.163 -0.2531  0.0216 -0.0664
30051W        W46899  17.211   3.045  10.771 -0.0826 -0.1580  0.2047
30052W        W46900  16.896  13.058  15.143  0.0098  0.1863  0.1645
30053W        W46901  15.682  13.397   3.690 -0.1754 -0.0002 -0.2139
30054W        W46902   6.558   2.949   0.840 -0.2459  0.2070  0.1252
30055W        W46903  15.581   3.225   3.211  0.4699  0.2145  0.2783
30056W        W46904   8.075   6.276   2.399 -0.1980 -0.1047  0.0340
30057W        W46905   5.038  12.180   0.575 -0.1385  0.5063 -0.2536
30058W        W46906   1.921   8.443  13.012  0.0014 -0.0470  0.1943
30059W        W46907  10.321   1.438  12.101 -0.0459  0.3299  0.0445
30060W        W46908   3.482  17.303   4.052  0.1597 -0.0319 -0.5101
30061W        W46909   1.705  13.454  15.949  0.2595 -0.0574 -0.0403
30062W        W46910  14.327  16.099   0.492 -0.0131 -0.1648 -0.1143
30063W        W46911   1.307  17.150  14.402  0.1029 -0.2383  0.1257
30064W        W46912  12.380  12.652   0.834  0.2526  0.1709  0.3894
30065W        W46913  12.533   5.935   1.659 -0.1482 -0.0779 -0.3012
30066W        W46914  10.605  10.615   1.841 -0.0031 -0.2349 -0.1610
30067W        W46915  11.620   8.496   4.503 -0.2854  0.2600 -0.1299
30068W        W46916   2.032  16.683   4.939  0.0111  0.0599 -0.1359
30069W        W46917   0.176  16.750   2.415  0.2809 -0.2681 -0.2340
30070W        W46918  10.087  17.361   4.491 -0.1170 -0.2406  0.0511
30071W        W46919  16.308   5.073  12.627 -0.1079 -0.0928  0.2760
30072W        W46920   4.697   6.447   1.127  0.2149  0.1929 -0.1855
30073W        W46921   1.146  11.747   4.415  0.0910  0.0469 -0.3931
30074W        W46922   8.264  13.673  14.167 -0.0114 -0.2908 -0.2713
30075W        W46923  17.647  11.561  11.443  0.2974 -0.1619  0.2210
30076W        W46924  17.328  11.885   2.633 -0.2427 -0.0391  0.1196
30077W        W46925   7.270   0.445   0.353 -0.0395 -0.1955  0.0578
30078W        W46926   8.964   3.920   3.178  0.1333  0.1825 -0.1953
30079W        W46927   4.837  14.832   3.544 -0.0525 -0.0974  0.1434
30080W        W46928  13.674  10.833  15.274  0.0083  0.1809  0.1168
30081W        W46929  10.890   5.882   3.533  0.1650 -0.0763 -0.1326
30082W        W46930   1.033   2.826  14.342  0.1079  0.0376 -0.0865
30083W        W46931  12.576   0.337  14.049  0.1763  0.1481 -0.0603
30084W        W46932   5.167   2.527   5.036  0.0289  0.4211  0.2032
30085W        W46933   5.260  16.674  15.656 -0.0731  0.1354  0.3606
30086W        W46934   8.863  11.440  13.639 -0.2244  0.1247  0.1541
30087W        W46935   3.793  16.287   1.281  0.0908 -0.1122  0.3204
30088W        W46936  17.279   3.474  15.600  0.1079 -0.0410  0.0814
30089W        W46937  10.879   0.258   0.892  0.0694  0.2778  0.1062
30090W        W46938  13.792   4.862  12.308  0.1497 -0.1277  0.2295
30091W        W46939   8.712  13.200   2.113 -0.0403  0.2572  0.0543
30092W        W46940   4.959  10.506   5.330  0.3059 -0.0240 -0.0537
30093W        W46941   7.801   8.512  15.201 -0.0508 -0.1036 -0.0565
30094W        W46942   1.171  13.230  12.773 -0.0690  0.1734  0.0131
30095W        W46943   5.541   9.943  11.090 -0.1110 -0.1626  0.0941
30096W        W46944  14.682  16.075  15.533 -0.1860  0.0240 -0.1830
30097W        W46945  16.046   9.622  13.101  0.1021  0.1015 -0.3403
30098W        W46946   3.018   9.055   5.109  0.1951 -0.0068  0.1376
30099W        W46947   8.046   9.801  13.344 -0.0975 -0.0519  0.0230
30100W        W46948   1.806   8.701  10.865  0.2521  0.1692  0.3478
30101W        W46949   3.590  14.098  13.291 -0.0054  0.1370  0.2181
30102W        W46950  15.741   8.919  13.034  0.4329 -0.1229  0.0481
30103W        W46951   1.894  15.022  13.831 -0.1918 -0.1911  0.2510
30104W        W46952   6.405   1.632   2.419 -0.1020  0.0742  0.4223
30105W        W46953  11.462   1.016   0.980  0.2713  0.0207 -0.1585
30106W        W46954  11.871  10.995  12.416 -0.2559 -0.0751 -0.2119
30107W        W46955   3.508   7.336   2.641  0.0503 -0.2090 -0.1899
30108W        W46956  10.125   1.490  11.625  0.1880  0.1997 -0.0230
30109W        W46957  16.641   1.627  14.665  0.3211 -0.0176  0.0663
30110W        W46958  17.120  11.050  10.471  0.0743  0.2446  0.0936
30111W        W46959   8.339  12.062   4.884  0.0722 -0.0535  0.1348
30112W        W46960   1.245   9.160   3.769  0.1071 -0.0847 -0.0001
30113W        W46961   8.280   1.459   0.811 -0.3701  0.2163  0.2556
30114W        W46962  13.763  10.176  15.802 -0.1220 -0.1046 -0.2741
30115W        W46963  14.517   2.207   0.483 -0.0820  0.0321  0.3147
30116W        W46964  14.770   1.277   2.510  0.5585 -0.1188  0.0379
30117W        W46965  12.966   1.470  14.185  0.2727  0.2239 -0.1121
30118W        W46966   6.547  18.200  12.587  0.1036  0.2052 -0.2626
30119W        W46967  15.906   7.051  11.846 -0.2341 -0.0268 -0.1537
30120W        W46968   7.821   6.269  11.544  0.0535  0.1071  0.2758
30121W        W46969  11.140   0.723  13.912  0.0206  0.0170 -0.1120
30122W        W46970   3.377  13.240  13.436 -0.0393  0.2273 -0.1686
30123W        W46971   3.926  14.478  11.283  0.0059 -0.3097  0.0724
30124W        W46972   3.275   5.238   2.504  0.0158  0.0918 -0.0719
30125W        W46973   4.848   7.102  13.287 -0.0985  0.0971  0.1464
30126W        W46974   0.969  17.339   3.469 -0.0891  0.1469  0.5772
30127W        W46975  12.365   5.143   2.275  0.3104 -0.3073 -0.4502
30128W        W46976  13.547  16.161   4.096 -0.1377  0.1459  0.0909
30129W        W46977   9.554   5.944  11.853 -0.1794 -0.1584  0.1135
30130W        W46978  12.976   1.094  14.570  0.1380  0.1534 -0.0914
30131W        W46979   2.079   7.110  11.100 -0.1809  0.1286  0.0288
30132W        W46980   7.234  16.978  15.794  0.0138  0.0345  0.2170
30133W        W46981   9.659   4.782   1.825 -0.1703 -0.1997  0.0668
30134W        W46982  17.137  13.654  13.692 -0.1050 -0.1867  0.2043
30135W        W46983   6.184   1.977   1.480 -0.0979  0.2766 -0.0104
30136W        W46984   1.137   7.540   5.456  0.1811 -0.0398 -0.3177
30137W        W46985   5.154  17.250   3.860  0.0888 -0.0679  0.2534
30138W        W46986  10.844   9.303  11.487 -0.0345 -0.0592  0.0783
30139W        W46987  16.350  15.651  11.601 -0.1638  0.2282 -0.0163
30140W        W46988   1.113   9.444  12.194 -0.2771 -0.2773 -0.2303
30141W        W46989  13.909   2.834   4.746  0.2796 -0.1215  0.0083
30142W        W46990   4.656  17.924  12.016  0.2922 -0.2467  0.3083
30143W        W46991  10.002  16.110  12.845 -0.1586  0.2235  0.0345
30144W        W46992   7.551   2.608   4.443  0.0287 -0.2574 -0.0221
30145W        W46993  13.854   7.110   5.118  0.0333  0.1438  0.1211
30146W        W46994   8.071  11.886  13.667  0.0397 -0.0334 -0.0770
30147W        W46995  13.131   7.710  15.556  0.0012 -0.2059  0.0910
30148W        W46996  15.904  17.553   2.403  0.3783 -0.2067 -0.0143
30149W        W46997   9.400   5.879   4.483 -0.1191 -0.0267 -0.2793
30150W        W46998   6.847  14.177  14.901  0.2270  0.0261 -0.2364
30151W        W46999  12.899   3.841  13.503  0.1738  0.0326  0.0891
30152W        W47000  18.125   0.327   1.399  0.0354  0.2325 -0.0389
30153W        W47001  14.834   6.815   0.473  0.1986 -0.0614  0.1996
30154W        W47002   7.910   8.644   5.158 -0.0257  0.2243 -0.1184
30155W        W47003  17.763  16.670  11.265 -0.1265  0.1817 -0.1311
30156W        W47004   3.334   9.409   4.040  0.0569 -0.3227  0.1566
30157W        W47005   4.993  13.279   4.268  0.2310 -0.0435 -0.1841
30158W        W47006  14.392  12.198  14.414 -0.1099  0.3257 -0.0194
30159W        W47007  16.448   3.888  13.618 -0.1275  0.0296  0.2259
30160W        W47008   9.392  10.025  15.989  0.0192 -0.0019  0.0697
30161W        W47009   8.274  15.618   1.827 -0.0064 -0.1806  0.2380
30162W        W47010   4.420  17.374  13.694  0.2477 -0.1970  0.0372
30163W        W47011  10.296  11.443  10.311 -0.4302 -0.0926 -0.2554
30164W        W47012  17.595   7.247   4.551 -0.1236 -0.1518 -0.0328
30165W        W47013  15.385  16.451  13.006  0.0569  0.0384  0.0719
30166W        W47014   2.920  13.405   4.092  0.0937  0.1812 -0.0144
30167W        W47015   6.358   4.919   3.824 -0.2217  0.0897  0.0456
30168W        W47016   2.228  16.521   4.481 -0.2299  0.1378 -0.2245
30169W        W47017   5.323   3.746   1.187 -0.1768  0.0896  0.1532
30170W        W47018  18.079  10.457  12.463  0.0310  0.3699 -0.0661
30171W        W47019   2.323  12.236   4.887 -0.1487  0.3102 -0.0574
30172W        W47020  15.111   7.632  15.218 -0.0775 -0.3008 -0.3988
30173W        W47021   7.870   9.520   4.438  0.3912  0.1300  0.0449
30174W        W47022  10.157   4.868   1.306  0.2535 -0.0759 -0.0731
30175W        W47023  15.218   8.636  13.607  0.2246  0.0766 -0.2676
30176W        W47024   5.903  11.616   2.420  0.1236 -0.2312  0.0496
30177W        W47025  13.728   9.959  11.490  0.2021 -0.0557  0.0228
30178W        W47026  11.591  13.253   1.822 -0.3906  0.0628  0.1172
30179W        W47027  11.293   2.407   3.670 -0.3076  0.3042  0.1780
30180W        W47028  15.156   4.115  10.852 -0.2750 -0.0183 -0.0430
30181W        W47029  11.253  14.787   4.820 -0.1047  0.1933 -0.1842
30182W        W47030   2.467  13.347   1.465 -0.2563 -0.1131  0.1449
30183W        W47031  17.969   9.311   2.876 -0.0674  0.0504  0.4342
30184W        W47032  17.819   1.756   5.769  0.0346  0.2578  0.0935
30185W        W47033   6.187   3.748   1.609 -0.1711  0.1712  0.0003
30186W        W47034   3.409   3.709   0.485 -0.1450  0.2189 -0.1849
30187W        W47035   1.432   4.644  15.092 -0.0699 -0.1168  0.1464
30188W        W47036   8.406   0.350   3.472  0.1370  0.0853 -0.1190
30189W        W47037   6.325  14.210  14.101 -0.2578  0.0260 -0.3352
30190W        W47038  13.531   0.592   4.773  0.0499  0.2309  0.1989
30191W        W47039   4.950  13.483  12.352 -0.0569 -0.1005  0.0186
30192W        W47040  18.218   4.229  11.335 -0.1590 -0.0950  0.0637
30193W        W47041  11.002  10.856   0.439 -0.0043  0.0240 -0.0234
30194W        W47042   1.655   6.960  12.666  0.2192 -0.0201 -0.1150
30195W        W47043   8.780   7.094  15.677  0.0706  0.2277 -0.0362
30196W        W47044  12.048   0.716  12.772  0.1230  0.0949 -0.0742
30197W        W47045   2.604   2.006   0.584  0.1310  0.1137 -0.1612
30198W        W47046  13.785   6.857  10.952  0.0454  0.0338 -0.2689
30199W        W47047  10.755   9.794   0.102 -0.0242 -0.2616 -0.2571
30200W        W47048  14.425  16.016  16.103 -0.0432 -0.0690 -0.0434
30201W        W47049  12.281   9.873   4.947 -0.5198  0.1087  0.2498
30202W        W47050   7.363   9.181  13.537 -0.0896  0.2478 -0.1139
30203W        W47051   5.453  11.798  15.191 -0.1947 -0.0610 -0.0529
30204W        W47052  12.264   3.594  11.456 -0.0955 -0.1419  0.1120
30205W        W47053  13.089  17.144  15.710 -0.0571  0.1259 -0.2083
30206W        W47054   4.223  16.673  15.938 -0.2237  0.2321 -0.0428
30207W        W47055  13.372  15.404  14.567 -0.0533 -0.1560 -0.4060
30208W        W47056   1.509  11.922  12.256 -0.3680  0.2519  0.0000
30209W        W47057  13.624   3.998   3.663  0.0786  0.1054 -0.1518
30210W        W47058  11.057  16.924   3.072 -0.3772  0.2141 -0.1781
30211W        W47059  10.643   2.600   4.600  0.1606 -0.1935 -0.0446
30212W        W47060  10.721   9.408  11.960  0.1405 -0.2358  0.0262
30213W        W47061  11.160  13.809   5.085 -0.0391 -0.0992 -0.1779
30214W        W47062  14.333  12.097  13.172  0.2344 -0.0058  0.1962
30215W        W47063  16.658   5.604   4.460  0.0595 -0.1930  0.4340
30216W        W47064  14.530   4.298   1.204  0.1263  0.0290  0.1090
30217W        W47065  14.999   1.548   1.494 -0.0719 -0.1481 -0.1874
30218W        W47066  16.215  12.808  13.344  0.3087  0.2367 -0.5090
30219W        W47067   1.828  16.192  14.080  0.0726  0.0354 -0.0902
30220W        W47068   3.687  12.204   1.669  0.1710  0.1323  0.0421
30221W        W47069  16.347   9.638   4.458  0.2168  0.0534  0.4666
30222W        W47070   3.862  14.827  13.043 -0.0599  0.1164 -0.0148
30223W        W47071   3.660   3.113  14.163 -0.1692 -0.1695 -0.0157
30224W        W47072  12.820   8.430  11.091 -0.0333 -0.0413 -0.2262
30225W        W47073  11.320  17.992   2.134 -0.2068 -0.3639  0.0190
30226W        W47074   6.721   9.854   0.553  0.2639 -0.0949 -0.0694
30227W        W47075   4.074  18.056   1.058  0.1610  0.0075  0.1269
30228W        W47076   4.353  16.016   1.817 -0.1869 -0.1867  0.0246
30229W        W47077   2.716  17.517  14.163 -0.2225 -0.2144 -0.0449
30230W        W47078   7.292  14.744  15.413 -0.2450  0.0380  0.2542
30231W        W47079  14.359   4.438  11.333 -0.0352  0.1692 -0.0066
30232W        W47080  12.036   9.633  15.675  0.2788  0.1224  0.1549
30233W        W47081  11.511  10.894   3.982  0.0897  0.2302 -0.1678
30234W        W47082   1.165   8.853  11.522 -0.0181  0.1892  0.1454
30235W        W47083  15.815   4.009  13.952 -0.0340 -0.0840  0.1355
30236W        W47084  11.256   9.204  12.163 -0.1333  0.2009  0.1102
30237W        W47085  14.231   8.022  14.935 -0.1584  0.1104 -0.1406
30238W        W47086   6.471   7.465   0.109  0.1204 -0.0794 -0.0933
30239W        W47087   8.598   8.880   4.214  0.1316  0.0591 -0.0348
30240W        W47088   3.937   0.745  15.957 -0.2113  0.1456 -0.1376
30241W        W47089  10.865  14.157   4.893  0.0468  0.2473  0.1556
30242W        W47090   0.309   1.281   2.863  0.3693 -0.0415 -0.1238
30243W        W47091   0.103  14.349   4.190  0.0960 -0.2050  0.2267
30244W        W47092   7.897   6.022  11.983 -0.1021 -0.1990 -0.0119
30245W        W47093   0.277  17.975   3.629  0.1694  0.2359 -0.2873
30246W        W47094   5.398  13.955   1.702 -0.1421 -0.2605 -0.1388
30247W        W47095  10.456  13.603  13.478  0.1640 -0.0667  0.0351
30248W        W47096  13.426   8.368  14.081  0.2225  0.1646 -0.0076
30249W        W47097  11.183  15.545   3.316 -0.0871 -0.2207  0.1514
30250W        W47098   7.295  12.808   1.281 -0.1246  0.0744  0.3247
30251W        W47099  17.655   5.443   4.522 -0.1930  0.0226 -0.0998
30252W        W47100   5.940   1.192   0.001  0.0680  0.2151  0.0142
30253W        W47101  14.213  16.344   3.464 -0.2151 -0.0999 -0.4821
30254W        W47102   5.492  16.976  13.580  0.0148 -0.1206 -0.2262
30255W        W47103   9.033   2.367   3.945 -0.1088 -0.3658  0.0243
30256W        W47104   7.270   3.972  11.272  0.1073  0.0349  0.3666
30257W        W47105   0.836  15.872  14.931  0.0271 -0.3981 -0.3038
30258W        W47106  17.055   7.846   1.402 -0.1671  0.0858  0.0238
30259W        W47107  17.965  17.994   2.924  0.2759  0.0287 -0.1857
30260W        W47108  13.539  18.008  12.199  0.0739 -0.1914 -0.0092
30261W        W47109  10.377   4.364   5.244 -0.0673  0.1237  0.0498
30262W        W47110  14.398  15.681  15.353  0.0783  0.0002 -0.1550
30263W        W47111  16.270  15.043  15.693 -0.0336  0.1506  0.0070
30264W        W47112   2.050  14.168  11.651 -0.0090 -0.2028 -0.1335
30265W        W47113   7.479   9.685   3.936  0.1752  0.4770  0.3589
30266W        W47114  11.380   3.266   2.473  0.0541 -0.2552  0.3790
30267W        W47115  13.543  17.182   0.719  0.0385  0.2145 -0.0366
30268W        W47116  15.970   4.476   1.211 -0.0875  0.2034 -0.0122
30269W        W47117   7.700   4.332   4.351 -0.0382 -0.1593 -0.1375
30270W        W47118   7.899  15.760  15.693 -0.0954  0.0233 -0.0121
30271W        W47119   7.240  12.004  14.283 -0.0451 -0.0900 -0.1242
30272W        W47120  12.274   5.894  12.001  0.0054  0.0416  0.3811
30273W        W47121   4.811   9.020   2.940  0.0370 -0.1556  0.0508
30274W        W47122  11.422   6.751   0.063  0.1812 -0.0315  0.0729
30275W        W47123  10.067  11.669  11.519  0.1564 -0.0855 -0.0303
30276W        W47124   2.772   6.231   1.192 -0.0602  0.1614 -0.1344
30277W        W47125   3.198   6.242  12.519  0.0909 -0.0694 -0.0678
30278W        W47126   6.745   2.573   4.654  0.5210  0.1449 -0.0037
30279W        W47127   6.132   6.976  15.261 -0.1080  0.0909 -0.2482
30280W        W47128   6.679   0.742  11.035  0.2187  0.2505  0.1125
30281W        W47129   6.772   2.061   3.237 -0.1894 -0.1184  0.3525
30282W        W47130  14.438  14.462   2.352  0.0958 -0.1012  0.1167
30283W        W47131  12.407  16.768  11.441 -0.1110  0.0011 -0.3572
30284W        W47132  10.946  15.109   1.098  0.0989 -0.0616  0.0057
30285W        W47133  10.004   4.992   2.150  0.1626  0.4794  0.0064
30286W        W47134  13.266   5.399   1.783  0.2509  0.3195  0.0080
30287W        W47135   5.784   9.798  12.658 -0.1336 -0.2100 -0.0323
30288W        W47136   1.019   4.245   2.628  0.0686 -0.1166 -0.1365
30289W        W47137   1.053   1.719   0.450  0.0537  0.2329  0.3158
30290W        W47138   5.116   6.046  14.634 -0.1287 -0.1282  0.0804
30291W        W47139   2.977   5.092  13.112 -0.2262 -0.1843 -0.0974
30292W        W47140   3.189  11.379   4.339 -0.1139 -0.2497 -0.1268
30293W        W47141  10.197  16.940  15.410  0.0170  0.0691 -0.2794
30294W        W47142  16.069   7.226  16.108  0.0143  0.0177 -0.1644
30295W        W47143  14.070   4.619   4.817 -0.1322 -0.2481  0.2882
30296W        W47144  10.075  11.948   0.394 -0.1840 -0.2216  0.2949
30297W        W47145   8.820   2.464   1.211 -0.2498 -0.0520  0.2436
30298W        W47146   3.937  14.535  12.663 -0.1133  0.3149 -0.0551
30299W        W47147   5.995   1.914  13.492 -0.1673 -0.4014 -0.1094
30300W        W47148   3.296  11.772   0.845  0.0263  0.2290  0.2954
30301W        W47149  12.351   7.273   1.983 -0.0453  0.0509  0.2621
30302W        W47150  16.008  14.561   1.360  0.2557  0.1037 -0.0141
30303W        W47151   5.731  10.035  13.231 -0.0832 -0.2075  0.0378
30304W        W47152   3.896  11.396  12.543 -0.0647  0.1429  0.0607
30305W        W47153  16.757   4.500  15.221 -0.1733 -0.1652  0.4271
30306W        W47154   8.710   7.113  13.640  0.0559  0.0190  0.1213
30307W        W47155   6.041   6.321   1.222  0.2165 -0.3252 -0.3446
30308W        W47156  10.267   5.928   0.566  0.2770  0.1235  0.0248
30309W        W47157   4.874  17.652  14.376 -0.0281  0.0263  0.0146
30310W        W47158   1.619   4.787  12.712 -0.3316 -0.0451  0.5230
30311W        W47159  13.476   5.533   5.974 -0.0260 -0.0041 -0.0572
30312W        W47160   4.639   8.242  14.122 -0.0985  0.2412  0.2547
30313W        W47161  12.595   9.628  11.946 -0.2545 -0.3261  0.2733
30314W        W47162  14.934   7.707   2.064 -0.2591  0.1850  0.0041
30315W        W47163   7.029  11.484  13.611 -0.2949 -0.0019 -0.2875
30316W        W47164  14.455  12.149   1.060 -0.0388 -0.2089 -0.1726
30317W        W47165   7.547   2.267   4.809  0.0121 -0.4241 -0.1127
30318W        W47166   3.255   8.924  15.343  0.0948 -0.0716  0.1623
30319W        W47167   5.829   8.408  14.388 -0.0327  0.1183 -0.1215
30320W        W47168  12.535  15.144  16.069 -0.0085 -0.0663  0.0531
30321W        W47169  17.046   8.077   4.780 -0.1586 -0.1144  0.1800
30322W        W47170   2.613   0.581   2.933 -0.4391 -0.0085 -0.2021
30323W        W47171  13.186   6.496  14.913 -0.1630 -0.0473  0.0375
30324W        W47172  12.688  10.198   4.818 -0.1423  0.2305 -0.3036
30325W        W47173   9.965  16.914   5.603  0.3167 -0.2189 -0.2888
30326W        W47174  16.255  10.422  14.044  0.0017 -0.1863  0.0615
30327W        W47175   7.763   2.981   0.271 -0.1085 -0.0878  0.2371
30328W        W47176  10.660  14.931  12.994  0.1620 -0.2449 -0.0447
30329W        W47177   0.039   7.358  12.242 -0.0395  0.0875  0.0336
30330W        W47178   3.497   8.655   2.379 -0.2488  0.0020  0.0134
30331W        W47179   4.873   8.549   4.321 -0.1658 -0.1258  0.4952
30332W        W47180   8.107  15.013  12.750 -0.3768  0.0779  0.0247
30333W        W47181  14.056   0.422   3.397  0.2405  0.5442  0.2844
30334W        W47182  15.684  13.563  11.443 -0.0055 -0.0760 -0.1487
30335W        W47183   9.753  14.450  14.953 -0.1553 -0.0500 -0.5363
30336W        W47184   7.917  11.237  14.586  0.2168  0.0738 -0.1607
30337W        W47185   4.856   4.576   4.067 -0.2124  0.0376  0.2566
30338W        W47186   0.641  16.603   4.048 -0.1842 -0.1544  0.0418
30339W        W47187   5.039   4.862  15.731 -0.0342  0.2575  0.1442
30340W        W47188   1.241   9.884   0.862 -0.1642  0.2335  0.1073
30341W        W47189   8.442  14.288   1.682  0.1832  0.1331  0.0360
30342W        W47190  15.495  18.094   5.006  0.3787  0.0713  0.0361
30343W        W47191  10.540   4.236  10.183  0.0293  0.3459  0.0461
30344W        W47192  10.857   4.184   1.455  0.1591 -0.1710 -0.1556
30345W        W47193   3.681   6.785  14.638  0.0950 -0.2160  0.2179
30346W        W47194  12.331   6.856   4.008 -0.0594 -0.0946  0.0926
30347W        W47195  17.130   6.571  10.423 -0.0412 -0.1512 -0.2545
30348W        W47196   2.393  14.949  15.201  0.2066 -0.3876 -0.2691
30349W        W47197   7.832   2.992   4.728 -0.2068 -0.1016  0.0462
30350W        W47198  15.458   2.126  14.736 -0.0308  0.1383 -0.0773
30351W        W47199  13.283  13.141  11.210  0.1137  0.1714  0.0435
30352W        W47200   8.297   0.753  13.910 -0.1399  0.0187  0.0111
30353W        W47201   3.613   1.623  12.833 -0.2167  0.1736 -0.0664
30354W        W47202  16.404   2.893   5.612 -0.1478  0.0283  0.0253
30355W        W47203   8.529  13.437  11.496 -0.1650  0.5056  0.1425
30356W        W47204  17.205   1.700  10.613 -0.3105  0.0107 -0.1542
30357W        W47205   7.504   1.536  14.737  0.1694  0.0634  0.1131
30358W        W47206   8.240   1.884   0.305  0.3116  0.2981  0.0816
30359W        W47207   7.097   3.128   2.615  0.3189 -0.2917  0.1286
30360W        W47208   9.182  16.584  15.193 -0.0685 -0.0368 -0.0661
30361W        W47209  10.886   5.257  14.040  0.1495 -0.0999 -0.0772
30362W        W47210   6.053   9.771   5.032 -0.2672 -0.1013 -0.1344
30363W        W47211   1.517   5.243  11.998  0.0270 -0.0288 -0.0099
30364W        W47212  16.057  10.183  11.724  0.1646  0.0483  0.3723
30365W        W47213  10.391  16.021  11.795  0.0745  0.0139 -0.0148
30366W        W47214   3.103   8.673  15.831  0.2140  0.1012 -0.1084
30367W        W47215  11.055   6.380  13.089 -0.1341  0.1742 -0.2534
30368W        W47216   0.104   8.220  12.252  0.0644 -0.4357  0.3312
30369W        W47217   5.372  14.194   4.346 -0.2174 -0.3169 -0.0590
30370W        W47218  11.828  11.196   3.092 -0.0933 -0.5932 -0.0297
30371W        W47219  14.550   8.806   5.900 -0.0071 -0.1748 -0.2389
30372W        W47220  16.863   3.796   3.330 -0.0477  0.1675 -0.1140
30373W        W47221  13.299   4.206   4.327 -0.0069  0.1513 -0.1595
30374W        W47222   9.482   5.394   4.786 -0.4314  0.1499  0.4100
30375W        W47223  16.882   1.514  14.204  0.2054 -0.0946  0.1829
30376W        W47224   9.118  10.636   1.628 -0.0067 -0.1870 -0.1030
30377W        W47225   5.884   2.825  13.870  0.0118  0.1101 -0.0719
30378W        W47226  17.854   9.657   3.368 -0.0405 -0.0095  0.2085
30379W        W47227   3.586   2.629   3.957 -0.0282 -0.1823  0.1607
30380W        W47228   3.176   1.371   4.144 -0.1718 -0.0623 -0.2034
30381W        W47229   2.474   1.096  12.516 -0.3596  0.0881 -0.0450
30382W        W47230   1.085   6.465  13.353 -0.1994  0.1630  0.2376
30383W        W47231   0.284   5.195   5.095  0.0186 -0.0623  0.2034
30384W        W47232  10.302   8.792  15.644 -0.2892 -0.0305  0.0083
30385W        W47233   8.223  15.484   0.886 -0.0768  0.1928  0.2219
30386W        W47234   4.938   0.032  12.286  0.2973 -0.4813 -0.0974
30387W        W47235  10.590  10.777  12.321  0.0130 -0.0183  0.4005
30388W        W47236   2.679  11.862   4.161  0.1639 -0.0292  0.1273
30389W        W47237  11.288   0.027   1.108 -0.0889  0.2509 -0.1743
30390W        W47238   1.754   8.089   3.627  0.2440 -0.1699 -0.0812
30391W        W47239   0.928   2.578   4.084 -0.1818  0.0321  0.0291
30392W        W47240   8.038   8.510   3.605 -0.0689  0.2140  0.0757
30393W        W47241   1.620  16.648  14.960  0.0494 -0.0919  0.0273
30394W        W47242  14.480   6.258  13.907  0.0741 -0.0745  0.2151
30395W        W47243  10.678   7.227  10.543  0.4233 -0.1087  0.4847
30396W        W47244   4.559  14.796   0.098 -0.1107 -0.3291  0.2274
30397W        W47245   4.221   4.981   3.968  0.1423 -0.1770  0.1453
30398W        W47246  17.586   3.423  13.929  0.2665  0.0817  0.2138
30399W        W47247   9.038   6.956   5.725 -0.3200 -0.0093 -0.1578
30400W        W47248  13.730   9.879   4.734 -0.0310 -0.1975 -0.0087
30401W        W47249  12.171   1.473   1.740 -0.1043 -0.1488  0.1623
30402W        W47250   1.680   7.393   0.692 -0.1595  0.0033 -0.1295
30403W        W47251  16.745  17.074   2.066  0.0868 -0.0810 -0.1647
30404W        W47252  14.987  11.007   0.823 -0.0973 -0.1797  0.0083
30405W        W47253   2.787   9.981  14.180 -0.0317  0.0060 -0.0238
30406W        W47254   8.354  11.188   3.396 -0.0815 -0.2908  0.2806
30407W        W47255   4.256  17.289   2.329  0.1754  0.1857 -0.2838
30408W        W47256   2.238  10.802   4.500 -0.0470 -0.2260 -0.2662
30409W        W47257   7.762   8.006   3.301 -0.0350  0.2880  0.1015
30410W        W47258  17.472  10.662  14.453 -0.0724  0.2895 -0.1742
30411W        W47259  16.626  13.014  11.623  0.1346  0.4106  0.1167
30412W        W47260  10.511  14.063  12.778 -0.1945 -0.5492 -0.0240
30413W        W47261   5.495   0.513  12.361 -0.0499 -0.1504 -0.0144
30414W        W47262  12.504  11.970  15.921  0.0703 -0.1574  0.2990
30415W        W47263   9.797   0.974   3.919 -0.0279  0.2064 -0.0653
30416W        W47264   9.323  12.836  15.003  0.0035 -0.2188  0.0329
30417W        W47265   2.567  15.433   0.658 -0.1483 -0.0491  0.1025
30418W        W47266   3.884   5.979  12.982  0.3153 -0.0081  0.1027
30419W        W47267  17.341  16.825  15.615 -0.0037 -0.0296 -0.2183
30420W        W47268  15.480  15.788   2.684 -0.0994 -0.0370  0.0039
30421W        W47269   8.526  13.224  13.826 -0.0869 -0.2648  0.2317
30422W        W47270  16.965  14.451  11.403  0.0221 -0.0174  0.1426
30423W        W47271   7.891  15.746  14.678 -0.3318  0.0691 -0.2392
30424W        W47272   8.946  11.516   3.199 -0.3164  0.0941  0.0664
30425W        W47273   4.456  14.569  11.688  0.1894  0.1309 -0.1397
30426W        W47274  10.024   0.735   2.385  0.2501 -0.0441 -0.1496
30427W        W47275   4.642   3.678   2.990 -0.2434  0.0715 -0.0676
30428W        W47276   2.831   6.805   3.164  0.2328  0.2088  0.1412
30429W        W47277  16.385  12.522  14.085 -0.2082 -0.0166 -0.2237
30430W        W47278   0.388   0.655   0.244  0.1345  0.0394  0.0536
30431W        W47279   6.529  11.102   0.448  0.2251 -0.2338 -0.2544
30432W        W47280   4.224   5.761   4.400 -0.0962  0.0890 -0.0124
30433W        W47281   2.637  15.993   2.777  0.2878 -0.2214  0.0187
30434W        W47282   5.648  17.839  12.288 -0.0664  0.0746 -0.1431
30435W        W47283  11.040  14.523   2.668  0.0336 -0.0762 -0.0569
30436W        W47284  18.214   5.205   5.969  0.2094  0.0158  0.0922
30437W        W47285  13.822   8.050   1.266 -0.1563 -0.1356 -0.1062
30438W        W47286  10.762  16.036   5.713  0.1640 -0.1248 -0.3681
30439W        W47287   6.497  11.187  11.386 -0.3148  0.0426  0.2469
30440W        W47288  14.388  12.102  15.401  0.0004  0.0259 -0.0390
30441W        W47289   6.155  15.300  11.988 -0.0215  0.2119  0.0072
30442W        W47290  10.658  17.921  12.074  0.1941 -0.2126  0.0598
30443W        W47291   8.205   0.359  14.792  0.0309 -0.2418 -0.0788
30444W        W47292  15.592   7.889  14.070 -0.0311 -0.2946  0.2127
30445W        W47293   4.213  18.143  14.943  0.0725 -0.1808  0.0999
30446W        W47294  17.837   3.327   4.482 -0.1529  0.2387  0.0270
30447W        W47295   7.166  12.209  16.086 -0.2327  0.4263 -0.3140
30448W        W47296  10.298   8.085  12.229 -0.0799  0.2813  0.0775
30449W        W47297  17.643   8.963   2.711  0.3300 -0.0758  0.0471
30450W        W47298   5.892   2.101  11.434  0.0672 -0.2333  0.2329
30451W        W47299   8.720   0.586  15.601 -0.0111 -0.2882 -0.0672
30452W        W47300   5.879   9.493  13.099  0.1088 -0.1940 -0.0464
30453W        W47301   5.705   8.184   3.853  0.1439 -0.2796 -0.0004
30454W        W47302   7.922  14.306   0.397  0.1928  0.0427 -0.1968
30455W        W47303   3.904   4.284  14.604  0.1977  0.1706 -0.2519
30456W        W47304  18.148  18.031   0.085  0.4969  0.0624  0.2460
30457W        W47305  14.878   7.880   2.775 -0.4571  0.1531 -0.1620
30458W        W47306   4.718  13.556  10.227  0.0586 -0.1693  0.2738
30459W        W47307   1.433   9.080   1.143  0.1190  0.1448 -0.1454
30460W        W47308  13.936  15.370   1.079  0.3756 -0.0374 -0.3027
30461W        W47309   5.559   6.547   1.097 -0.1981 -0.1296 -0.3095
30462W        W47310   8.901  14.918   4.621  0.0643  0.2070 -0.0275
30463W        W47311  14.010   9.189   5.604 -0.0611 -0.4707  0.2959
30464W        W47312  10.678  14.166   2.780  0.0126 -0.1802  0.0074
30465W        W47313   3.282  13.398  11.544 -0.1923 -0.1537 -0.4048
30466W        W47314  13.039   9.092   1.979 -0.1053  0.2329 -0.1189
30467W        W47315   8.159   8.653  14.393  0.2010  0.1652 -0.0457
30468W        W47316  15.158   7.742   3.913  0.1991 -0.1890 -0.5605
30469W        W47317  15.123  12.833   2.863  0.1993 -0.0577  0.1756
30470W        W47318  12.889  15.305   3.468  0.1181 -0.0757 -0.2112
30471W        W47319   8.847  14.996   0.575  0.3799  0.2093 -0.1196
30472W        W47320   4.798   5.304  13.865  0.0478 -0.1396  0.0664
30473W        W47321   4.232  10.941   1.378 -0.2116  0.0170  0.1697
30474W        W47322  14.687  10.261   2.062  0.0915 -0.3623 -0.0119
30475W        W47323  15.796  12.614  12.224  0.0180 -0.2755 -0.0202
30476W        W47324  12.134   9.577   4.046  0.1731  0.0567 -0.1737
30477W        W47325  10.235  14.579  13.907 -0.2288 -0.1266  0.4086
30478W        W47326  10.552   8.184   5.050 -0.3139  0.3628 -0.0247
30479W        W47327   4.147   1.744   3.961  0.2679 -0.0390 -0.2809
30480W        W47328   9.921  15.238   0.906 -0.0536 -0.0777 -0.0409
30481W        W47329   7.949   9.345   2.278 -0.1359  0.1304 -0.2025
30482W        W47330  17.307  10.012   5.389 -0.2079  0.2562  0.0672
30483W        W47331  11.220   5.941   4.710  0.0218  0.2414 -0.2139
30484W        W47332   1.698   1.296   4.187  0.0918  0.2984  0.0094
30485W        W47333   8.574  15.215   4.318  0.1604 -0.1016 -0.0327
30486W        W47334  15.639   5.432  14.724  0.0804 -0.0399  0.1764
30487W        W47335   8.218   4.480   4.597  0.1705 -0.2226 -0.3496
30488W        W47336   7.917   1.759  14.110  0.1606 -0.2683 -0.4431
30489W        W47337   8.500   4.586  15.893  0.1671 -0.1059  0.3930
30490W        W47338   7.766  16.757  15.811  0.2090 -0.0109 -0.4814
30491W        W47339   8.009  11.389  15.487  0.0996 -0.1950  0.1831
30492W        W47340  18.047   4.178  14.842 -0.1447  0.3011 -0.0254
30493W        W47341   4.084   5.210   2.029 -0.0784 -0.0898  0.0090
30494W        W47342  15.317  15.699  15.035 -0.1798 -0.1781 -0.0636
30495W        W47343   7.700  10.336   4.684 -0.3596 -0.0260 -0.1106
30496W        W47344   4.718   2.391  13.627  0.1263 -0.0161 -0.0173
30497W        W47345  13.724   6.980  13.180  0.1171 -0.1520 -0.0571
30498W        W47346   8.607  10.611   3.474  0.0912  0.1963  0.1373
30499W        W47347   1.699   1.560   2.639 -0.1992 -0.0457 -0.1604
30500W        W47348  15.500  15.119  13.734 -0.0159 -0.0037 -0.0743
30501W        W47349   5.235   2.698   0.166 -0.2291  0.0206  0.4240
30502W        W47350   7.939   3.134   3.694  0.1186 -0.0006 -0.0729
30503W        W47351   6.374   3.769  12.268  0.0126 -0.0630 -0.0311
30504W        W47352   8.758   5.700   0.191 -0.1125  0.2310  0.0999
30505W        W47353  10.563   1.305  15.575 -0.1506 -0.0072 -0.4422
30506W        W47354   8.109  15.032   4.415  0.0865  0.1863 -0.0610
30507W        W47355  17.427  16.696   0.012  0.0837 -0.0741 -0.2321
30508W        W47356   5.800   1.074   2.728 -0.3360  0.0386  0.3649
30509W        W47357   0.978  10.889   2.010  0.3413  0.0556 -0.1232
30510W        W47358  17.485   3.332   2.088 -0.2603 -0.1733  0.2455
30511W        W47359   3.636  12.491  11.855 -0.1026 -0.0302 -0.2503
30512W        W47360  14.576  13.524  14.372 -0.1052  0.2486  0.1511
30513W        W47361  11.692   5.524  14.345 -0.0218 -0.0752 -0.1449
30514W        W47362   2.066   1.756   1.237  0.0418  0.1771  0.0644
30515W        W47363  10.783   6.716   4.472 -0.0526 -0.3547  0.1928
30516W        W47364   3.983  10.977  13.104 -0.2159  0.2422  0.1204
30517W        W47365   4.881   4.452  13.820  0.2177 -0.1166  0.0080
30518W        W47366  12.308   6.683  14.583 -0.1145  0.0662  0.1177
30519W        W47367   8.027  11.383  12.224  0.1684 -0.2097 -0.0115
30520W        W47368   9.063   8.148  11.317  0.1040  0.1668 -0.0500
30521W        W47369   1.168   0.386  12.223  0.1627 -0.1845  0.0974
30522W        W47370  14.132   0.640  12.592 -0.1602  0.1393 -0.2701
30523W        W47371   3.936   1.338   4.759 -0.1563 -0.1913 -0.1376
30524W        W47372  17.024  15.275   3.398 -0.0321  0.2878  0.0491
30525W        W47373  12.564  10.085  15.234 -0.1755 -0.1477 -0.0808
30526W        W47374   3.617   1.317  10.015  0.1443 -0.3778  0.0642
30527W        W47375   2.370   3.223  12.103 -0.1157 -0.5178 -0.0085
30528W        W47376   8.070  16.117   0.209 -0.1049  0.0658  0.3633
30529W        W47377  17.096   5.411   1.542  0.1268  0.1042 -0.1614
30530W        W47378  12.078   0.588   1.241  0.2778  0.0493 -0.3026
30531W        W47379   9.892   6.483  12.443  0.0743 -0.0708  0.0309
30532W        W47380  15.846   7.165  14.595  0.2518 -0.0475  0.2268
30533W        W47381   4.924   1.581   3.203 -0.0261  0.0661  0.2670
30534W        W47382  10.920  15.980   1.791 -0.0504  0.3119  0.0656
30535W        W47383  16.409   4.792  11.498  0.1154 -0.0666 -0.2149
30536W        W47384  13.593  11.966   4.848  0.0200  0.0165  0.0952
30537W        W47385   5.897  12.782   1.183  0.1618 -0.3294 -0.1486
30538W        W47386   8.778   6.438   2.690 -0.0853  0.2114  0.0787
30539W        W47387   2.512   0.482   2.380  0.0435  0.0494  0.0846
30540W        W47388  12.271  11.790  10.514 -0.2898 -0.1692 -0.2413
30541W        W47389   4.269  16.150  14.399 -0.1041 -0.0632  0.1939
30542W        W47390   2.963  12.417  14.128 -0.2011 -0.0530  0.0554
30543W        W47391   0.101  10.686   0.739 -0.1237  0.0613  0.4413
30544W        W47392   2.978  14.498   0.346 -0.0797  0.0533  0.4345
30545W        W47393  16.807   3.814  15.881  0.0312 -0.0367  0.1298
30546W        W47394   3.806   9.325  13.196  0.1390  0.3227  0.3485
30547W        W47395  15.820   0.349  12.310  0.2135  0.1505 -0.2070
30548W        W47396   0.326   8.480   1.221 -0.1887 -0.2904  0.0386
30549W        W47397  14.477   7.626  12.161 -0.0550  0.3131 -0.0998
30550W        W47398  13.005  12.706   2.267 -0.0914  0.4315  0.0183
30551W        W47399  11.996  16.135  11.898 -0.1300  0.3433 -0.0938
30552W        W47400   3.377  10.711   3.492 -0.0945 -0.2151  0.3574
30553W        W47401   7.380   2.766   1.081  0.1040 -0.3142 -0.0636
30554W        W47402   2.580  17.621  11.407 -0.1577  0.2780  0.1743
30555W        W47403  11.713  17.942   1.172  0.2067  0.0676  0.1786
30556W        W47404   9.337  10.253   3.238  0.0074 -0.0140  0.0219
30557W        W47405  16.123  12.494  15.748 -0.1634 -0.2422 -0.3012
30558W        W47406  11.827  16.828   0.538 -0.0654  0.1569  0.2318
30559W        W47407   0.030  14.607   3.288  0.1018  0.1734 -0.0344
30560W        W47408   5.698  15.914   2.373  0.2569  0.0468  0.2352
30561W        W47409  14.489   0.930  12.755  0.4114 -0.1468 -0.0098
30562W        W47410  10.076   6.117  15.759 -0.2198 -0.4554 -0.3389
30563W        W47411   6.910   7.270   5.043 -0.2578  0.3668 -0.0128
30564W        W47412   8.774   2.788   4.050  0.2644 -0.0666  0.0851
30565W        W47413   2.621  13.605  14.859 -0.2766  0.1429 -0.0580
30566W        W47414   6.403   7.010   3.835 -0.0740  0.2743 -0.4182
30567W        W47415   9.020   7.370   1.865 -0.0124  0.0388  0.0983
30568W        W47416   8.535   6.742  12.348  0.2921  0.0535 -0.1112
30569W        W47417  12.416   4.122  15.999  0.0418  0.1145  0.0178
30570W        W47418   2.891  12.206   1.957 -0.0363  0.3485  0.1756
30571W        W47419  15.282   3.024   4.343  0.1160  0.0384 -0.1477
30572W        W47420  11.598   3.798   0.223  0.2532 -0.2858 -0.2221
30573W        W47421   8.261  12.526   1.510 -0.2103  0.2338 -0.1054
30574W        W47422  17.705   9.087  16.016 -0.2714 -0.1166  0.2510
30575W        W47423  11.780   8.098   4.728  0.0717 -0.2222  0.0206
30576W        W47424  17.854  12.441   3.498  0.1816  0.0882 -0.2542
30577W        W47425  13.171   6.510  11.651  0.0053 -0.0410  0.0175
30578W        W47426   3.192  14.661  14.954  0.0913 -0.0649 -0.3979
30579W        W47427  17.762   1.789   2.489 -0.2678  0.0586  0.0267
30580W        W47428  11.461  11.528   4.371 -0.0055 -0.1144  0.2556
30581W        W47429   7.508   1.903  13.883  0.0815  0.3912 -0.2178
30582W        W47430  11.782   0.184   0.879 -0.1718  0.0105  0.1828
30583W        W47431  17.308  17.019   0.360  0.1599  0.0214 -0.2432
30584W        W47432  15.772  10.828  12.495 -0.0493  0.3303 -0.4031
30585W        W47433   1.716  17.521  13.320  0.1725  0.0322  0.2617
30586W        W47434   6.465  14.022   1.990 -0.0041 -0.0254  0.2757
30587W        W47435  15.405   1.219  14.273  0.4016  0.0992 -0.0666
30588W        W47436   5.518  13.233   6.252  0.0478 -0.0905  0.0093
30589W        W47437  14.291   0.090   3.692 -0.1413  0.0164  0.1048
30590W        W47438   4.459   9.486   5.229 -0.1069 -0.0960 -0.0040
30591W        W47439  16.116   5.990   3.610  0.1931  0.0960 -0.0777
30592W        W47440  11.798   8.553  14.762 -0.1400  0.5477 -0.2463
30593W        W47441  13.472   0.378   2.115  0.1552 -0.3134  0.0740
30594W        W47442  12.340  14.305  12.870  0.3732  0.1921  0.2056
30595W        W47443   1.725  15.851  14.392 -0.2555 -0.3029  0.4016
30596W        W47444   1.525   4.951  10.418  0.0060 -0.1551 -0.2809
30597W        W47445   5.906   5.812   1.012 -0.0488  0.1579  0.2042
30598W        W47446   9.649   6.226   1.685  0.0607 -0.1096 -0.1634
30599W        W47447  14.202   4.743  14.017  0.1981 -0.1767 -0.4332
30600W        W47448   4.801  12.666  12.796  0.0375 -0.0008  0.0131
30601W        W47449  17.297   1.135  15.036 -0.1516  0.1764  0.0353
30602W        W47450   1.980  13.116  12.736  0.0493 -0.1380  0.0919
30603W        W47451   6.991  13.486  12.972  0.3973  0.0894  0.0059
30604W        W47452  16.857   3.679   4.634 -0.1504  0.0937 -0.1069
30605W        W47453   1.807   6.691   3.455  0.2826  0.2031 -0.0985
30606W        W47454   8.834  15.936  12.385 -0.2275  0.0088  0.0464
30607W        W47455  14.269  11.066  13.076 -0.0690 -0.2564 -0.0805
30608W        W47456   7.051   8.630   0.349  0.0402 -0.0007  0.2225
30609W        W47457   4.170   3.328   3.307 -0.3011 -0.0776  0.1183
30610W        W47458   2.594  17.052  12.946  0.2457  0.0847  0.1637
30611W        W47459  10.584   8.932   2.055 -0.3958  0.1079 -0.1073
30612W        W47460   6.839   8.397   2.633 -0.0737 -0.0141  0.1485
30613W        W47461   6.678   9.643  12.247 -0.0019  0.0046  0.0064
30614W        W47462  11.339  15.008  15.345  0.0087  0.3498 -0.2054
30615W        W47463   2.402   0.982   2.280  0.1661 -0.1351 -0.1924
30616W        W47464   9.815   9.529   2.722  0.1779 -0.3647  0.0902
30617W        W47465  16.818  14.130  14.415  0.1360  0.2824  0.0754
30618W        W47466   3.508   5.618   0.868  0.0014 -0.1806  0.0858
30619W        W47467  14.342   4.955   4.493  0.0168 -0.1418 -0.3389
30620W        W47468  13.984  14.875   1.274 -0.2183  0.1192 -0.1222
30621W        W47469   6.472   0.421   0.103 -0.1707 -0.0928  0.1089
30622W        W47470   6.946   7.986  14.416  0.1193 -0.0329 -0.0961
30623W        W47471  12.124   6.456   2.870 -0.0173  0.2217 -0.0125
30624W        W47472  18.134  13.773   3.003 -0.1005 -0.0857 -0.0694
30625W        W47473   5.697   7.538  14.135 -0.2100 -0.3192 -0.2069
30626W        W47474  14.759   4.688   4.323  0.0066  0.1488  0.0802
30627W        W47475   6.753   4.022  15.050  0.0053  0.1941 -0.1772
30628W        W47476   7.009   5.005   2.859  0.0759  0.1549 -0.1604
30629W        W47477  15.705   7.390   3.156 -0.3730  0.0426  0.0084
30630W        W47478   7.523   6.305   1.780 -0.1605  0.2009  0.2589
30631W        W47479   3.538   5.062   4.706 -0.1417  0.0545  0.3941
30632W        W47480   2.639   0.751   0.032  0.0023 -0.3993  0.0455
30633W        W47481   6.461   0.263  15.225  0.4990  0.0065  0.1177
30634W        W47482   9.181  12.059  12.365 -0.3437  0.1243 -0.1371
30635W        W47483   4.709   6.158   3.487  0.2855  0.0121  0.0881
30636W        W47484   7.938   3.417   4.180  0.0324 -0.3647  0.0194
30637W        W47485  15.111   0.652   1.789  0.1346 -0.0377  0.2938
30638W        W47486  15.069   8.375  12.275 -0.2149 -0.2281 -0.0640
30639W        W47487  13.607  12.640   5.555  0.0036 -0.0808  0.0824
30640W        W47488   1.486  12.765   3.402  0.2841 -0.0514  0.1535
30641W        W47489  18.167  13.392   3.973  0.0223  0.1913  0.0396
30642W        W47490   5.016  17.421   0.506 -0.0691 -0.0956  0.1514
30643W        W47491   6.567  15.914   3.683  0.5509  0.2725 -0.0269
30644W        W47492   6.669  13.024  14.062 -0.0230 -0.3767  0.1361
30645W        W47493  11.802   1.504   3.715 -0.0076  0.0091  0.1606
30646W        W47494   9.053   8.467   0.250  0.1202  0.0605  0.2169
30647W        W47495  11.438   9.141   0.797 -0.6345 -0.0768  0.2663
30648W        W47496   2.236  16.514   1.628 -0.0458 -0.0681  0.0731
30649W        W47497  11.024   7.717   3.543  0.2260 -0.3656 -0.2661
30650W        W47498  13.218   8.264   0.542 -0.2439  0.3079  0.0380
30651W        W47499   9.384  15.545   3.378  0.0659 -0.0911 -0.1743
30652W        W47500   9.247  12.373  15.742  0.0344 -0.0086  0.2737
30653W        W47501  17.066   2.678  11.945 -0.0784  0.0077 -0.2369
30654W        W47502  17.514  13.051   4.830 -0.3540 -0.7424  0.1605
30655W        W47503   8.399   9.647  14.310  0.1174 -0.0669 -0.2477
30656W        W47504   2.536   1.144  13.022 -0.0881 -0.0867 -0.0367
30657W        W47505  11.445  14.336  15.882 -0.0866 -0.1468 -0.0027
30658W        W47506   9.987   8.481  15.416 -0.2510 -0.0960 -0.2738
30659W        W47507  15.395  16.612   2.317  0.2239  0.2557  0.1136
30660W        W47508   9.963  15.404   2.640 -0.2890 -0.1190  0.0163
30661W        W47509   5.514   4.567   1.975  0.0119  0.1881 -0.1377
30662W        W47510  12.380   1.835  14.838  0.0761  0.2553  0.3552
30663W        W47511   0.890  12.325  14.955  0.1073 -0.1133  0.1065
30664W        W47512   9.748   4.420   4.977 -0.1791 -0.2961 -0.0594
30665W        W47513   4.010   1.567   1.411  0.1664  0.2457  0.0234
30666W        W47514  13.645  14.331   4.341  0.1195 -0.3254  0.1563
30667W        W47515   2.615   3.722  12.971 -0.2170 -0.2101 -0.2525
30668W        W47516   4.935  14.395   2.810  0.0709  0.1876 -0.2660
30669W        W47517  13.879   3.630  12.287  0.2217  0.1669  0.1378
30670W        W47518  16.296   3.359   2.035 -0.1613  0.1549 -0.0431
30671W        W47519   8.119  11.723  11.806  0.1937 -0.0386  0.0364
30672W        W47520  17.550  14.750   2.126  0.1866  0.1458  0.1962
30673W        W47521   5.960  11.072   3.169  0.1263  0.1354  0.0320
30674W        W47522  18.198   5.034  15.657 -0.0308 -0.1725 -0.1485
30675W        W47523   7.794  10.065   3.730 -0.0173  0.0332  0.1932
30676W        W47524   3.742   8.672   2.915  0.3710 -0.1887 -0.0013
30677W        W47525   9.578  17.430   1.048 -0.0094 -0.1105  0.1150
30678W        W47526   2.048  16.085   1.422 -0.0387 -0.0042 -0.2590
30679W        W47527   7.049   5.338   2.388  0.1359  0.2988  0.1822
30680W        W47528   8.108   7.249   4.914 -0.2743 -0.0447  0.0926
30681W        W47529   6.188  16.032   4.525 -0.0281 -0.0429  0.1027
30682W        W47530  10.781  14.031  15.209  0.0234  0.6875  0.1350
30683W        W47531   6.353  11.527   0.321 -0.2030  0.2729 -0.0822
30684W        W47532   2.389  12.530   0.968  0.0961  0.0021 -0.1018
30685W        W47533  14.120  15.124   1.664 -0.0814  0.0140 -0.3135
30686W        W47534   9.235  16.589  11.410  0.0053  0.0366 -0.2042
30687W        W47535  18.129   4.992   0.798  0.0949 -0.0482 -0.0273
30688W        W47536  16.422   3.277   3.519  0.1456 -0.1034  0.0692
30689W        W47537   8.588   3.022   2.420 -0.2510 -0.1729 -0.0198
30690W        W47538   7.797   1.016   5.574 -0.2616 -0.3506  0.2536
30691W        W47539   5.524  13.499   3.682 -0.1683 -0.1732  0.0145
30692W        W47540   4.322   3.870   2.546 -0.1556  0.0743  0.2088
30693W        W47541   1.179   8.512   1.603 -0.2967  0.0849  0.0247
30694W        W47542   8.416   4.340   2.008 -0.0991 -0.0017  0.3654
30695W        W47543  10.177  12.319   1.193  0.2299 -0.0659  0.1147
30696W        W47544   2.724   7.432  15.532 -0.3464  0.1672 -0.0581
30697W        W47545   9.551   0.335  11.329 -0.0088 -0.0174  0.1003
30698W        W47546  10.919  15.254  15.372 -0.1639  0.1710 -0.1843
30699W        W47547  14.347   9.535   3.635  0.0938 -0.3820 -0.0481
30700W        W47548   8.654   9.839  12.238  0.1452  0.1625 -0.3735
30701W        W47549  12.244  13.008  14.701 -0.0579 -0.3085 -0.3359
30702W        W47550   6.283  12.879   5.040 -0.1709 -0.1707 -0.0157
30703W        W47551  17.944   8.849   3.111  0.0060  0.0494  0.0661
30704W        W47552   0.030   2.464  15.240  0.2074 -0.1188  0.1291
30705W        W47553  15.819   4.266   0.838  0.1447  0.2546  0.0983
30706W        W47554   0.357  14.235  11.461  0.0638  0.2351  0.1543
30707W        W47555  15.669   0.033   1.612  0.1959  0.1918 -0.0212
30708W        W47556   7.177   0.661  11.992  0.3040  0.1176 -0.0248
30709ION     NA47557  10.202   3.406  10.493  0.2092 -0.2203 -0.1886
30710ION     NA47558  15.342   2.186   0.745 -0.3621 -0.0870 -0.1525
30711ION     NA47559   1.774   7.346  10.658 -0.1078 -0.0942  0.1275
30712ION     NA47560   8.446   5.545  10.990  0.1626  0.0950 -0.2399
30713ION     NA47561   5.915  13.094   5.872 -0.0253  0.0709  0.0140
30714ION     NA47562  16.966   1.399   5.667 -0.2310  0.0900 -0.0517
30715ION     NA47563   5.337   4.857   5.781  0.1920  0.1456  0.0440
30716ION     NA47564  12.694  14.641  15.321  0.2103 -0.0427  0.5551
30717ION     NA47565   4.720   1.528   5.773  0.2587  0.1396  0.0055
30718ION     NA47566   0.215  12.540   1.950 -0.1493  0.1085 -0.2553
30719ION     NA47567  17.690  12.581   0.490  0.0205 -0.0643 -0.0564
30720ION     NA47568  17.981   6.790   1.370  0.1489 -0.3931 -0.0872
30721ION     NA47569   1.785   2.952  10.177 -0.2052  0.1450 -0.1490
30722ION     NA47570  11.288   0.538   5.838  0.0241  0.0106 -0.2713
30723ION     NA47571   5.311   9.557   5.507  0.1128  0.0201 -0.1468
30724ION     NA47572   1.670   9.756  10.636 -0.0003 -0.1332 -0.1942
30725ION     NA47573  16.515  16.981   5.145 -0.1002 -0.0682 -0.0101
30726ION     NA47574  18.164  10.015   1.604  0.2126  0.1108 -0.0477
30727ION     NA47575  11.656   7.792  10.733 -0.0639  0.1047  0.0817
30728ION     NA47576   9.745   9.883  10.591  0.1591  0.0976  0.2146
30729ION     NA47577  17.915  10.910  12.478 -0.1167 -0.1722 -0.2385
30730ION     NA47578   1.003   5.145  14.057 -0.4048  0.0111 -0.3296
30731ION     NA47579   2.128   7.847   5.676  0.5222 -0.2928 -0.1659
30732ION     NA47580   7.681  11.998   2.070  0.2790  0.3078  0.0646
30733ION     NA47581  12.959   3.920  10.027  0.0547  0.1539 -0.1443
30734ION     NA47582   5.179   9.755  10.441 -0.0958 -0.0374 -0.0610
30735ION     NA47583   8.642   3.971   0.387  0.0073  0.1293  0.0909
30736ION     NA47584   6.410   7.442  10.547  0.1057  0.1384 -0.2395
30737ION     NA47585   7.042   9.150  10.934 -0.0241 -0.0389 -0.0280
30738ION     NA47586  12.832   6.207   6.045  0.0424 -0.1817  0.2208
30739ION     NA47587  15.739   7.546   5.858 -0.0733  0.0368  0.2031
30740ION     NA47588  16.627  10.184  15.775  0.0979 -0.0242 -0.0314
30741ION     NA47589   0.303   3.521  13.701 -0.0407 -0.0973 -0.0032
30742ION     NA47590  12.445   1.063  10.325  0.1727  0.0332  0.0728
30743ION     NA47591   0.889   2.820  10.377  0.0504 -0.3464 -0.0517
30744ION     NA47592   0.135  15.475   5.235  0.4299 -0.2125 -0.1376
30745ION     NA47593   0.904   2.721  15.448  0.2484  0.0999  0.2325
30746ION     NA47594   4.967   7.035  14.507 -0.1027 -0.2906  0.1309
30747ION     NA47595  14.518  10.577  10.275  0.0281  0.1065 -0.1984
30748ION     NA47596  17.714   0.903   5.495 -0.2330  0.2315  0.4522
30749ION     NA47597   6.706  15.371   0.139 -0.0514  0.2669  0.0452
30750ION     NA47598   1.177   1.155  10.095 -0.0732  0.0589  0.0453
30751ION     NA47599   4.387   4.493   3.921 -0.2969  0.3183  0.0173
30752ION     NA47600  14.942   5.071  15.253 -0.0958  0.2206 -0.0390
30753ION     NA47601   6.723  11.537   6.015  0.0201 -0.0080  0.2025
30754ION     NA47602  11.893  16.592   5.714  0.1940  0.1448 -0.1248
30755ION     NA47603  11.281  15.398  11.223 -0.4128 -0.2577  0.3312
30756ION     NA47604  16.073  12.407  10.752 -0.3517 -0.3689 -0.1523
30757ION     NA47605   9.085  11.261   6.045  0.1049 -0.0170  0.3339
30758ION     NA47606  15.800   2.004  10.163  0.2162  0.2375  0.2370
30759ION     NA47607  18.192  13.251   5.262 -0.0425  0.0351  0.0753
30760ION     NA47608   9.652  11.009  14.066 -0.0310 -0.1296 -0.2344
30761ION     NA47609  13.258   7.000   5.810  0.4065  0.0284  0.0231
30762ION     NA47610  17.035  14.405   1.681 -0.0515  0.0784  0.1840
30763ION     NA47611  11.918   0.366  10.528 -0.2462  0.3432  0.0814
30764ION     NA47612   1.829  11.305  15.789 -0.1692 -0.1162  0.1512
30765ION     NA47613  14.807  11.663  11.263 -0.0204 -0.0812  0.0930
30766ION     NA47614   8.814   1.630  10.278  0.1028 -0.1259 -0.2997
30767ION     NA47615   7.886   8.590  10.874 -0.0525  0.1348  0.1206
30768ION     NA47616   7.012  16.771   3.021  0.0538 -0.0182  0.3890
30769ION     NA47617  11.749  12.887   2.172  0.0976 -0.0834 -0.0344
30770ION     NA47618  10.819   5.499  13.199 -0.0155 -0.0649 -0.0231
30771ION     NA47619   0.015  15.980  14.686  0.1067 -0.3560 -0.0356
30772ION     NA47620   0.234  14.997  10.107 -0.2879 -0.2361  0.1835
30773ION     NA47621  13.312  13.517   5.883 -0.0933  0.2027  0.2984
30774ION     NA47622  11.437   4.924  10.435 -0.0501  0.3333 -0.1281
30775ION     NA47623   8.645   7.520   5.181  0.1742  0.2429  0.0145
30776ION     NA47624  16.547   2.931  15.467 -0.0573  0.0552 -0.2088
30777ION     NA47625   5.712   8.854   0.114  0.0735 -0.1412  0.2300
30778ION     NA47626  11.581  10.634   5.861  0.1719 -0.0228  0.0365
30779ION     NA47627   0.304  15.942   1.963 -0.0687  0.2419 -0.0426
30780ION     NA47628   6.736  17.565   5.792 -0.0043 -0.1161 -0.0443
30781ION     NA47629   9.934   0.584  15.165  0.2282  0.0598 -0.0972
30782ION     NA47630   9.973   8.250   3.921 -0.1582 -0.1682 -0.4480
30783ION     NA47631  16.923  15.980   0.234  0.1220 -0.3965 -0.1370
30784ION     NA47632   9.812   5.667   0.362 -0.1333  0.0833 -0.2054
30785ION     NA47633  14.513  12.536   0.583  0.0573 -0.0666 -0.1223
30786ION     NA47634   4.949   6.446   5.843  0.1956  0.0614  0.1549
30787ION     NA47635  11.236   5.924   2.140 -0.1718 -0.2467 -0.1028
30788ION     NA47636   4.180   9.825  13.932 -0.1557 -0.2707  0.1459
30789ION     NA47637   5.674  13.523   2.001 -0.1174 -0.2023  0.0374
30790ION     NA47638  10.627   0.892   5.464 -0.1489  0.0251  0.0831
30791ION     NA47639  15.426  17.187   5.510 -0.1688 -0.1792 -0.1169
30792ION     NA47640  18.197  11.193   0.059  0.0228 -0.0629 -0.0807
30793ION     NA47641  15.593  15.762   1.741 -0.1449  0.1894 -0.1547
30794ION     NA47642  13.873  10.872  10.467  0.1664 -0.2680  0.0835
30795ION     NA47643  17.624  11.717  10.170  0.0266  0.1226  0.2524
30796ION     NA47644   8.425  16.093   5.295 -0.2720 -0.0665  0.0880
30797ION     NA47645  11.365  11.738   6.130  0.1842  0.1123  0.1299
30798ION     NA47646   5.112   0.529  10.470 -0.3032  0.1233  0.3041
30799ION     NA47647   6.526   4.823  10.884  0.0688 -0.0712  0.0852
30800ION     NA47648   2.773   9.576  10.165  0.2597  0.0036  0.0369
30801ION     NA47649  13.562  12.010   2.532  0.0287 -0.1979  0.3360
30802ION     NA47650   0.227  10.161   4.979  0.0280  0.3181 -0.0513
30803ION     NA47651  14.646   4.752   5.823  0.1713  0.0668 -0.1624
30804ION     NA47652   2.040  12.896  10.326 -0.1958 -0.2677  0.1780
30805ION     NA47653   8.154   7.265  10.372 -0.0875 -0.3120 -0.1247
30806ION     NA47654   2.546  14.666   1.694 -0.1616 -0.1640  0.1572
30807ION     NA47655   7.139   4.710  10.709  0.1584 -0.2230  0.2247
30808ION     NA47656   3.572   0.062   0.788  0.1170 -0.1565  0.6053
30809ION     NA47657   0.036   4.656  15.168  0.1603 -0.1770  0.0805
30810ION     NA47658   4.667   7.925  10.760  0.1031 -0.1067 -0.1127
30811ION     NA47659  10.859   6.820  12.784 -0.0010 -0.2136 -0.1311
30812ION     NA47660   8.304  14.440   5.599 -0.1158 -0.4716  0.2527
30813ION     NA47661   4.568   9.268  10.368 -0.2190 -0.0275  0.3015
30814ION     NA47662  13.215  16.641  10.461 -0.2846  0.2028 -0.1992
30815ION     NA47663   0.486   6.099  13.813  0.1727  0.4175  0.2348
30816ION     NA47664   0.081  10.113  10.473  0.1462 -0.2625  0.1607
30817ION     NA47665   0.935  12.389  10.051 -0.0889 -0.1936 -0.1548
30818ION     NA47666  17.532  10.672  10.319 -0.2249 -0.1512 -0.1650
30819ION     NA47667  14.232   1.917   4.997  0.1803 -0.0155  0.0475
30820ION     NA47668   9.446   3.808  10.543 -0.0071 -0.0546  0.2552
30821ION     NA47669   0.558  17.958   4.963 -0.0792  0.3134 -0.1022
30822ION     NA47670   4.099   8.312  12.524 -0.2496 -0.0634 -0.1703
30823ION     NA47671  17.017  14.175  15.422 -0.1506 -0.0147  0.2329
30824ION     NA47672  17.067   5.633   3.708 -0.0194 -0.1700 -0.0238
30825ION     NA47673   9.537   6.317   6.094 -0.2697 -0.1895 -0.0843
30826ION     NA47674  12.804  16.726  15.694 -0.1079 -0.1815  0.0505
30827ION     NA47675   1.403   1.261  13.397 -0.0713  0.0111  0.3722
30828ION     NA47676   7.514   7.651  15.053 -0.1494 -0.0750 -0.3284
30829ION     NA47677   4.764   6.750  10.555 -0.2043 -0.0951 -0.0320
30830ION     NA47678   9.078  10.562  13.063 -0.3401 -0.0864 -0.1558
30831ION     NA47679  14.624   6.145  10.713  0.2328 -0.2256  0.2059
30832ION     NA47680  14.270   5.107   1.009 -0.0603 -0.2548 -0.0489
30833ION     NA47681   6.649   1.758  10.682 -0.0303  0.1087  0.1427
30834ION     NA47682   9.532   7.292  11.862 -0.0023  0.0829  0.1340
30835ION     NA47683  13.491   1.039   5.524  0.3180 -0.0685 -0.0994
30836ION     NA47684  17.299   5.389   5.635  0.0199 -0.0786  0.1608
30837ION     NA47685   7.377   9.690   6.384  0.4406  0.0897  0.1815
30838ION     NA47686   7.844  18.095  10.339 -0.1260  0.0940  0.0626
30839ION     NA47687   0.396  17.701   1.278  0.2161  0.0208  0.1567
30840ION     NA47688   5.912  12.081   5.620  0.1752 -0.0806 -0.1033
30841ION     NA47689   4.896   2.952   5.976  0.2322 -0.0731 -0.0337
30842ION     NA47690   4.156   6.235   5.809  0.3009 -0.2814 -0.0185
30843ION     NA47691   2.668   8.889  11.899 -0.2749  0.0548  0.2484
30844ION     NA47692   0.033   5.159  11.934 -0.1757  0.2005 -0.1621
30845ION     NA47693   6.107   9.769  13.484  0.0246 -0.0691  0.2125
30846ION     NA47694  12.747  16.752   5.687 -0.3635  0.0193 -0.0173
30847ION     NA47695  12.905  17.554  10.504 -0.1099 -0.4307 -0.1450
30848ION     NA47696  14.814   0.977   1.365  0.2203 -0.0394  0.1246
30849ION     NA47697   3.260  10.846  13.221 -0.0067 -0.0580  0.0043
30850ION     NA47698   6.910   9.177  14.490  0.1138 -0.1274 -0.1460
30851ION     NA47699   3.681   9.522  10.282  0.5193 -0.2549  0.0241
30852ION     NA47700   4.028  17.762   6.003 -0.0776  0.5490  0.0172
30853ION     NA47701  16.566   4.920   5.707 -0.0980 -0.3319  0.2179
30854ION     NA47702  15.732  18.107  10.101  0.1125 -0.1783  0.0926
30855ION     NA47703  17.528  10.207  14.319  0.0709 -0.3175  0.0150
30856ION     NA47704   1.459   5.605  10.643 -0.0651  0.0958 -0.2934
30857ION     NA47705   7.384   6.427  15.244 -0.0121  0.0043 -0.0328
30858ION     NA47706  13.714   0.803   1.458 -0.3492  0.2105  0.0400
30859ION     NA47707   9.739   6.964   2.383 -0.1289 -0.1223 -0.0317
30860ION     NA47708  16.943   7.791   3.709  0.0593  0.0874 -0.3206
30861ION     NA47709  12.101  12.380  10.613 -0.1631 -0.1142 -0.1985
30862ION     NA47710   6.476   3.930  10.841 -0.0325 -0.0100  0.3192
30863ION     NA47711   2.886   9.369  13.429 -0.2114  0.2579  0.2950
30864ION     NA47712   4.266  11.890   5.516 -0.0437 -0.4086  0.0060
30865ION     NA47713  11.969  14.606  10.390 -0.2633 -0.2954  0.1997
30866ION     NA47714   6.919   8.417  15.233 -0.1197 -0.1228  0.2825
30867ION     NA47715  14.049  14.390   2.008  0.2301 -0.0747 -0.0779
30868ION     NA47716   1.094  16.194  10.332  0.1544  0.0293  0.0789
30869ION     NA47717   0.908   2.379  14.730 -0.0717  0.1444  0.1417
30870ION     NA47718  11.019   6.077   6.416 -0.3013 -0.1255  0.1103
30871ION     NA47719  10.500  16.145  15.270 -0.1736  0.3789  0.1250
30872ION     NA47720  18.177  15.991  12.028  0.2833  0.3620  0.0075
30873ION     NA47721   5.358   0.043   1.547 -0.0900  0.3561 -0.2304
30874ION     NA47722   5.186  17.878  10.254 -0.0593  0.1675 -0.1303
30875ION     NA47723   9.250   8.872   5.963  0.1353 -0.0355 -0.2595
30876ION     NA47724   4.006   3.751  12.428  0.1384  0.2156 -0.0756
30877ION     NA47725  12.878  17.008   2.098  0.1827  0.1324 -0.2932
30878ION     NA47726   0.307   2.152   5.042  0.2327  0.4248  0.0007
30879ION     NA47727   7.625   9.932   0.517  0.2016  0.0244 -0.1487
30880ION     NA47728   4.758  15.844  10.049  0.2009 -0.2097  0.1353
30881ION     NA47729   7.310   3.233   2.101  0.1079  0.0554 -0.0745
30882ION     NA47730   1.942  17.783  10.168 -0.0257  0.2243 -0.2325
30883ION     NA47731   7.184   1.661  12.903 -0.1722  0.4113 -0.0346
30884ION     NA47732   4.886   3.765  11.876 -0.0737 -0.0646  0.3976
30885ION     NA47733   5.101   3.432  10.816  0.0657  0.0188 -0.1511
30886ION     NA47734   6.715   7.255   2.049 -0.1669  0.1059  0.1860
30887ION     NA47735  12.950   5.208   2.813  0.3801 -0.2663 -0.1536
30888ION     NA47736   2.473   5.303   5.872 -0.2149  0.0009 -0.0098
30889ION     NA47737  17.815   0.073   2.456 -0.1081  0.0687  0.1768
30890ION     NA47738   5.001  11.528   2.793  0.0484 -0.2120  0.0749
30891ION     NA47739   7.266  10.869  12.415 -0.1342 -0.2623 -0.3665
30892ION     NA47740  13.199  17.806   5.865  0.0875  0.1567  0.1592
30893ION     NA47741   4.275  11.685   9.958  0.2120  0.4699  0.0821
30894ION     NA47742  10.945   9.267   5.371 -0.1731 -0.2475  0.0982
30895ION     NA47743   4.432   3.945  10.245  0.2358  0.0509 -0.2577
30896ION     NA47744  15.042   2.016  11.394  0.1272 -0.2246  0.0365
30897ION     NA47745   8.316  15.181  13.400 -0.3332 -0.6556 -0.1465
30898ION     NA47746  12.478   3.035   5.401  0.1982  0.1146  0.0940
30899ION     NA47747   1.624  13.642  10.193  0.0747  0.0974 -0.1135
30900ION     NA47748  14.281   1.146  13.183  0.2102 -0.0762  0.0846
30901ION     NA47749  15.903  16.321   5.665  0.0034  0.1722 -0.1840
30902ION     NA47750  17.052  11.757   5.900  0.0901 -0.3077  0.1698
30903ION     NA47751   9.477  12.923  10.443 -0.1065  0.0055 -0.0242
30904ION     NA47752   7.298  12.249   5.987  0.0191  0.0340  0.0795
30905ION     NA47753  16.470   6.604  12.413 -0.2760 -0.0107 -0.0850
30906ION     NA47754   6.889  17.035   5.602  0.1675 -0.1993 -0.0131
30907ION     NA47755   0.211   5.552  10.586  0.0694  0.1869  0.1387
30908ION     NA47756  18.097  13.898   5.674 -0.3168  0.0578  0.0771
30909ION     NA47757   8.066  17.202  14.816 -0.1826  0.2041  0.2980
30910ION     NA47758  14.163  13.362   5.574 -0.2517  0.2573 -0.1256
30911ION     NA47759  15.957  15.637   5.542  0.0475 -0.1058  0.4027
30912ION     NA47760  15.532  11.272   0.107 -0.1249  0.1397  0.0278
30913ION     NA47761  11.828  12.845  16.123  0.0340 -0.0295 -0.2191
30914ION     NA47762  13.662  16.690  15.029  0.2740  0.2800 -0.0736
30915ION     NA47763   3.615  15.760   0.494  0.1253 -0.0255 -0.1838
30916ION     NA47764   2.795   5.726  10.404  0.3087  0.2081 -0.0954
30917ION     NA47765  10.182  14.152  10.567  0.0636  0.0465  0.0804
30918ION     NA47766  12.645   7.863  10.889 -0.3270 -0.4455 -0.1950
30919ION     NA47767  12.227  15.476   4.004  0.0715  0.0260  0.1128
30920ION     NA47768   3.651   7.787  10.503  0.0541 -0.0852 -0.0555
30921ION     NA47769   1.534   3.957   0.372  0.1780 -0.0299 -0.2129
30922ION     NA47770   7.213  16.045   5.664 -0.2419 -0.1018 -0.1326
30923ION     NA47771  13.324   8.410  11.298  0.0964  0.0766 -0.1292
30924ION     NA47772  14.095  16.554  10.479 -0.0030 -0.1278 -0.0332
30925ION     NA47773  11.613  14.843  15.781  0.0455  0.0343 -0.0752
30926ION     NA47774   2.554   4.288   5.489  0.0483 -0.2105 -0.0153
30927ION     NA47775  17.220  14.491  10.224  0.3331  0.1512 -0.2611
30928ION     NA47776  15.345   6.144  14.677  0.2870  0.1178 -0.0724
30929ION     NA47777  16.652  15.882  10.039 -0.0133  0.0900  0.1438
30930ION     NA47778   8.279   2.396  10.801  0.0996 -0.2663 -0.2403
30931ION     NA47779   6.821  13.881  11.284 -0.1980  0.0509 -0.0654
30932ION     NA47780   1.889  10.026   5.742 -0.2820  0.2686 -0.0638
30933ION     NA47781   7.201   1.117  10.321  0.1846 -0.1551  0.1057
30934ION     NA47782  14.294  10.046  10.456  0.0520 -0.0412  0.0578
30935ION     NA47783   7.110   3.594   5.671  0.2361 -0.1649 -0.1322
30936ION     NA47784   9.345  17.067  15.280 -0.0228  0.0117  0.2210
30937ION     NA47785  14.207   5.187   5.495  0.0656 -0.1665 -0.0550
30938ION     NA47786   5.221  17.458   5.599  0.1200  0.2101 -0.2860
30939ION     NA47787  17.017   8.696  16.123 -0.2120 -0.2632 -0.0445
30940ION     NA47788  14.451   5.435   1.976 -0.2153 -0.2960 -0.0723
30941ION     NA47789  17.469   6.271   4.605 -0.1491  0.0261 -0.1801
30942ION     NA47790   6.385  10.698   3.971  0.0960 -0.1606 -0.0055
30943ION     NA47791   0.070  11.093  10.355  0.1973  0.1250  0.1793
30944ION     NA47792   4.102  15.669  15.849  0.2271 -0.1849 -0.0477
30945ION     NA47793  13.595  11.950   5.890  0.2384 -0.0153 -0.2651
30946ION     NA47794  12.571  15.416   5.888  0.1252 -0.2561  0.2367
30947ION     NA47795   2.147  17.391   4.686 -0.3384 -0.0891  0.1574
30948ION     NA47796  16.850  15.815   1.875  0.1419 -0.1877 -0.2123
30949ION     NA47797   0.110   1.977   5.812 -0.0595  0.3090 -0.4491
30950ION     NA47798   1.733   3.984   1.338 -0.0419 -0.2570 -0.3183
30951ION     NA47799   6.120   6.858  12.899  0.2035  0.1964 -0.1533
30952ION     NA47800  16.791  16.732  10.140 -0.3392  0.2062 -0.2357
30953ION     NA47801   5.081   5.472   0.607  0.3198  0.0986 -0.0971
30954ION     NA47802   9.370   4.652   0.136 -0.0170 -0.3434 -0.2080
30955ION     NA47803  10.634   1.229   3.420 -0.1701 -0.3281 -0.1227
30956ION     NA47804  10.136  15.217  14.129  0.0136  0.0353  0.1604
30957ION     NA47805  13.062  10.745  10.727 -0.0922  0.0312  0.1092
30958ION     NA47806   6.939   0.758   2.659  0.0924 -0.0680  0.4758
30959ION     NA47807   3.416   0.166   5.966 -0.1638  0.0515 -0.2669
30960ION     NA47808  12.439  13.277   3.042  0.2870  0.1021 -0.3210
30961ION     NA47809   2.578   3.750  14.796  0.0638  0.2429  0.0226
30962ION     NA47810  14.920  11.990  12.421  0.2225 -0.0833 -0.2397
30963ION     NA47811  10.928   3.758   5.619 -0.0123 -0.0325  0.0145
30964ION     NA47812  16.786  17.784  10.031 -0.0296  0.4608  0.2911
30965ION     NA47813   4.171  15.455   3.423 -0.0939 -0.0379 -0.1390
30966ION     NA47814   7.327  13.179   5.833  0.3545 -0.0970  0.3098
30967ION     NA47815  14.068   3.512  16.064 -0.2815  0.0631 -0.2854
30968ION     NA47816   1.863   4.787   5.789 -0.0165 -0.4191 -0.0144
30969ION     NA47817   9.586   2.508  13.916 -0.2005 -0.4408 -0.0339
30970ION     NA47818   9.332   7.795   5.942  0.1509 -0.5014  0.1312
30971ION     NA47819  13.978  12.042  15.128  0.2268  0.2875  0.1775
30972ION     NA47820  15.834  13.356  10.570  0.0694  0.0097 -0.0759
30973ION     NA47821   4.838   8.513  11.336  0.0138  0.1748 -0.1949
30974ION     NA47822  16.559  11.712   3.576  0.0673 -0.1084  0.2394
30975ION     NA47823  18.188  14.679   5.470 -0.1313 -0.0383 -0.0858
30976ION     NA47824   7.990   8.447   2.553 -0.1424 -0.0558 -0.2254
30977ION     NA47825  10.854  17.622  10.584 -0.0285  0.0571  0.2061
30978ION     NA47826  16.390   9.511  13.543 -0.1349  0.0860 -0.0428
30979ION     NA47827  17.150   4.266  10.328  0.1076 -0.1722 -0.3383
30980ION     NA47828   8.234  16.052  14.518 -0.2406  0.0631  0.1181
30981ION     NA47829   1.124   8.690   5.363  0.0617 -0.1773  0.0031
30982ION     NA47830   4.476   1.326   3.863  0.2744 -0.0055 -0.5184
30983ION     NA47831  16.839  13.343  10.345 -0.0233 -0.2200 -0.0381
30984ION     NA47832  10.938  14.298  13.592 -0.1636  0.0457  0.0014
30985ION     NA47833   7.072  17.764  10.510  0.1223 -0.1452  0.1108
30986ION     NA47834   4.670  14.514   5.561  0.2332 -0.0917  0.4855
30987ION     NA47835   6.873   8.924   1.574 -0.1184 -0.2510  0.1860
30988ION     NA47836  11.123  14.047  10.458  0.2553  0.2179 -0.1193
30989ION     NA47837   9.198   5.465  10.713 -0.3422  0.1518 -0.0662
30990ION     NA47838   1.220  15.405  11.066 -0.1534 -0.0215  0.0874
30991ION     NA47839  17.655   6.129  10.396 -0.1047  0.0751  0.0841
30992ION     NA47840  16.146  11.591   5.902 -0.0598 -0.3152 -0.1862
30993ION     NA47841   4.159  15.921   5.726  0.2202  0.0834 -0.0465
30994ION     NA47842  12.045  10.456   6.056 -0.1438  0.1793  0.3874
30995ION     NA47843   7.018  11.344  11.567  0.1410  0.0786 -0.0882
30996ION     NA47844  16.950   2.309   5.634  0.1835 -0.0316  0.2890
30997ION     NA47845   0.724   0.532  14.284 -0.0060  0.0510 -0.2423
30998ION     NA47846  10.802   5.190   6.310 -0.1028  0.2172 -0.2873
30999ION     NA47847   8.191  10.177  15.927 -0.0760 -0.2559  0.2218
31000ION     NA47848   7.940  10.532  14.071  0.1454  0.0967 -0.0366
31001ION     NA47849  17.374   6.558   5.950  0.1859  0.1018 -0.2358
31002ION     NA47850   7.534  17.439   2.025  0.1663 -0.2905  0.0401
31003ION     NA47851  17.643  11.928   6.026 -0.6069  0.3479 -0.1092
31004ION     NA47852   1.962  15.782  10.426  0.0133 -0.0026 -0.0661
31005ION     NA47853  11.284   1.364   5.316 -0.0392  0.0558  0.2004
31006ION     NA47854  14.216   2.768   3.892 -0.1148 -0.1044 -0.1648
31007ION     NA47855  12.693   9.626  11.276 -0.0401 -0.1023 -0.6014
31008ION     NA47856   4.340   2.851  10.627  0.1584 -0.2061  0.2293
31009ION     NA47857  16.627  16.031  14.923 -0.1854 -0.1927 -0.1846
31010ION     NA47858  15.435  13.640   4.211 -0.1222  0.0485 -0.3161
31011ION     NA47859  13.384  15.540   2.168 -0.3888 -0.0268  0.1172
31012ION     NA47860   6.924  14.066   5.774 -0.2143 -0.1992 -0.1115
31013ION     NA47861   1.801  16.278   5.408  0.1734 -0.0026 -0.0671
31014ION     NA47862   3.380  11.536  10.304  0.0153  0.2525  0.3563
31015ION     NA47863   6.806   6.467   5.974 -0.1106  0.1840  0.2471
31016ION     NA47864   6.735   8.208  10.634  0.0195  0.1110 -0.0667
31017ION     NA47865  14.863  14.655   5.805  0.0774  0.0883 -0.0096
31018ION     NA47866   4.364  10.121  10.274  0.4139  0.0689  0.0029
31019ION     NA47867   6.128   6.360  10.661  0.0797 -0.1530 -0.1650
31020ION     NA47868   7.225   1.585   6.064 -0.0186 -0.1813  0.0334
31021ION     NA47869   8.177   2.844  11.689 -0.2565  0.0081 -0.1474
31022ION     NA47870   0.002   4.359   5.920 -0.1490 -0.0700 -0.1313
31023ION     NA47871   0.953   6.837   5.969 -0.1037 -0.0969  0.1603
31024ION     NA47872  12.310  12.373   0.298 -0.2990  0.2974 -0.2200
31025ION     NA47873   9.657   0.648   5.531  0.0611 -0.0769 -0.1201
31026ION     NA47874  16.589   7.359  10.529 -0.0649 -0.0905 -0.0407
31027ION     NA47875  14.816   5.878   5.852 -0.2288 -0.1681  0.4446
31028ION     NA47876  15.420  15.719  14.164 -0.2523 -0.0295 -0.1558
31029ION     NA47877   6.075  18.150   5.793 -0.1910  0.0165 -0.1866
31030ION     NA47878  13.303   6.237  15.923 -0.1396  0.1553  0.0806
31031ION     NA47879   0.062  12.489   5.720 -0.0711 -0.1370  0.0258
31032ION     NA47880   0.496  11.718  10.356 -0.1409 -0.1813 -0.3052
31033ION     NA47881  16.041   2.750  10.068 -0.1672  0.1353  0.0363
31034ION     NA47882  14.273   6.620   5.844 -0.3790 -0.0783 -0.0444
31035ION     NA47883   9.197   5.583   6.109  0.0835  0.2458  0.0056
31036ION     NA47884  18.213   7.534  10.465 -0.3421  0.1252 -0.0067
31037ION     NA47885  14.394   9.308   6.146  0.4033  0.2514  0.0679
31038ION     NA47886  15.212   8.219   6.227  0.1694  0.1120  0.0690
31039ION     NA47887   8.571   3.794   5.832  0.4309  0.0625  0.2112
31040ION     NA47888  10.784   7.711  10.669 -0.0496 -0.2015  0.2103
31041ION     NA47889   1.772   2.226  13.872  0.1615  0.2499 -0.1509
31042ION     NA47890  12.506   4.095   4.789  0.1256  0.1055  0.1077
31043ION     NA47891   2.186   1.158  10.196  0.1404  0.0657 -0.0756
31044ION     NA47892  11.256   8.373   4.893 -0.0342 -0.1910  0.0645
31045ION     NA47893  10.572  12.194   6.128  0.0123  0.2027  0.2233
31046ION     NA47894   2.926  17.997  12.684 -0.1839 -0.0260 -0.1650
31047ION     NA47895   4.028   7.421   6.147 -0.0834 -0.1678  0.3679
31048ION     NA47896   8.113   6.536  12.024  0.0042  0.0373  0.1836
31049ION     NA47897  14.562  13.935   3.056 -0.0186  0.0520 -0.3125
31050ION     NA47898   4.044   4.732  10.065  0.0658  0.3164 -0.2715
31051ION     NA47899   5.795   6.964   0.958 -0.1789  0.2917 -0.1990
31052ION     NA47900   8.302  12.502  15.895 -0.1817  0.0367 -0.0527
31053ION     NA47901   5.676   8.701   5.147 -0.2172  0.2343 -0.2454
31054ION     NA47902   3.491  15.327  10.205  0.1248 -0.1024 -0.0378
31055ION     NA47903  10.917  10.561  10.589  0.0522 -0.0769  0.0148
31056ION     NA47904  10.112  11.872  12.366 -0.0967 -0.0191  0.1241
31057ION     NA47905   9.565  16.878   2.068 -0.2501  0.3698 -0.1802
31058ION     NA47906   2.529   4.878  10.475 -0.0518 -0.3933 -0.2406
31059ION     NA47907   7.079   8.165   0.139 -0.0016  0.1627  0.0651
31060ION     NA47908  16.178  11.659  10.392  0.0758 -0.0250  0.0150
31061ION     NA47909   6.961  15.790  10.239  0.1080 -0.2524 -0.1022
31062ION     NA47910   0.249  17.076  10.138 -0.1685 -0.3734 -0.0489
31063ION     NA47911  11.929   5.428  15.446 -0.1991  0.0318 -0.1702
31064ION     NA47912   0.939  13.478   0.844 -0.1231  0.2024  0.1583
31065ION     NA47913   8.103  12.118  10.813  0.0263  0.3085  0.3741
31066ION     NA47914   3.085  17.196   1.413 -0.2777  0.2091 -0.0644
31067ION     NA47915   5.257  18.122  15.863  0.2997 -0.0511 -0.0874
31068ION     NA47916   0.030   6.630   6.135  0.0329  0.0462  0.0045
31069ION     NA47917  11.270   7.071   5.992  0.1219  0.1142  0.0745
31070ION     NA47918  11.440   8.568  11.091  0.0960 -0.0423  0.0673
31071ION     NA47919  14.486  15.036  10.482  0.0088 -0.2633 -0.0301
31072ION     NA47920  15.875   0.198  10.448  0.1043 -0.0539 -0.1246
31073ION     NA47921  10.324   7.755   5.836  0.0023 -0.0002 -0.2106
31074ION     NA47922   6.760  17.346   0.105  0.3442 -0.0131  0.2339
31075ION     NA47923   4.001   6.923  10.451 -0.1807  0.0632 -0.2606
31076ION     NA47924   1.613  12.667  10.009 -0.3135 -0.3188 -0.1518
31077ION     NA47925   7.932   8.902   6.270  0.0615  0.0528 -0.2459
31078ION     NA47926  17.051   2.589  14.438  0.1259  0.1251  0.0291
31079ION     NA47927   0.825   8.261   2.532 -0.1034 -0.0097  0.0405
31080ION     NA47928  11.464   3.672  11.036 -0.1066  0.1263 -0.1120
31081ION     NA47929  18.024   8.169   6.003 -0.2094  0.1979  0.1744
31082ION     NA47930   8.939   2.727   0.626  0.1275 -0.2901 -0.1239
31083ION     NA47931  13.085  18.122  15.794 -0.0833  0.1049  0.2750
31084ION     NA47932   0.369  13.228  10.424 -0.3007  0.4370 -0.1631
31085ION     NA47933  14.598  17.993   5.329  0.0089  0.3467  0.0347
31086ION     NA47934   8.369   0.922   5.614  0.1236  0.2085  0.1158
31087ION     NA47935   1.985   4.895  15.559 -0.1495 -0.2074 -0.5351
31088ION     NA47936  11.175   9.102  10.888  0.0664  0.1592 -0.1912
31089ION     NA47937   7.032  16.662   4.557 -0.0348 -0.2061  0.0607
31090ION     NA47938  16.025  17.734  13.681 -0.1245  0.0521  0.1128
31091ION     NA47939   0.658   7.116  12.744  0.0467 -0.1665 -0.0415
31092ION     NA47940  10.066   2.258  10.333  0.0484  0.0815 -0.1132
31093ION     NA47941  12.860  12.599  10.984  0.1665  0.0366  0.0666
31094ION     NA47942  14.862   3.946   0.934  0.0488  0.0540 -0.1431
31095ION     NA47943   7.927  12.399  13.867  0.1118 -0.2632  0.1070
31096ION     NA47944  12.962   7.057  10.799 -0.1861 -0.4345 -0.1278
31097ION     NA47945   1.045   2.059   5.859  0.0980 -0.3326 -0.1682
31098ION     NA47946   6.210   9.579   5.930  0.2544  0.1354 -0.0165
31099ION     NA47947  16.023  17.107  12.506  0.2965  0.0502  0.3126
31100ION     NA47948   5.318  11.744  10.335 -0.0733  0.1815 -0.0329
31101ION     NA47949  15.158  16.301   5.621 -0.0409  0.0921  0.1544
31102ION     NA47950  10.150   1.714   0.157 -0.1586 -0.1860  0.0394
31103ION     NA47951  13.675  13.517  15.506  0.1445  0.3411  0.1650
31104ION     NA47952  11.788  14.836   5.797  0.1711  0.1172  0.1762
31105ION     NA47953  13.816   0.119  10.228 -0.0899  0.0573  0.4532
31106ION     NA47954  12.832  14.073  10.653  0.0386  0.2592  0.3267
31107ION     NA47955  13.496   1.957   5.586 -0.0750 -0.2297  0.0070
31108ION     NA47956  12.503  11.741   5.958 -0.0380 -0.0543  0.2161
31109ION     NA47957   3.467   6.204  10.515  0.1623  0.0760 -0.1494
31110ION     NA47958   1.227   4.211  12.607  0.1988 -0.1015  0.2113
31111ION     NA47959  17.530   1.454  10.169  0.1781 -0.0221  0.0074
31112ION     NA47960   3.178  10.788   0.083 -0.1483  0.2124 -0.0421
31113ION     NA47961  13.463  15.484  10.598 -0.1850  0.1031  0.0993
31114ION     NA47962  11.962   3.108  10.412 -0.2516  0.1741 -0.1968
31115ION     NA47963   3.025   9.936   3.123 -0.1837 -0.0686  0.0013
31116ION     NA47964  15.453   1.971   3.215  0.1370 -0.0628 -0.3988
31117ION     NA47965   3.665   9.608  12.251 -0.1760  0.1009  0.0363
31118ION     NA47966  11.940  11.814  14.698  0.2063 -0.2180 -0.2289
31119ION     NA47967  10.054  11.117  11.687 -0.0725 -0.1042 -0.3669
31120ION     NA47968   8.834   3.687  14.203 -0.0836 -0.0040 -0.2648
31121ION     NA47969  14.244   9.804  11.235 -0.2887  0.3930  0.3065
31122ION     NA47970  18.142  13.419   1.645 -0.2073  0.2739  0.1979
31123ION     NA47971   1.963  13.298   5.218  0.1820 -0.1308  0.1083
31124ION     NA47972  15.512   1.063   2.768  0.2101  0.2706 -0.1803
31125ION     NA47973  16.541   5.657   2.155 -0.2521 -0.0256  0.0342
31126ION     NA47974  13.235  17.531   3.565  0.2781 -0.1034 -0.0939
31127ION     NA47975  15.746   9.870   6.310 -0.3716  0.2259 -0.2381
31128ION     NA47976   8.457  13.914  11.236 -0.1316 -0.0939  0.1453
31129ION     NA47977  12.235  17.117  15.014  0.1697  0.4617 -0.0673
31130ION     NA47978   2.865   7.775   0.562  0.0435 -0.0953 -0.0098
31131ION     NA47979  13.770   2.572  14.993  0.0915  0.2482 -0.0425
31132ION     NA47980   8.034  13.474   1.061  0.2853  0.0358  0.1074
31133ION     NA47981   1.328   3.295   5.856  0.2819  0.1027  0.0502
31134ION     NA47982   3.891   1.797   0.127  0.1954  0.0414 -0.2193
31135ION     NA47983  11.845  17.977   5.631  0.0239  0.2428 -0.1218
31136ION     NA47984  12.739   9.182  13.845  0.0881 -0.1233  0.1534
31137ION     NA47985   9.441  13.434  10.481  0.3075  0.0375  0.0172
31138ION     NA47986   6.992  13.552   1.894  0.0676 -0.2132 -0.1191
31139ION     NA47987   3.054   2.027  10.486  0.2831  0.2165 -0.0214
31140ION     NA47988   5.423   3.001   2.345 -0.0099 -0.0232 -0.3190
31141ION     NA47989  14.987  14.983  10.562  0.0306 -0.1677 -0.1893
31142ION     NA47990  13.172  11.154   5.907 -0.3588 -0.0880 -0.1151
31143ION     NA47991   6.766   2.441   6.124  0.1319 -0.0803 -0.2446
31144ION     NA47992  18.173   2.187  10.302  0.0394  0.2985  0.2518
31145ION     NA47993   2.001   9.947  10.323  0.0608 -0.2782  0.1819
31146ION     NA47994  11.423   9.745   6.228 -0.2406 -0.0611 -0.0909
31147ION     NA47995  15.307   4.424   5.542  0.5273  0.3969 -0.1550
31148ION     NA47996  12.894   2.307  11.744  0.1097  0.0711 -0.2194
31149ION     NA47997  10.641   9.651  10.587 -0.0971 -0.0598 -0.0114
31150ION     NA47998  13.506   6.991   2.533 -0.3783  0.2487  0.3729
31151ION     NA47999  11.124   2.904   5.272  0.1286 -0.0179 -0.0049
31152ION     NA48000   9.487  10.608   0.345 -0.2801 -0.0306 -0.2033
31153ION     NA48001  17.830  13.869  10.465 -0.0923 -0.1204  0.2974
31154ION     NA48002  10.801   3.935   1.914 -0.1101 -0.0100  0.0283
31155ION     NA48003  12.739   8.404   6.145  0.0001 -0.1761 -0.1745
31156ION     NA48004   8.216  18.107   1.267 -0.1053 -0.0527 -0.3283
31157ION     NA48005   3.662   6.889  15.161 -0.0927 -0.3849 -0.0410
31158ION     NA48006   4.868   7.471  13.570  0.1598  0.2497 -0.0199
31159ION     NA48007  10.302   1.277   5.215  0.4281  0.2399  0.1699
31160ION     NA48008   5.578   4.292  10.850 -0.1010  0.1068  0.0886
31161ION     NA48009   7.366  13.738  14.183 -0.1600 -0.1680  0.3990
31162ION     NA48010  10.732   8.528   1.702  0.1011 -0.0974 -0.1337
31163ION     NA48011  17.733   7.591   5.446 -0.0287  0.1103 -0.2248
31164ION     NA48012  16.803   7.691   1.856 -0.0324 -0.1485  0.1835
31165ION     NA48013   7.544   5.526   2.467  0.0563  0.3246 -0.0993
31166ION     NA48014  10.324   6.453  10.617 -0.1728 -0.3285  0.1763
31167ION     NA48015   5.308  14.214   2.562  0.2512  0.0192  0.1999
31168ION     NA48016  12.171   6.041   2.101 -0.0553 -0.2029  0.0430
31169ION     NA48017  13.579  15.614   5.590  0.1259 -0.1620  0.2112
31170ION     NA48018   5.503  16.594   1.373 -0.2674 -0.0287  0.1734
31171ION     NA48019   9.448   9.203  11.155  0.0948  0.1151  0.1770
31172ION     NA48020  15.307  10.446  10.441 -0.1223 -0.1237 -0.0544
31173ION     NA48021  11.539  15.381   5.160  0.2265 -0.4495  0.1254
31174ION     NA48022   5.605   9.080  10.463 -0.0252 -0.2554 -0.3589
31175ION     NA48023   1.595   8.304  15.784 -0.5176  0.0929  0.0038
31176ION     NA48024   6.135  17.888  10.411  0.0004 -0.2124  0.1110
31177ION     NA48025  14.838  10.946  13.794 -0.0884  0.0552  0.4172
31178ION     NA48026   9.724   5.343   6.458  0.0364  0.0244 -0.1220
31179ION     NA48027  10.108   7.902   1.478 -0.0367 -0.1708  0.0260
31180ION     NA48028   1.616  14.853  12.879 -0.0694  0.0675  0.0762
31181ION     NA48029   5.411   3.681  14.123 -0.4540  0.0230  0.4550
31182ION     NA48030  12.267   7.466   0.356 -0.0691  0.3918 -0.0985
31183ION     NA48031   0.156   0.728   2.919  0.1020 -0.0487 -0.2627
31184ION     NA48032  13.502   9.538  10.720 -0.0272 -0.0978  0.1860
31185ION     NA48033   1.173  15.298  10.136 -0.1502  0.1268 -0.1512
31186ION     NA48034   7.215   3.997  10.696  0.0873 -0.0360  0.1192
31187ION     NA48035   7.825   8.746   1.388  0.1085  0.1800  0.0528
31188ION     NA48036   8.145  17.935  12.324  0.1387 -0.0820 -0.2751
31189ION     NA48037  13.465   4.628  10.252 -0.0550  0.2666 -0.0598
31190ION     NA48038   3.484  11.783   5.579 -0.1111 -0.0256 -0.2250
31191ION     NA48039  13.247   2.780  10.119 -0.0526  0.0106  0.1342
31192ION     NA48040  15.159   8.825  12.855  0.3263 -0.1588 -0.0508
31193ION     NA48041   5.961   2.013   6.075  0.1168  0.0658 -0.0331
31194ION     NA48042  13.857  16.859   2.496  0.4337  0.4676 -0.1075
31195ION     NA48043  17.114  11.759  13.215 -0.2652  0.2221 -0.3417
31196ION     NA48044   9.646  13.794   5.743 -0.2234 -0.3943  0.0673
31197ION     NA48045   1.298   6.252   3.847  0.1785  0.0103  0.0585
31198ION     NA48046   5.618  13.369  14.666  0.1059  0.1250 -0.1094
31199ION     NA48047   3.346  13.959   5.218  0.0739  0.2664  0.3300
31200ION     NA48048   1.354  12.279   5.438 -0.0773  0.0616  0.3258
31201ION     NA48049   2.757  16.313  14.580  0.2573 -0.0180  0.0604
31202ION     NA48050   1.275   5.684   6.169  0.1176 -0.2478 -0.1385
31203ION     NA48051  16.377   9.293   0.364  0.0306 -0.0725 -0.1383
31204ION     NA48052   1.489  11.584   0.929  0.1806 -0.0702  0.0309
31205ION     NA48053   5.969   0.601  13.853  0.0190  0.0975  0.2123
31206ION     NA48054  13.648   2.027  10.386  0.2364  0.1132 -0.0283
31207ION     NA48055  16.527  15.497   5.424 -0.0958  0.0180  0.0644
31208ION     NA48056  15.505   8.631  15.254  0.0754  0.1845 -0.0331
31209ION     NA48057   7.633  11.471   6.203  0.0559 -0.1494 -0.0107
31210ION     NA48058   7.230  13.981  10.403  0.1363  0.1651  0.1004
31211ION     NA48059  16.843   0.555   9.894  0.1895  0.0702 -0.1455
31212ION     NA48060  14.965   1.491  10.442 -0.1388 -0.2564 -0.1252
31213ION     NA48061   3.708   2.801   0.177  0.0646 -0.0050 -0.1393
31214ION     NA48062  12.273   0.284  12.434  0.1171  0.1755  0.1528
31215ION     NA48063  11.266  12.943  10.481 -0.2509 -0.4592  0.1791
31216ION     NA48064  14.094  13.639  14.218 -0.2507  0.3036 -0.1630
31217ION     NA48065  10.491  15.688  10.406 -0.3462 -0.0807 -0.2299
31218ION     NA48066   3.680   5.526   2.237 -0.3692 -0.0476  0.0686
31219ION     NA48067  14.461   2.827   5.246  0.0342  0.0336 -0.0857
31220ION     NA48068  14.692   0.485  11.020  0.0245 -0.0611  0.1473
31221ION     NA48069   0.769  14.249   0.678 -0.3173 -0.0062 -0.1008
31222ION     NA48070  17.337   2.861   2.215 -0.0721 -0.0995 -0.2041
31223ION     NA48071   7.103  12.809  13.809 -0.0404  0.0722  0.0378
31224ION     NA48072  14.137   1.401  10.575 -0.3281 -0.0745 -0.1352
31225ION     NA48073  13.496   8.049   0.173  0.3307  0.0759  0.2101
31226ION     NA48074  11.711   3.521   5.457 -0.1527 -0.1836 -0.0100
31227ION     NA48075  11.006   6.478   0.768 -0.2701  0.0509 -0.1089
31228ION     NA48076   8.687   1.915  13.086  0.2289 -0.3149  0.1399
31229ION     NA48077   0.254  10.562   2.618  0.0315  0.0310 -0.2002
31230ION     NA48078  17.738  16.783   9.994  0.3582  0.0643 -0.1964
31231ION     NA48079   5.471   0.081   5.816 -0.1134  0.0938 -0.2258
31232ION     NA48080   4.643   8.804  15.375 -0.2817  0.0811  0.1656
31233ION     NA48081   2.446   0.312  10.308 -0.3455  0.2961 -0.1214
31234ION     NA48082  11.661  16.371  10.369 -0.1223 -0.1330 -0.1149
31235ION     NA48083  11.132   3.075  14.911  0.1458  0.0012  0.2560
31236ION     NA48084  11.920  13.546   5.903 -0.1073  0.2693  0.1415
31237ION     NA48085  10.013  15.573  12.819  0.1708 -0.2385 -0.4014
31238ION     NA48086  10.897   1.232  10.421  0.3729 -0.2773 -0.0814
31239ION     NA48087   8.549  13.048  10.618  0.0574  0.3169  0.1361
31240ION     NA48088  11.784  12.546   6.002 -0.0732 -0.0909 -0.2187
31241ION     NA48089   3.357  10.203  10.080 -0.0230  0.1112  0.0770
31242ION     NA48090  15.312   0.761  15.098  0.2582 -0.0463  0.0805
31243ION     NA48091   8.825   6.516   5.769 -0.0279 -0.3295 -0.1102
31244ION     NA48092   5.932   7.038   6.165  0.2297 -0.1372 -0.3813
31245ION     NA48093  17.181   4.493  13.546 -0.1414  0.1677  0.0879
31246ION     NA48094  16.476   5.374  13.871 -0.2006  0.0347 -0.2312
31247ION     NA48095  14.426   3.136  10.208 -0.0184 -0.0827  0.1240
31248ION     NA48096  14.044   2.247  15.733  0.0132  0.0813  0.1282
31249ION     NA48097   3.270  12.036   3.766  0.1215  0.4053 -0.2720
31250ION     NA48098  13.104   5.578  10.309  0.1370 -0.1170 -0.1708
31251ION     NA48099   6.663  10.544   6.086  0.4763 -0.3078  0.0690
31252ION     NA48100   8.944  17.789  15.773  0.1224  0.2770  0.3228
31253ION     NA48101   6.085   8.132   6.040  0.1118  0.1283  0.4603
31254ION     NA48102  12.363  15.554   1.266  0.3206 -0.0320  0.1920
31255ION     NA48103   3.324   1.112   5.890 -0.2047 -0.1855 -0.4007
31256ION     NA48104  14.940  16.501  15.583 -0.2221 -0.0901  0.0030
31257ION     NA48105  12.347  16.710  10.385  0.0239 -0.0459  0.2759
31258ION     NA48106  16.754   5.913  10.188 -0.0197 -0.2004  0.1470
31259ION     NA48107   8.083   2.811   5.907  0.1061 -0.0981  0.1597
31260ION     NA48108  11.592   8.659   2.190  0.0383  0.1641  0.2887
31261ION     NA48109   8.020   4.671   5.880 -0.2866  0.0400  0.2454
31262ION     NA48110  17.379   2.395  12.288 -0.0269 -0.1310 -0.1709
31263ION     NA48111   5.831  10.011  10.535 -0.0046  0.0323 -0.0146
31264ION     NA48112  10.657   5.353   3.633  0.0721 -0.1360 -0.0026
31265ION     NA48113   4.511   6.225   4.419  0.1102 -0.3116 -0.0999
31266ION     NA48114   0.986  11.320  10.138  0.1249 -0.2100 -0.0657
31267ION     NA48115   7.282  12.684  10.678 -0.0221 -0.3303 -0.1272
31268ION     NA48116  10.243   9.972   6.045  0.0840 -0.0026 -0.2615
31269ION     NA48117   2.743  16.520  15.782 -0.1960 -0.4328 -0.1043
31270ION     NA48118  12.392   4.794  10.240 -0.0162  0.2083  0.1580
31271ION     NA48119   9.737  17.981  10.461  0.0254 -0.2705  0.0457
31272ION     NA48120  11.839  15.722  12.805  0.2025  0.0487 -0.1144
31273ION     NA48121   8.425  11.073  10.788  0.2579  0.2950 -0.1278
31274ION     NA48122  15.683  16.312   3.726 -0.0568 -0.0871 -0.0893
31275ION     NA48123  12.120  10.010  10.850  0.0669  0.2754  0.4468
31276ION     NA48124   7.564  15.725   1.055  0.0592 -0.1579 -0.1432
31277ION     NA48125   3.607   0.793   0.183  0.1605  0.0650 -0.1921
31278ION     NA48126  17.190  12.436  15.232 -0.0369 -0.3061 -0.2710
31279ION     NA48127  17.161  17.658   2.436  0.0260  0.3699  0.0711
31280ION     NA48128  11.643   3.163   0.009  0.1500 -0.1356 -0.0997
31281ION     NA48129   0.119  15.978  10.133 -0.0077  0.3327 -0.0323
31282ION     NA48130   1.412  11.288   5.112 -0.1474  0.0174  0.0994
31283ION     NA48131  16.850   2.531  10.120 -0.0919  0.1186  0.1218
31284ION     NA48132   3.693   2.830   4.679 -0.0361 -0.0065  0.1674
31285ION     NA48133   2.720   3.617  10.410  0.2703 -0.0456 -0.2112
31286ION     NA48134  16.531   2.540   2.413  0.0325 -0.0904 -0.0832
31287ION     NA48135   0.708   9.618   5.500 -0.1114  0.0067 -0.1102
31288ION     NA48136  16.655   3.173   5.280 -0.0594 -0.0946 -0.0766
31289ION     NA48137   9.339   5.626   1.675 -0.2025  0.0765  0.1982
31290ION     NA48138   2.344  14.093  10.364  0.0846  0.1476  0.2727
31291ION     NA48139  14.759  13.939   0.699  0.3791  0.2648  0.0421
31292ION     NA48140  12.396   1.726  12.105  0.0768  0.0098  0.0570
31293ION     NA48141   6.399   5.148   2.397  0.0059  0.0076 -0.0662
31294ION     NA48142   2.956  11.097   5.722  0.0560 -0.1739  0.1539
31295ION     NA48143  13.578   7.805   6.038 -0.0128  0.0805 -0.2167
31296ION     NA48144   6.246   9.091   2.804 -0.4813 -0.0732  0.0533
31297ION     NA48145  15.025   3.302  12.695  0.1010 -0.2268 -0.2495
31298ION     NA48146  10.598  15.050   6.074 -0.1185 -0.1212 -0.4627
31299ION     NA48147  17.908  17.909   5.358  0.1002  0.0580  0.1328
31300ION     NA48148   6.866  10.130  10.497 -0.6100  0.1578 -0.0383
31301ION     NA48149   8.933  15.288   5.594  0.5135 -0.0222 -0.0383
31302ION     NA48150   7.623  15.133   5.117  0.2124 -0.1453 -0.1450
31303ION     NA48151   8.564   6.634  10.616 -0.0603 -0.2052 -0.0787
31304ION     NA48152  12.274   4.383  10.608  0.1576 -0.0602 -0.0967
31305ION     NA48153   6.676   3.891   1.642 -0.1777 -0.0413 -0.2416
31306ION     NA48154   5.723  17.292  15.452 -0.2170 -0.2120 -0.1537
31307ION     NA48155  12.919   0.455   5.641 -0.1111 -0.2825  0.4295
31308ION     NA48156   9.058  17.066   5.199  0.2708 -0.1968 -0.2552
31309ION     NA48157  12.584   3.547  10.081  0.3255 -0.2228  0.0407
31310ION     NA48158   9.178  16.041  10.722  0.1691 -0.1891 -0.0833
31311ION     NA48159   7.729   6.317   5.847 -0.1252  0.1422 -0.2206
31312ION     NA48160   4.658  13.648   5.789 -0.0336  0.0341  0.2909
31313ION     NA48161   6.785   6.630  10.772  0.1890  0.2385 -0.2920
31314ION     NA48162  10.602  12.776   4.908 -0.1554  0.3157 -0.0073
31315ION     NA48163  11.722   4.114   2.730  0.3132  0.1718  0.1237
31316ION     NA48164   7.156   7.122   5.945 -0.1456  0.1111  0.0308
31317ION     NA48165   6.153   8.191  11.344  0.0862 -0.1659 -0.3278
31318ION     NA48166   5.831  11.834  14.236 -0.2333  0.0863  0.0996
31319ION     NA48167  14.275  14.795   3.159  0.0355 -0.4869 -0.0582
31320ION     NA48168  16.916   0.071   5.434 -0.4260 -0.0409  0.1402
31321ION     NA48169  14.074  12.816  10.673 -0.0580  0.0794  0.0617
31322ION     NA48170   7.549  14.514   2.292 -0.1851  0.0348  0.0643
31323ION     NA48171   4.031   5.362   5.671 -0.1905 -0.1417 -0.1643
31324ION     NA48172   2.870   6.376  13.451  0.2203 -0.0126 -0.2022
31325ION     NA48173   9.374   4.533  13.031  0.4944  0.1475 -0.1489
31326ION     NA48174  13.949  14.234  10.586  0.1314 -0.1405 -0.0732
31327ION     NA48175   4.407   2.649   0.693 -0.1472  0.0432 -0.1977
31328ION     NA48176   1.656  13.685   5.456  0.0820  0.1644  0.1227
31329ION     NA48177   6.963  10.673  10.983 -0.2686 -0.0421 -0.2132
31330ION     NA48178   3.667   8.166   5.850  0.3111 -0.0885  0.0488
31331ION     NA48179  15.542  10.704   6.033 -0.0061  0.1276  0.3700
31332ION     NA48180   4.768   4.404  15.001 -0.0364  0.0565 -0.0273
31333ION     NA48181  13.190  12.294   0.355 -0.0711 -0.1076 -0.1613
31334ION     NA48182   5.252   1.574  10.431 -0.1012  0.0692  0.1643
31335ION     NA48183  16.772   9.215  14.413  0.1495 -0.0333  0.3553
31336ION     NA48184  14.508   7.418   6.163  0.1568  0.2674  0.0714
31337ION     NA48185   7.750   5.356  10.572  0.0221  0.0267  0.3031
31338ION     NA48186  15.010  14.181  10.519  0.3007 -0.1950 -0.1161
31339ION     NA48187  13.009  11.468   0.488  0.0091 -0.2011 -0.1194
31340ION     NA48188   9.582  17.627  14.311  0.1824  0.0488  0.4183
31341ION     NA48189   1.665   1.426   5.616 -0.0735 -0.0191 -0.0135
31342ION     NA48190   4.019   9.108   0.024  0.1702  0.0722 -0.0899
31343ION     NA48191   4.382  15.455  10.344 -0.3005 -0.2478 -0.1842
31344ION     NA48192   2.163  10.449  10.404 -0.2681  0.1655  0.1756
31345ION     NA48193   0.339   5.743  14.331  0.0726 -0.0248  0.0113
31346ION     NA48194  12.768  10.149  12.045  0.3084  0.0565  0.0811
31347ION     NA48195  16.532  15.440  10.418  0.1620 -0.2318 -0.1104
31348ION     NA48196  14.232  16.190   5.345 -0.2247 -0.2202  0.1271
31349ION     NA48197   0.939  17.154  14.910 -0.2106 -0.3326 -0.3598
31350ION     NA48198  16.052   9.626  14.603 -0.1175  0.1926  0.0130
31351ION     NA48199  15.689   0.792  13.045 -0.0461  0.2518  0.2904
31352ION     NA48200  16.119  10.743  10.179  0.0341 -0.0259  0.0595
31353ION     NA48201   9.915  15.495   5.890  0.2206  0.1249 -0.1486
31354ION     NA48202  17.356   3.392  10.331  0.1196  0.3135 -0.1234
31355ION     NA48203  14.130   6.728   2.542 -0.1619  0.1090 -0.1573
31356ION     NA48204   2.701   9.645   5.773  0.1903  0.1667 -0.1214
31357ION     NA48205  17.415  14.372   5.408 -0.1682 -0.2349 -0.2735
31358ION     NA48206   1.635   8.376   5.702 -0.4012 -0.3384 -0.3441
31359ION     NA48207  17.172  13.484   5.346 -0.0522  0.0716 -0.0562
31360ION     NA48208  13.900   4.280   5.662 -0.0665 -0.0014  0.0074
31361ION     NA48209   5.164  10.034  15.493  0.0251  0.2692  0.2201
31362ION     NA48210   8.131  12.914   5.813  0.1859  0.0711 -0.4209
31363ION     NA48211   9.672  12.084   6.065 -0.1782 -0.3043 -0.1000
31364ION     NA48212   7.411  10.323   6.081 -0.0036 -0.1864 -0.0653
31365ION     NA48213   6.084  14.511   0.133 -0.1484 -0.0724  0.1025
31366ION     NA48214   3.638   7.035   5.539 -0.1959  0.1265  0.3128
31367ION     NA48215   5.383  13.218  10.310 -0.2045  0.1438  0.1455
31368ION     NA48216  11.614  14.789   1.613  0.3590  0.3765 -0.0144
31369ION     NA48217  16.459  11.271   2.492 -0.0491  0.1093 -0.1272
31370ION     NA48218  11.961   1.820  10.770 -0.1406 -0.1950 -0.1309
31371ION     NA48219  12.641   2.398  10.173 -0.0776 -0.2294  0.0154
31372ION     NA48220  15.959  17.980   5.237  0.4738  0.0660  0.0972
31373ION     NA48221   3.814  17.293  10.423  0.0327 -0.0325  0.1272
31374ION     NA48222  13.314   8.756   3.963  0.3017 -0.1546  0.1926
31375ION     NA48223  12.545   1.326  14.565  0.0703 -0.1620 -0.0955
31376ION     NA48224  10.507  17.786   5.800 -0.2148 -0.1340  0.0410
31377ION     NA48225  12.497   1.149   5.317  0.0106 -0.0264  0.0105
31378ION     NA48226   4.384   4.452   5.746  0.0617 -0.1623  0.6562
31379ION     NA48227   1.748   2.322  10.188 -0.0670 -0.1181  0.2603
31380ION     NA48228  12.729   2.268  10.728  0.2264  0.0943  0.0735
31381ION     NA48229   0.736   3.205   5.438  0.0737  0.1191  0.0394
31382ION     NA48230   4.711   8.961   5.930  0.0005 -0.1457  0.3565
31383ION     NA48231  17.224  16.037  13.048 -0.1587  0.0100 -0.0991
31384ION     NA48232   3.589   2.075   5.785  0.0183 -0.2844 -0.1807
31385ION     NA48233   7.298   5.352  16.049  0.2720 -0.1092  0.2008
31386ION     NA48234   0.105  16.650   5.231  0.1815 -0.1135 -0.0739
31387ION     NA48235   4.891  17.470  11.753 -0.1567 -0.2197 -0.1368
31388ION     NA48236  12.697   7.482   6.098 -0.0764 -0.0450 -0.1909
31389ION     NA48237   3.108   6.914   4.186 -0.1364  0.1686 -0.0082
31390ION     NA48238  14.280   5.086  10.402  0.2245  0.1868 -0.1079
31391ION     NA48239   8.010   7.084   5.847  0.3135 -0.0490  0.1022
31392ION     NA48240   4.165   0.616  10.265  0.3913 -0.0988  0.3494
31393ION     NA48241  16.214   8.642  13.514 -0.0121  0.4235 -0.1004
31394ION     NA48242   3.377   5.533  13.254 -0.1722 -0.0524 -0.3680
31395ION     NA48243   2.691  11.193   0.786 -0.0899 -0.1354  0.0823
31396ION     NA48244  17.835  14.324  15.354  0.2004  0.0671 -0.3487
31397ION     NA48245  10.115   1.233  13.104 -0.2258 -0.2892  0.0337
31398ION     NA48246  17.079   8.135   2.569 -0.0619 -0.3018  0.0149
31399ION     NA48247   3.019   3.274   5.981  0.0215  0.2406 -0.0064
31400ION     NA48248   1.520   7.168   5.360  0.1271 -0.0847  0.1165
31401ION     NA48249   4.190  14.945   5.655  0.1056  0.3406 -0.1936
31402ION     NA48250   4.894   5.030  10.631  0.1562 -0.1760  0.0458
31403ION     NA48251   3.262   4.303  10.309  0.2079 -0.1959 -0.1224
31404ION     NA48252   2.479  15.650   5.559  0.1837  0.2304 -0.0034
31405ION     NA48253   0.006  16.795  11.398 -0.3178 -0.4694  0.0803
31406ION     NA48254   9.209  13.378   1.029  0.1203 -0.1080 -0.0374
31407ION     NA48255   6.900  16.979  12.783 -0.2058  0.0977  0.3954
31408ION     NA48256   8.433  16.885  10.485 -0.1599  0.0799  0.2020
31409ION     NA48257  14.803  13.763  14.756  0.0541 -0.1380 -0.0609
31410ION     NA48258   9.028   3.766   2.632  0.1066  0.3824 -0.2369
31411ION     NA48259   4.997   7.202   5.917 -0.1683  0.1934  0.2088
31412ION     NA48260  17.013   7.798   6.258 -0.3168 -0.1910 -0.3571
31413ION     NA48261   1.149  16.924   5.182  0.0483  0.1938 -0.0367
31414ION     NA48262   2.265   7.414  11.424 -0.0160  0.0652 -0.4683
31415ION     NA48263   4.143  12.285   2.418  0.3065  0.3822 -0.0314
31416ION     NA48264  11.443   5.639   5.711  0.3121  0.1144  0.3187
31417ION     NA48265   7.286   7.412  10.707 -0.0247  0.2584 -0.1490
31418ION     NA48266   4.412  14.589  10.063 -0.0902  0.0215 -0.1763
31419ION     NA48267   1.607   2.361  11.008 -0.0506 -0.0682 -0.0861
31420ION     NA48268   2.164   8.267  10.890 -0.2891 -0.0597  0.1274
31421ION     NA48269   8.918   1.799   5.631 -0.1585 -0.0886  0.1140
31422ION     NA48270   3.168  13.069   5.429  0.2834  0.3165 -0.0803
31423ION     NA48271  14.395  15.017   5.830  0.2224  0.2230  0.1516
31424ION     NA48272  14.901  12.756  13.366  0.0442 -0.1216  0.1104
31425ION     NA48273   8.104  13.893  10.408  0.0690 -0.0732  0.0195
31426ION     NA48274   3.714  13.366  10.329 -0.0011  0.1171 -0.0254
31427ION     NA48275  16.283  15.919  15.684 -0.6472  0.0708 -0.1206
31428ION     NA48276  11.142   5.843  10.670 -0.4712  0.0869 -0.1246
31429ION     NA48277   2.121   0.189   5.684  0.4902 -0.0728 -0.0772
31430ION     NA48278   4.830  10.997  10.313  0.0891  0.1887 -0.1611
31431ION     NA48279  12.360   5.527   4.746  0.3269  0.4605 -0.0202
31432ION     NA48280   0.771   6.380  10.613 -0.0900 -0.2759  0.2730
31433ION     NA48281   9.271   6.701  14.421  0.0757 -0.5572  0.0515
31434ION     NA48282   4.094   6.575  13.661  0.3664 -0.0188 -0.1895
31435ION     NA48283   9.608   6.927  10.364  0.0154  0.1343 -0.1968
31436ION     NA48284   5.149   2.322   2.940 -0.0826  0.0510 -0.1244
31437ION     NA48285   2.040  10.811   5.685 -0.3077  0.3627  0.1101
31438ION     NA48286   0.089  14.868  12.082 -0.2026 -0.0785 -0.2005
31439ION     NA48287  16.315   4.016   5.324 -0.2944 -0.2332  0.1080
31440ION     NA48288  15.832   8.563  11.039  0.1043  0.0777  0.0011
31441ION     NA48289   8.122  12.208   6.139 -0.1119  0.1935 -0.1100
31442ION     NA48290  17.871   9.250   5.939  0.0037 -0.0506  0.1766
31443ION     NA48291   4.634  17.708   4.893  0.4483  0.0204 -0.2043
31444ION     NA48292   7.188  16.706  13.674  0.6043 -0.0069 -0.0086
31445ION     NA48293   2.571  12.218  10.324 -0.0620 -0.0706  0.3232
31446ION     NA48294  16.336   8.524   4.599  0.3791 -0.1194  0.3815
31447ION     NA48295  13.610  16.722   5.279  0.0691 -0.0731 -0.1176
31448ION     NA48296   9.936   2.160   5.678 -0.1507  0.2299  0.5492
31449ION     NA48297  13.431  13.324  10.765 -0.3073 -0.0702  0.1031
31450ION     NA48298   7.211   6.658  12.266  0.1803 -0.1681 -0.1108
31451ION     NA48299   1.342   7.928   3.392  0.0625 -0.0744  0.1671
31452ION     NA48300  11.107  11.479  13.310 -0.1826 -0.1209  0.0061
31453ION     NA48301   1.689   6.450   6.087  0.1768 -0.3883 -0.1272
31454ION     NA48302  13.427  16.603   3.700 -0.2825 -0.1683 -0.1716
31455ION     NA48303   2.502   8.453  13.695 -0.0573 -0.0205  0.2523
31456ION     NA48304   9.758   4.632  10.444  0.0413 -0.0603  0.2151
31457ION     NA48305  14.721  10.370   1.213  0.4252 -0.1927  0.2522
31458ION     NA48306  15.832   5.687   5.694  0.1618  0.2711 -0.0851
31459ION     NA48307  13.042   6.735   1.758 -0.0509  0.1231 -0.2487
31460ION     NA48308  15.805  16.203   4.324  0.2452  0.3238  0.0068
31461ION     NA48309  13.143  14.657   2.612  0.0460  0.0142  0.0486
31462ION     NA48310  10.417  16.337  10.478  0.0607 -0.3754 -0.1396
31463ION     NA48311   9.053  15.244  10.279 -0.2451 -0.0142  0.0193
31464ION     NA48312   6.449  13.426   1.215  0.0018 -0.0191  0.0685
31465ION     NA48313  16.438  14.059  10.602 -0.0787 -0.1690 -0.2151
31466ION     NA48314   2.890   1.587  13.134  0.3720 -0.0946  0.4685
31467ION     NA48315  12.051   5.480  10.488  0.2068 -0.1717 -0.1299
31468ION     NA48316  15.369  16.496  10.471  0.1795 -0.2588  0.1038
31469ION     NA48317  17.698   8.652   4.144  0.2804 -0.4438  0.2732
31470ION     NA48318   1.246  10.666   5.713 -0.0164 -0.0633  0.1539
31471ION     NA48319  13.674   3.295   5.462 -0.1640  0.1188 -0.1521
31472ION     NA48320   4.421   0.696   2.916 -0.0030  0.1103  0.1223
31473ION     NA48321  16.213  13.847   5.613  0.2841  0.1370  0.0966
31474ION     NA48322   0.606  17.673   5.421  0.1090 -0.0784 -0.0111
31475ION     NA48323   0.373   7.110   3.115  0.3877 -0.1143 -0.0846
31476ION     NA48324   4.604   4.019   1.631 -0.1427 -0.0700 -0.1678
31477ION     NA48325  10.073   1.050  10.041 -0.1823 -0.0846 -0.2516
31478ION     NA48326   2.931  12.962  10.642 -0.0669  0.0469 -0.4406
31479ION     NA48327   6.931  17.541  14.167 -0.2173  0.0215 -0.2734
31480ION     NA48328  15.542  12.119   3.354  0.0374 -0.0769 -0.2407
31481ION     NA48329  12.208  17.803   0.911 -0.1927 -0.0280  0.0793
31482ION     NA48330  11.059  14.219   5.983 -0.1171 -0.1542  0.0630
31483ION     NA48331  15.223   9.698  10.680 -0.0413  0.3049  0.0558
31484ION     NA48332   3.048  16.987  10.677 -0.2269 -0.1065  0.0198
31485ION     NA48333  18.008  17.729   9.982 -0.3090  0.1875  0.2070
31486ION     NA48334  14.637  11.093   3.006 -0.1324 -0.0358  0.1154
31487ION     NA48335  17.098   6.191  12.929  0.0741  0.0122  0.0932
31488ION     NA48336   7.532   7.755   3.659  0.2518 -0.1507 -0.1969
31489ION     NA48337  15.199   6.987   1.307  0.1885 -0.0917 -0.1384
31490ION     NA48338   6.262  18.044  14.898 -0.0801 -0.1974 -0.2083
31491ION     NA48339  14.472   1.225  11.479 -0.1088 -0.2018 -0.1610
31492ION     NA48340   7.788  17.670   5.709 -0.0491  0.2191 -0.2683
31493ION     NA48341   4.955  16.670   5.525  0.1661  0.0267  0.2347
31494ION     NA48342  16.460   1.506  10.003  0.1758  0.3998  0.1043
31495ION     NA48343   8.276  17.771   4.385 -0.1545 -0.3587 -0.1660
31496ION     NA48344   2.435   6.190   1.682  0.1684  0.0339  0.0033
31497ION     NA48345  12.415   6.365   1.393 -0.1144 -0.1709  0.0718
31498ION     NA48346   3.313  16.410   5.887  0.2022 -0.0961 -0.0435
31499ION     NA48347   5.899  13.106  10.321  0.1693 -0.0561  0.0298
31500ION     NA48348   0.231   5.700   6.074 -0.0771  0.1568 -0.1555
31501ION     NA48349   8.145  10.091  10.832 -0.1521  0.0314 -0.0772
31502ION     NA48350  11.099   4.690   5.696  0.1842  0.0205  0.1931
31503ION     NA48351  14.441  17.036  11.235  0.1967 -0.0164 -0.1507
31504ION     NA48352   1.945   6.398  10.366 -0.0285  0.0590 -0.4664
31505ION     NA48353   7.161   2.659  10.912 -0.0528 -0.0966 -0.0221
31506ION     NA48354   3.738   5.658  10.288  0.0859 -0.0975  0.0948
31507ION     NA48355  13.413  18.062  14.591 -0.0034 -0.1337 -0.1918
31508ION     NA48356  15.955  13.218   1.011 -0.1603  0.1706  0.1738
31509ION     NA48357   7.777  15.626  10.106 -0.0651  0.0874  0.1076
31510ION     NA48358   0.685  13.439   5.597  0.1853 -0.0436  0.2828
31511ION     NA48359  10.783   2.301  15.586 -0.1667 -0.1804 -0.2114
31512ION     NA48360   1.306   8.875   0.695 -0.0330  0.2410  0.1097
31513ION     NA48361   1.882   9.234   5.540  0.0271  0.0473 -0.1299
31514ION     NA48362  11.680   2.677   0.813 -0.1739  0.3303 -0.2682
31515ION     NA48363  14.420   0.623   5.324 -0.0956 -0.1997 -0.0365
31516ION     NA48364  17.484  13.878   0.930  0.2140 -0.0950 -0.0856
31517ION     NA48365   9.654  17.011  10.554  0.0940 -0.3077 -0.0883
31518ION     NA48366   2.460   6.524   3.420 -0.2481  0.0896  0.1322
31519ION     NA48367   9.364   0.616  10.438 -0.1413  0.1550 -0.1711
31520ION     NA48368   3.253   4.150  12.062  0.1290 -0.0825 -0.2491
31521ION     NA48369  16.135   4.233  10.122 -0.1056  0.1445 -0.1213
31522ION     NA48370  10.551  13.632   5.717 -0.3001  0.0594  0.0133
31523ION     NA48371   0.785   0.357  10.031  0.1952 -0.1217 -0.2587
31524ION     NA48372   1.997   8.865  10.466  0.1074  0.6298  0.1678
31525ION     NA48373   8.652  11.308   2.747  0.3163  0.1512  0.1338
31526ION     NA48374   6.912  15.963  14.316  0.0517  0.0024 -0.0936
31527ION     NA48375  17.492  15.363   5.549 -0.0508 -0.0535 -0.2073
31528ION     NA48376  13.764   0.216   5.624 -0.3078  0.0137 -0.2075
31529ION     NA48377   7.935   6.346  10.451  0.0082 -0.1165  0.2991
31530ION     NA48378   8.937  11.893   6.105 -0.1605 -0.0054  0.0793
31531ION     NA48379  12.323  10.226  13.985 -0.1126  0.1530 -0.1570
31532ION     NA48380  14.630  15.932  10.553 -0.1494 -0.1354  0.1214
31533ION     NA48381   0.989  16.402   4.465 -0.2646  0.0000 -0.1908
31534ION     NA48382   9.671  12.126   4.091  0.0915  0.1644 -0.2144
31535ION     NA48383  11.549  11.376   1.072  0.0005  0.1185 -0.3811
31536ION     NA48384   3.594   5.553  11.892  0.0265  0.2564  0.4425
31537ION     NA48385  16.188   9.273  10.663  0.4317  0.1614 -0.2359
31538ION     NA48386   0.686  10.791   0.615 -0.1649 -0.0829 -0.1566
31539ION     NA48387  13.097  10.252  10.678 -0.0612  0.0860  0.2800
31540ION     NA48388  17.367  12.676   5.753 -0.0848  0.2850 -0.2054
31541ION     NA48389  13.809  11.836  10.540  0.2714  0.0130  0.1276
31542ION     NA48390  13.016   0.340  10.381 -0.1141 -0.1252 -0.0658
31543ION     NA48391  10.133   5.629   6.367  0.2577  0.1452  0.0548
31544ION     NA48392   9.337  15.863   2.533 -0.0360 -0.2203  0.0021
31545ION     NA48393  17.415  15.526  15.096 -0.0840  0.0543  0.1110
31546ION     NA48394  16.838  12.348  10.572  0.0056  0.0691  0.2574
31547ION     NA48395  15.178  13.106   5.928  0.2118 -0.4958 -0.1422
31548ION     NA48396  14.897  13.217  10.422  0.1284  0.1261  0.1434
31549ION     NA48397  14.942  13.448   1.436  0.3563  0.1698 -0.3767
31550ION     NA48398  14.721   3.646   5.478  0.0605  0.0369  0.1846
31551ION     NA48399   9.031   7.608  10.366  0.1223 -0.0141 -0.2861
31552ION     NA48400  15.019   8.075  16.123  0.1203 -0.0845 -0.1426
31553ION     NA48401   3.936   8.218   5.262  0.0920 -0.0024  0.1687
31554ION     NA48402   2.710  14.144  14.417 -0.1199  0.1826 -0.2321
31555ION     NA48403  13.301  15.869  16.116  0.1466  0.0772 -0.1575
31556ION     NA48404   3.551   8.718  13.232 -0.0284 -0.3068 -0.2342
31557ION     NA48405  15.306   9.117   6.121  0.3969  0.0575 -0.1120
31558ION     NA48406   1.312   9.146   2.793  0.0763  0.2135  0.0195
31559ION     NA48407   8.467   3.430  10.873  0.0854 -0.2468 -0.2403
31560ION     NA48408   6.128  16.414  10.005 -0.1952  0.2060  0.0497
31561ION     NA48409   6.498  15.940   5.831  0.0864  0.4117  0.1023
31562ION     NA48410  15.445   4.560  10.055 -0.0256  0.1861  0.0010
31563ION     NA48411  12.873  12.240   2.050 -0.2184 -0.5062  0.0392
31564ION     NA48412  15.862   6.503  14.119  0.0869 -0.0793 -0.1807
31565ION     NA48413   2.733   3.725  16.074 -0.0293  0.1681  0.0205
31566ION     NA48414  16.267   1.950   5.210 -0.0561  0.3560 -0.2091
31567ION     NA48415  17.452  16.998  11.682  0.3355  0.2291  0.0136
31568ION     NA48416   3.345  16.457  13.520  0.0891 -0.1735  0.0869
31569ION     NA48417  12.010   6.841  10.642 -0.1197  0.1630  0.1453
31570ION     NA48418   5.600   0.977   2.264  0.1954  0.0513  0.2237
31571ION     NA48419  16.838   0.706  13.471 -0.1177 -0.1376  0.1011
31572ION     NA48420  11.438   7.171  15.028  0.0417 -0.3205 -0.2823
31573ION     NA48421  10.364   4.912  14.330  0.1510  0.0762 -0.0284
31574ION     NA48422  16.276   8.860  14.980  0.1623  0.3662 -0.0677
31575ION     NA48423  12.941   4.157   5.667  0.0210  0.2331  0.1458
31576ION     NA48424  14.932   0.871  10.464 -0.1296  0.1498  0.0136
31577ION     NA48425  12.633   9.666   5.743 -0.2149  0.3352  0.0569
31578ION     NA48426  10.233   8.605   5.942 -0.1030 -0.0858 -0.0637
31579ION     NA48427  16.711  14.864  13.974  0.0845 -0.2981 -0.0844
31580ION     NA48428  15.418  12.544   4.727 -0.2335 -0.0552  0.2509
31581ION     NA48429  16.291   5.118  10.189 -0.0608  0.0549 -0.0438
31582ION     NA48430   2.817   7.520   5.755  0.1065  0.2997  0.2099
31583ION     NA48431  15.900   1.831   2.565 -0.1843 -0.0289 -0.2515
31584ION     NA48432   7.203  10.125   3.004 -0.0697 -0.0259  0.0487
31585ION     NA48433   3.427   7.203  13.502  0.1656 -0.1847  0.2206
31586ION     NA48434  14.004  12.942   5.805 -0.0502  0.2658 -0.1047
31587ION     NA48435   6.430   2.715  13.874 -0.1968  0.1423 -0.1782
31588ION     NA48436  17.583  16.686   1.641  0.1550 -0.5071  0.0790
31589ION     NA48437   5.641   8.981   6.014 -0.1430  0.1969 -0.0317
31590ION     NA48438   0.397   7.325   1.906 -0.0107 -0.2913 -0.3249
31591ION     NA48439   6.506  10.054   1.037  0.0767 -0.2590 -0.0537
31592ION     NA48440   1.920  14.795  10.120  0.2975  0.0924 -0.0723
31593ION     NA48441   2.397  14.118   5.497 -0.0584  0.1201 -0.1605
31594ION     NA48442   1.385  14.103   5.417 -0.2189  0.0953 -0.0101
31595ION     NA48443   4.426  11.100   5.153 -0.1999 -0.0218  0.2344
31596ION     NA48444  15.154   6.871   6.091  0.1670 -0.0165  0.2746
31597ION     NA48445  16.953   7.304   5.967 -0.0342  0.4879 -0.2571
31598ION     NA48446   9.144  12.114  10.629  0.2610 -0.4217 -0.0360
31599ION     NA48447   1.071  17.108   2.847 -0.2762  0.1331  0.1648
31600ION     NA48448   4.371   6.204  10.349 -0.0225  0.0833 -0.0524
31601ION     NA48449  15.638  13.057  11.336 -0.0015  0.1193  0.1038
31602ION     NA48450  13.887   9.210  10.796 -0.0019  0.2227 -0.0006
31603ION     NA48451  12.909   9.948   6.088  0.1447 -0.1743 -0.0535
31604ION     NA48452   3.056  17.467   5.977 -0.0727 -0.2083 -0.2028
31605ION     NA48453   4.433   0.434  12.165  0.0211  0.1054  0.1491
31606ION     NA48454  13.086  18.047   4.514 -0.2843  0.2031 -0.0798
31607ION     NA48455  10.074  17.385   5.852  0.0776  0.0591  0.2216
31608ION     NA48456   4.585   8.025   5.975  0.0984  0.1861  0.1639
31609ION     NA48457  16.036  12.912  12.586  0.2124 -0.0967  0.2194
31610ION     NA48458   7.163  17.296  10.262  0.0048 -0.0437 -0.2012
31611ION     NA48459   3.989   9.220   5.367  0.0864  0.1472 -0.1137
31612ION     NA48460   1.740  17.841   0.400 -0.1144 -0.5747 -0.0455
31613ION     NA48461  14.213  10.032  16.017 -0.2380 -0.0487 -0.0472
31614ION     NA48462  10.117  11.634   2.436 -0.0215 -0.0226  0.0866
31615ION     NA48463  15.059   2.449  14.540  0.0722 -0.0560  0.1564
31616ION     NA48464  14.150   7.234  11.153  0.0661 -0.1266 -0.0164
31617ION     NA48465   6.892   8.072   5.974  0.1308  0.0452  0.0063
31618ION     NA48466   6.946   8.940   6.123  0.0173  0.1059 -0.2354
31619ION     NA48467  10.246   0.374  10.569 -0.1415 -0.0912 -0.4209
31620ION     NA48468  15.168   7.904  10.760 -0.3763 -0.3380 -0.1868
31621ION     NA48469  12.564   5.011   1.149 -0.0080 -0.4433 -0.0048
31622ION     NA48470   0.149   0.397   0.622  0.0319 -0.1874 -0.3022
31623ION     NA48471   8.998   4.742  10.622 -0.1332  0.1025 -0.0071
31624ION     NA48472   1.156  15.923   1.765  0.0578 -0.0288 -0.1814
31625ION     NA48473  10.231  14.481   5.862 -0.0576 -0.0496  0.0275
31626ION     NA48474   6.487   8.650   4.823  0.0035  0.0770  0.1268
31627ION     NA48475   3.432  15.563   5.642  0.1403 -0.1059  0.2939
31628ION     NA48476   1.853   6.062  13.062 -0.0602 -0.0690 -0.0501
31629ION     NA48477   5.871  15.191   9.958 -0.0091  0.0944  0.3140
31630ION     NA48478  14.057  10.458  15.494  0.2198 -0.1467 -0.1614
31631ION     NA48479  18.035   8.632  10.738 -0.1369  0.1517 -0.0441
31632ION     NA48480   3.664  12.758  13.094  0.0187 -0.0782 -0.0534
31633ION     NA48481  15.392  10.845   1.572 -0.2285 -0.2399 -0.2308
31634ION     NA48482   6.669   2.317  15.729  0.1872 -0.0385  0.1474
31635ION     NA48483   0.593  16.508   3.533 -0.1040 -0.1441  0.0903
31636ION     NA48484  16.867  15.675  11.575 -0.2301  0.0095 -0.0808
31637ION     NA48485   2.270   5.189   1.322 -0.2100 -0.1211 -0.0711
31638ION     NA48486  12.097   5.223   0.282 -0.1581 -0.1142  0.1302
31639ION     NA48487   3.418  10.373   5.632 -0.1933  0.2546  0.0535
31640ION     NA48488  10.022  16.493   5.795  0.0535 -0.1262  0.0049
31641ION     NA48489   8.903   8.085   1.070  0.1182 -0.2926  0.2325
31642ION     NA48490  13.032   0.127   2.332 -0.0082 -0.0090 -0.3110
31643ION     NA48491   1.063   4.200   5.763 -0.1755 -0.0206 -0.2839
31644ION     NA48492   7.592   0.789  15.717 -0.1767 -0.2608  0.2760
31645ION     NA48493  11.054   7.095  10.839  0.2476 -0.2406 -0.0840
31646ION     NA48494  17.257   8.480  10.437 -0.0572  0.0360  0.1189
31647ION     NA48495   5.198  16.760  10.108 -0.3511  0.4061 -0.1398
31648ION     NA48496   1.763  10.738   1.509  0.0365 -0.3145  0.1969
31649ION     NA48497  12.237  15.949  11.007 -0.2734 -0.0270 -0.2105
31650ION     NA48498   0.801   1.264   5.827 -0.0137 -0.0528  0.3126
31651ION     NA48499  10.310   2.153   4.800  0.1105 -0.0535  0.3086
31652ION     NA48500   9.043   9.788   0.337  0.3471  0.1921  0.3969
31653ION     NA48501  16.833   6.143   0.092  0.0500  0.0836 -0.1198
31654ION     NA48502  13.320   5.048   5.665 -0.0049 -0.0216 -0.4841
31655ION     NA48503  13.055  12.444   4.963  0.0676  0.0766 -0.1101
31656ION     NA48504  10.751  11.055   4.475 -0.1007  0.1534  0.1958
31657ION     NA48505   8.292   3.815  10.472 -0.2514  0.4263 -0.2393
31658ION     NA48506   4.798  11.279   5.913 -0.2396 -0.1205  0.2454
31659ION     NA48507   9.481   7.899  10.430 -0.1609  0.1679 -0.0899
31660ION     NA48508  11.792  10.792  10.592 -0.3364 -0.0481  0.0610
31661ION     NA48509   6.811   0.200  10.332 -0.1469  0.3047 -0.1323
31662ION     NA48510  17.438  17.105   5.257  0.1077 -0.1743  0.2260
31663ION     NA48511  14.009   5.931  10.478 -0.0538  0.1182  0.0744
31664ION     NA48512   2.661  18.213   2.946 -0.0744  0.1172  0.3772
31665ION     NA48513  14.885  10.020   6.187  0.2575  0.1633  0.1078
31666ION     NA48514   7.730   7.960   6.135 -0.2776  0.2020 -0.0005
31667ION     NA48515   6.421  14.652  10.081 -0.1000 -0.0024  0.0787
31668ION     NA48516  18.049  14.639  10.174  0.0879  0.1298  0.6209
31669ION     NA48517  16.547  16.482  14.179 -0.1462  0.2367  0.2616
31670ION     NA48518  15.329   6.155  10.370 -0.3594 -0.0087  0.1931
31671ION     NA48519   6.519  12.377  10.413  0.1031  0.0079 -0.0652
31672ION     NA48520   6.290   8.232  14.211  0.0557  0.0788 -0.1284
31673ION     NA48521  10.864   8.931  15.217 -0.0017 -0.0778 -0.1330
31674ION     NA48522   5.821  14.996  14.374  0.0054 -0.1294  0.2117
31675ION     NA48523   4.694   4.938  13.494 -0.0031  0.1868  0.2171
31676ION     NA48524   9.637  10.597   1.626  0.0180 -0.0297 -0.2211
31677ION     NA48525  18.180   3.370  10.566  0.0753 -0.0966 -0.0350
31678ION     NA48526  16.455   6.392   5.933 -0.2603 -0.1631  0.0862
31679ION     NA48527  10.508  11.368   5.955 -0.2971  0.1533  0.0137
31680ION     NA48528   0.080  14.853  16.056 -0.0999  0.3099 -0.2347
31681ION     NA48529   5.213   8.592   6.059 -0.0966 -0.1817 -0.1688
31682ION     NA48530  14.103  10.091   5.930  0.1995  0.0547  0.1706
31683ION     NA48531   5.691  12.329   2.810  0.0460  0.1803 -0.0846
31684ION     NA48532   5.424  13.761   5.413 -0.3106 -0.0725  0.1283
31685ION     NA48533   4.376  16.548  10.222  0.0939 -0.2682 -0.2101
31686ION     NA48534  12.515   8.518   1.445  0.0775  0.0619 -0.0711
31687ION     NA48535  12.193   5.956  10.639  0.1663  0.0342 -0.2075
31688ION     NA48536   8.154   9.190  15.123 -0.0200 -0.0286 -0.1796
31689ION     NA48537   5.248  15.715  10.184 -0.1097 -0.0148  0.0676
31690ION     NA48538   4.999  11.773  13.675  0.3793 -0.2404  0.0189
31691ION     NA48539   8.641   5.202   0.429  0.0426  0.2001 -0.1575
31692ION     NA48540  13.235  17.601   5.419  0.0572  0.4140 -0.2101
31693ION     NA48541  12.443   1.863  15.465  0.0522  0.0808  0.0334
31694ION     NA48542   7.675   7.202   2.216 -0.0014  0.6884 -0.3516
31695ION     NA48543  12.651   3.045   3.907  0.2130 -0.1177 -0.1798
31696ION     NA48544  12.072   5.863  14.046  0.0180 -0.0867 -0.3321
31697ION     NA48545   0.080   2.599   5.721 -0.0076  0.4771  0.1595
31698ION     NA48546   8.828   7.534  13.391  0.2662 -0.0810 -0.0931
31699ION     NA48547  17.086  17.357   3.794  0.0430  0.3339  0.2336
31700ION     NA48548  15.239   2.723   9.956 -0.1450  0.0375  0.1367
31701ION     NA48549   1.932  12.338  13.026  0.3468 -0.0200 -0.3987
31702ION     NA48550  14.243   8.068  14.373 -0.1051  0.2204  0.1677
31703ION     NA48551  11.099   3.169  10.487 -0.0317 -0.2067  0.1778
31704ION     NA48552  16.594   5.822   4.883 -0.1037 -0.2165  0.0973
31705ION     NA48553   1.550  11.522   5.625 -0.0436 -0.2549  0.0531
31706ION     NA48554   7.609   3.765   2.887 -0.0066  0.3342  0.1418
31707ION     NA48555  17.342  17.906   1.061 -0.1345 -0.2011 -0.0800
31708ION     NA48556  15.395  12.094  10.556  0.0571 -0.5636 -0.2007
31709ION     NA48557   8.643   9.068   0.873  0.2327  0.0766 -0.0767
31710ION     NA48558   3.768   4.801  14.940  0.0137 -0.0553  0.0938
31711ION     NA48559   5.365  15.040   5.773 -0.1200 -0.0986 -0.1044
31712ION     NA48560   2.617  10.400   0.703 -0.1036 -0.1578 -0.1054
31713ION     NA48561   3.396   2.783  13.257  0.0745  0.1559  0.0410
31714ION     NA48562   4.351  12.347  14.068 -0.2132 -0.0950  0.2954
31715ION     NA48563   9.803  13.533   0.177 -0.1362  0.0695 -0.0336
31716ION     NA48564   5.740   0.914   5.810  0.1114  0.2238  0.2306
31717ION     NA48565  11.020  14.295   3.070 -0.0860  0.1350 -0.0058
31718ION     NA48566   7.884   1.790   2.453  0.0728  0.0452 -0.1559
  18.22218  18.22218  16.12360
