INSANE! Membrane UpperLeaflet>loPI:POPI:DPPI:PYPI:ERGO=20.0:5.0:3.0:2.0:10.0 LowerLeaflet>loPI:POPI:DPPI:PYPI:ERGO=20.0:5.0:3.0:2.0:10.0
48566
    1loPI    C1    1  14.845   3.469  10.619  0.0798  0.1328 -0.0012
    1loPI    C2    2  14.717   3.605  10.973 -0.0647  0.2103 -0.0821
    1loPI    C3    3  15.104   3.520  10.919 -0.0128  0.3637  0.0420
    1loPI   PO4    4  14.843   3.610  10.473  0.1745 -0.0697  0.0182
    1loPI   GL1    5  14.993   3.757  10.073 -0.4350 -0.1453  0.2447
    1loPI   GL2    6  14.786   3.983  10.136 -0.1321 -0.1016 -0.0457
    1loPI   C1A    7  14.928   3.588   9.717 -0.0070  0.1253  0.2284
    1loPI   C2A    8  14.840   3.505   9.453  0.0792 -0.1932  0.2677
    1loPI   C3A    9  14.790   3.571   9.104 -0.2065  0.2630  0.2818
    1loPI   C4A   10  14.807   3.508   8.719 -0.0654  0.5386 -0.1020
    1loPI   C5A   11  14.673   3.427   8.306 -0.1240 -0.0168 -0.0896
    1loPI   C6A   12  14.913   3.076   7.992  0.2303 -0.0961 -0.0754
    1loPI   C1B   13  14.713   4.019   9.702  0.0959 -0.2039  0.1823
    1loPI   C2B   14  14.599   4.057   9.234  0.0223  0.0292  0.0101
    1loPI   C3B   15  14.498   4.058   8.821  0.0683  0.2027 -0.0511
    1loPI   C4B   16  14.645   3.987   8.510  0.0255  0.0767  0.1684
    2loPI    C1   17  15.432  15.257  10.923  0.1969  0.0661  0.1628
    2loPI    C2   18  15.577  15.556  10.701  0.3926  0.0667  0.2895
    2loPI    C3   19  15.534  15.603  11.096 -0.1516  0.1403  0.2292
    2loPI   PO4   20  15.416  15.080  10.758  0.0577  0.1077  0.1630
    2loPI   GL1   21  15.449  15.168  10.284  0.2701  0.2097  0.0831
    2loPI   GL2   22  15.662  14.995  10.019  0.0089 -0.1121  0.1041
    2loPI   C1A   23  15.408  15.551   9.901 -0.0841 -0.0921 -0.2576
    2loPI   C2A   24  15.621  15.644   9.514 -0.0301 -0.1119 -0.0734
    2loPI   C3A   25  15.502  15.556   9.051 -0.0805 -0.1669 -0.2384
    2loPI   C4A   26  15.347  15.641   8.614 -0.0395 -0.0168  0.0029
    2loPI   C5A   27  15.070  15.458   8.637  0.0637 -0.0482 -0.0456
    2loPI   C6A   28  15.043  15.150   8.945  0.1671 -0.0626 -0.1391
    2loPI   C1B   29  15.776  15.163   9.536  0.1483  0.0897  0.0713
    2loPI   C2B   30  15.572  15.064   9.045 -0.3553 -0.3292 -0.3680
    2loPI   C3B   31  15.451  15.118   8.660  0.0410  0.3294 -0.1916
    2loPI   C4B   32  15.128  14.984   8.318 -0.0741 -0.3399 -0.0734
    3loPI    C1   33   4.851   3.296  10.851 -0.1985  0.0863  0.1038
    3loPI    C2   34   4.987   3.672  10.838  0.0310  0.0034  0.0526
    3loPI    C3   35   4.962   3.480  11.188  0.1025 -0.0011  0.0554
    3loPI   PO4   36   5.003   3.211  10.633 -0.0836  0.1006 -0.0301
    3loPI   GL1   37   5.336   2.917  10.300  0.1048 -0.1575 -0.2653
    3loPI   GL2   38   5.612   2.731  10.277  0.0166 -0.1163  0.1244
    3loPI   C1A   39   5.256   2.898   9.878 -0.1399  0.1431  0.0138
    3loPI   C2A   40   5.463   2.709   9.556 -0.0353  0.5190  0.0216
    3loPI   C3A   41   5.555   2.755   9.156 -0.0668 -0.0970 -0.0099
    3loPI   C4A   42   5.906   2.973   9.032 -0.3054 -0.1007  0.0826
    3loPI   C5A   43   6.132   3.077   8.749 -0.1743 -0.3585  0.4135
    3loPI   C6A   44   6.386   3.304   8.541  0.0612 -0.1894  0.2396
    3loPI   C1B   45   5.624   2.386  10.016 -0.0335 -0.2881 -0.1396
    3loPI   C2B   46   5.656   2.179   9.659  0.1346  0.4169  0.0933
    3loPI   C3B   47   5.572   2.239   9.251  0.1065  0.2127  0.0290
    3loPI   C4B   48   5.423   2.374   8.846 -0.1805 -0.2356  0.2964
    4loPI    C1   49   7.249   5.180  10.928  0.1499  0.2129  0.2756
    4loPI    C2   50   7.573   4.955  10.862  0.0871  0.2141 -0.0492
    4loPI    C3   51   7.315   4.853  11.150  0.0239 -0.1713 -0.2358
    4loPI   PO4   52   7.225   5.256  10.720 -0.1382 -0.0943 -0.0154
    4loPI   GL1   53   7.092   5.142  10.362  0.1962 -0.0339 -0.1361
    4loPI   GL2   54   6.826   5.147  10.241 -0.0217  0.1234 -0.3301
    4loPI   C1A   55   7.258   5.345   9.969 -0.1120  0.1873 -0.0554
    4loPI   C2A   56   7.334   5.595   9.612  0.1716  0.3026  0.0820
    4loPI   C3A   57   7.136   5.755   9.305 -0.1770  0.1868 -0.2022
    4loPI   C4A   58   7.087   5.679   8.905 -0.2779  0.0573  0.1672
    4loPI   C5A   59   7.147   5.819   8.382  0.3853  0.0977 -0.0503
    4loPI   C6A   60   6.706   5.994   8.324 -0.0950 -0.1806  0.2823
    4loPI   C1B   61   6.747   4.935   9.859  0.0894  0.2059 -0.2371
    4loPI   C2B   62   6.796   4.822   9.335 -0.2693  0.2255 -0.2859
    4loPI   C3B   63   6.716   4.694   8.954  0.0264 -0.0271  0.2206
    4loPI   C4B   64   6.657   4.697   8.547  0.1410 -0.1946  0.2218
    5loPI    C1   65  15.803   0.703  10.687  0.3644  0.0020  0.2553
    5loPI    C2   66  15.666   0.925  10.991 -0.0700  0.0141  0.0585
    5loPI    C3   67  15.835   0.569  11.063  0.2058  0.1974  0.3402
    5loPI   PO4   68  15.667   0.813  10.474 -0.0697  0.0453  0.1626
    5loPI   GL1   69  15.582   0.620  10.009  0.0698 -0.0671 -0.0626
    5loPI   GL2   70  15.798   0.512  10.063 -0.0492 -0.0929  0.3969
    5loPI   C1A   71  15.621   0.733   9.663 -0.1908 -0.2972  0.2963
    5loPI   C2A   72  15.734   0.728   9.315 -0.0817  0.0859  0.0963
    5loPI   C3A   73  15.828   0.613   8.944 -0.0920  0.0582  0.0849
    5loPI   C4A   74  15.983   0.601   8.630  0.0864  0.2579  0.1417
    5loPI   C5A   75  16.428   0.457   8.464  0.3016 -0.2465  0.4971
    5loPI   C6A   76  16.617   0.353   8.063 -0.1159  0.1669 -0.0732
    5loPI   C1B   77  15.986   0.383   9.608  0.0356 -0.0368  0.0384
    5loPI   C2B   78  16.344   0.541   9.376  0.0469 -0.2203  0.0007
    5loPI   C3B   79  16.357   0.740   9.000 -0.0342 -0.0358  0.0241
    5loPI   C4B   80  16.697   0.934   8.838  0.0056 -0.4694  0.2392
    6loPI    C1   81   3.747  10.043  10.858  0.0380  0.0726 -0.1597
    6loPI    C2   82   3.879  10.371  11.043 -0.1022  0.0855 -0.0813
    6loPI    C3   83   3.699  10.082  11.253  0.0188 -0.0410 -0.1505
    6loPI   PO4   84   3.851  10.051  10.621  0.1961  0.2074 -0.3371
    6loPI   GL1   85   3.758   9.799  10.304  0.2382  0.0226  0.3296
    6loPI   GL2   86   3.970   9.543  10.153 -0.3422 -0.3301 -0.1121
    6loPI   C1A   87   3.934  10.025   9.922 -0.1654 -0.1823 -0.1444
    6loPI   C2A   88   3.966   9.973   9.460 -0.1747  0.3559  0.4017
    6loPI   C3A   89   4.079   9.906   9.015  0.0467  0.0020  0.2711
    6loPI   C4A   90   4.008   9.888   8.606  0.2175  0.0317  0.0995
    6loPI   C5A   91   4.090   9.957   8.107 -0.0229  0.3017 -0.0023
    6loPI   C6A   92   4.040  10.091   7.685 -0.0091  0.2879 -0.0072
    6loPI   C1B   93   4.089   9.495   9.697 -0.0557 -0.0498  0.0547
    6loPI   C2B   94   4.097   9.495   9.359 -0.0797 -0.0570 -0.0670
    6loPI   C3B   95   4.354   9.467   8.983  0.0878  0.1548  0.3041
    6loPI   C4B   96   4.424   9.127   8.616 -0.0414 -0.0356 -0.0072
    7loPI    C1   97  15.115  11.540  10.781 -0.1514 -0.0782  0.1694
    7loPI    C2   98  15.433  11.749  10.906 -0.2904  0.1754  0.1043
    7loPI    C3   99  15.424  11.352  10.953  0.1166  0.1423 -0.0606
    7loPI   PO4  100  15.118  11.658  10.438  0.1623  0.0646 -0.1399
    7loPI   GL1  101  15.095  11.938  10.158 -0.1386 -0.1660  0.3305
    7loPI   GL2  102  15.276  12.126  10.088  0.1300  0.0028 -0.0836
    7loPI   C1A  103  14.707  12.164  10.094  0.0482  0.2416 -0.1869
    7loPI   C2A  104  14.619  12.201   9.623  0.2718  0.0244 -0.0692
    7loPI   C3A  105  14.769  12.114   9.201 -0.4626 -0.1849  0.0323
    7loPI   C4A  106  14.951  12.258   8.905  0.1633 -0.3071  0.0251
    7loPI   C5A  107  14.907  12.528   8.530 -0.2973 -0.0478  0.0827
    7loPI   C6A  108  15.122  12.498   8.076 -0.1674 -0.1573 -0.0538
    7loPI   C1B  109  15.168  11.980   9.670  0.1348  0.2786  0.1493
    7loPI   C2B  110  15.183  11.862   9.181  0.0358  0.1947 -0.1705
    7loPI   C3B  111  15.210  11.856   8.686  0.5563 -0.1541 -0.0853
    7loPI   C4B  112  15.339  12.104   8.249  0.0837  0.0612 -0.2277
    8loPI    C1  113  16.245  10.282   9.999  0.1392  0.0155 -0.0551
    8loPI    C2  114  16.379  10.355  10.369  0.1807  0.1092 -0.0883
    8loPI    C3  115  16.315  10.658  10.116  0.2130  0.0407 -0.1790
    8loPI   PO4  116  16.385   9.957  10.047 -0.2310  0.2942  0.1367
    8loPI   GL1  117  16.405   9.544   9.718 -0.0177  0.4488  0.1102
    8loPI   GL2  118  16.118   9.750   9.569 -0.0576  0.1862  0.1271
    8loPI   C1A  119  16.682   9.469   9.320  0.0534 -0.2839 -0.1705
    8loPI   C2A  120  16.880   9.475   8.909 -0.1055  0.1168 -0.0243
    8loPI   C3A  121  17.082   9.461   8.449  0.0027 -0.3320  0.2938
    8loPI   C4A  122  17.539   9.617   8.228 -0.0196 -0.0215 -0.2181
    8loPI   C5A  123  17.796   9.639   7.863 -0.2832  0.1298  0.3806
    8loPI   C6A  124  18.192   9.711   7.728 -0.3411 -0.2198 -0.1686
    8loPI   C1B  125  16.191   9.465   9.186  0.0902  0.0210  0.1575
    8loPI   C2B  126  16.130   9.265   8.870  0.2734 -0.2059  0.0468
    8loPI   C3B  127  16.135   9.178   8.492 -0.3586  0.1382 -0.0407
    8loPI   C4B  128  16.222   9.087   8.146  0.2133  0.3973  0.2464
    9loPI    C1  129  13.067  12.241  10.870 -0.1244 -0.0150 -0.1678
    9loPI    C2  130  13.186  11.895  11.031 -0.1349  0.0459 -0.0277
    9loPI    C3  131  12.911  12.118  11.217 -0.0192  0.2023 -0.0408
    9loPI   PO4  132  13.156  12.285  10.575 -0.2370 -0.0094  0.1273
    9loPI   GL1  133  13.334  12.356  10.172  0.2406  0.1305  0.1342
    9loPI   GL2  134  13.647  12.330  10.178  0.1860  0.1328  0.2452
    9loPI   C1A  135  13.165  12.237   9.761 -0.0832  0.2808 -0.0475
    9loPI   C2A  136  13.119  12.252   9.340 -0.0216  0.1598  0.0971
    9loPI   C3A  137  12.990  12.211   8.927 -0.1363 -0.0624 -0.0652
    9loPI   C4A  138  12.890  12.233   8.522  0.1547 -0.2394  0.1727
    9loPI   C5A  139  12.561  12.133   8.245  0.0755 -0.2410  0.0510
    9loPI   C6A  140  12.157  12.048   8.241 -0.0080  0.1921  0.0256
    9loPI   C1B  141  13.782  12.324   9.732  0.0077  0.3242  0.2269
    9loPI   C2B  142  13.811  12.400   9.313 -0.3495 -0.3808 -0.2213
    9loPI   C3B  143  13.750  12.389   8.824 -0.1366 -0.1107  0.0955
    9loPI   C4B  144  13.960  12.419   8.413  0.1255  0.1100 -0.0787
   10loPI    C1  145  12.628  16.716  10.624  0.0681 -0.2498  0.0751
   10loPI    C2  146  12.472  16.965  10.353 -0.0767 -0.5084 -0.0835
   10loPI    C3  147  12.314  16.945  10.719  0.2692  0.0182  0.1067
   10loPI   PO4  148  12.662  16.486  10.487 -0.0041 -0.3883 -0.1838
   10loPI   GL1  149  12.580  16.482  10.042 -0.2938 -0.4695 -0.0785
   10loPI   GL2  150  12.330  16.433   9.931 -0.1075 -0.0528  0.1062
   10loPI   C1A  151  12.928  16.505   9.716 -0.3527 -0.0998  0.1678
   10loPI   C2A  152  13.095  16.398   9.330  0.0332 -0.2184 -0.0739
   10loPI   C3A  153  13.148  16.279   9.067 -0.2745  0.2267 -0.1361
   10loPI   C4A  154  13.183  16.511   8.644  0.1343 -0.1802  0.0263
   10loPI   C5A  155  13.160  16.724   8.239 -0.1548  0.2097 -0.1568
   10loPI   C6A  156  13.196  16.946   7.896 -0.3375 -0.0962  0.2637
   10loPI   C1B  157  12.407  16.564   9.526 -0.2209  0.0137  0.0737
   10loPI   C2B  158  12.673  16.624   9.083  0.1144 -0.4103  0.2789
   10loPI   C3B  159  12.739  16.341   8.662  0.0952 -0.0116 -0.3051
   10loPI   C4B  160  12.909  16.296   8.286 -0.0080 -0.2719 -0.1808
   11loPI    C1  161  16.401   1.959  10.448  0.0092 -0.2716 -0.0285
   11loPI    C2  162  16.074   1.938  10.218  0.0093  0.0321 -0.0609
   11loPI    C3  163  16.071   2.160  10.551  0.2081  0.1029 -0.1049
   11loPI   PO4  164  16.641   2.121  10.298 -0.1822 -0.2041  0.4023
   11loPI   GL1  165  16.767   2.145   9.799 -0.1770  0.1584 -0.4715
   11loPI   GL2  166  16.906   1.848   9.890  0.0049  0.0673  0.0787
   11loPI   C1A  167  16.837   2.295   9.388  0.1774 -0.0317  0.1010
   11loPI   C2A  168  16.763   2.308   8.867 -0.2698  0.3048  0.2566
   11loPI   C3A  169  16.715   2.342   8.505 -0.2846  0.2669  0.0398
   11loPI   C4A  170  16.627   2.096   8.182  0.1131  0.0578  0.4147
   11loPI   C5A  171  16.511   1.994   7.806 -0.1361 -0.3431  0.3036
   11loPI   C6A  172  16.717   1.702   7.545 -0.1135  0.0242 -0.1394
   11loPI   C1B  173  16.796   1.766   9.510  0.0526 -0.2643  0.0384
   11loPI   C2B  174  16.907   1.894   9.108 -0.2709  0.1423  0.1695
   11loPI   C3B  175  17.167   2.013   8.777 -0.0017 -0.1161 -0.0170
   11loPI   C4B  176  17.207   2.085   8.400  0.1708  0.0059 -0.1592
   12loPI    C1  177  15.730  17.631  10.518 -0.2153 -0.0853 -0.0996
   12loPI    C2  178  15.438  17.693  10.785 -0.1298  0.1792 -0.0649
   12loPI    C3  179  15.695  17.987  10.697  0.0186  0.0038 -0.2272
   12loPI   PO4  180  15.683  17.511  10.340 -0.2264  0.1085 -0.1919
   12loPI   GL1  181  15.328  17.357  10.097  0.0044 -0.3206 -0.1773
   12loPI   GL2  182  15.125  17.010  10.135 -0.1725  0.2262  0.1721
   12loPI   C1A  183  15.326  17.724   9.904  0.2496  0.0468  0.1506
   12loPI   C2A  184  15.341  17.835   9.443 -0.2665 -0.0099 -0.2296
   12loPI   C3A  185  15.278  17.826   8.990  0.2589 -0.3747  0.0568
   12loPI   C4A  186  15.153  17.892   8.712 -0.0881 -0.0092 -0.3157
   12loPI   C5A  187  15.040  17.864   8.255 -0.2207 -0.0396 -0.0462
   12loPI   C6A  188  14.774  17.789   7.947 -0.1079 -0.2264 -0.0920
   12loPI   C1B  189  15.238  16.967   9.693  0.1720 -0.2524 -0.0122
   12loPI   C2B  190  15.320  16.767   9.336  0.2353 -0.0176  0.1532
   12loPI   C3B  191  15.376  16.657   8.970  0.3179 -0.2738 -0.3144
   12loPI   C4B  192  15.740  16.435   8.772 -0.2141  0.0749  0.3696
   13loPI    C1  193   0.816  15.414  10.752  0.2588 -0.3080 -0.0456
   13loPI    C2  194   0.808  15.042  10.897 -0.3473 -0.2843  0.0112
   13loPI    C3  195   0.545  15.312  11.029  0.1372  0.1950  0.0304
   13loPI   PO4  196   0.851  15.324  10.468  0.0179 -0.2088 -0.1997
   13loPI   GL1  197   0.849  15.434  10.015 -0.2742 -0.1330 -0.0731
   13loPI   GL2  198   0.960  15.131  10.025  0.2039 -0.2634  0.1677
   13loPI   C1A  199   0.708  15.466   9.560  0.1541  0.0137 -0.2689
   13loPI   C2A  200   0.583  15.787   9.255  0.1355 -0.0279 -0.2529
   13loPI   C3A  201   0.657  15.746   8.887  0.0956  0.4065 -0.4322
   13loPI   C4A  202   0.619  15.461   8.555 -0.1077 -0.1631 -0.1319
   13loPI   C5A  203   0.551  15.560   8.063 -0.2234 -0.2406  0.0883
   13loPI   C6A  204   0.571  16.022   7.860 -0.1426 -0.2371 -0.1452
   13loPI   C1B  205   0.982  14.997   9.677 -0.1361 -0.0755 -0.1340
   13loPI   C2B  206   0.974  15.037   9.179 -0.2159 -0.0106 -0.1447
   13loPI   C3B  207   1.051  15.363   8.850 -0.2699 -0.2152  0.2196
   13loPI   C4B  208   1.364  15.529   8.648  0.1474  0.1281  0.3132
   14loPI    C1  209   8.172   0.126  10.761 -0.0912  0.0519  0.0881
   14loPI    C2  210   8.191  -0.092  10.426  0.0664  0.1529  0.0305
   14loPI    C3  211   8.461  -0.147  10.716  0.0442  0.1985  0.0600
   14loPI   PO4  212   7.966   0.210  10.737 -0.2710 -0.1217  0.2273
   14loPI   GL1  213   7.848   0.316  10.362 -0.0966 -0.1037 -0.1141
   14loPI   GL2  214   7.648   0.157  10.133 -0.1165 -0.0369 -0.2087
   14loPI   C1A  215   8.030   0.299   9.950  0.2750  0.2505 -0.0512
   14loPI   C2A  216   7.933   0.351   9.567 -0.0106  0.0953  0.3670
   14loPI   C3A  217   7.891   0.545   9.173  0.0323 -0.3008 -0.0597
   14loPI   C4A  218   7.752   0.601   8.714 -0.3274  0.2087 -0.3597
   14loPI   C5A  219   7.605   0.490   8.374  0.0277 -0.2116 -0.2564
   14loPI   C6A  220   7.271   0.224   8.212 -0.1676  0.0780  0.1689
   14loPI   C1B  221   7.485   0.198   9.771  0.0380  0.0043  0.0866
   14loPI   C2B  222   7.513   0.315   9.354 -0.4576  0.0999 -0.1327
   14loPI   C3B  223   7.498   0.210   8.836 -0.0444 -0.0826  0.0504
   14loPI   C4B  224   7.636   0.024   8.480  0.1721  0.1708 -0.3402
   15loPI    C1  225  12.049   8.406  10.338 -0.2474 -0.2504  0.1465
   15loPI    C2  226  12.157   8.277  10.701 -0.2817 -0.4005  0.1042
   15loPI    C3  227  12.435   8.398  10.441 -0.2720 -0.0887  0.2553
   15loPI   PO4  228  11.832   8.455  10.274  0.1013  0.1455 -0.0145
   15loPI   GL1  229  11.595   8.374   9.898 -0.0715  0.3904 -0.1090
   15loPI   GL2  230  11.955   8.372   9.816  0.1006 -0.1403  0.0064
   15loPI   C1A  231  11.616   8.607   9.559  0.0452 -0.0742 -0.0251
   15loPI   C2A  232  11.509   8.579   9.254  0.0576  0.1355 -0.0376
   15loPI   C3A  233  11.576   8.582   8.897 -0.0358 -0.2950  0.0644
   15loPI   C4A  234  11.621   8.502   8.420  0.0816  0.4105 -0.0740
   15loPI   C5A  235  11.247   8.587   8.141  0.0610 -0.1348 -0.2570
   15loPI   C6A  236  10.966   8.242   7.773  0.2767 -0.0261 -0.1687
   15loPI   C1B  237  12.075   8.517   9.348 -0.2094  0.1514  0.2370
   15loPI   C2B  238  12.101   8.608   8.915  0.0874  0.0551 -0.1005
   15loPI   C3B  239  12.514   8.605   8.638  0.0293 -0.0429 -0.0154
   15loPI   C4B  240  12.920   8.579   8.351  0.0992  0.1847 -0.1865
   16loPI    C1  241   4.317  10.177  10.968 -0.3413 -0.1400  0.1571
   16loPI    C2  242   4.595  10.232  11.250 -0.1296  0.1291 -0.0977
   16loPI    C3  243   4.234  10.092  11.350  0.0868 -0.2073  0.2399
   16loPI   PO4  244   4.529  10.336  10.751  0.0932 -0.0003 -0.1150
   16loPI   GL1  245   4.594  10.428  10.375 -0.1051 -0.0243 -0.0427
   16loPI   GL2  246   4.707  10.692  10.351 -0.0436  0.0254 -0.1263
   16loPI   C1A  247   4.628  10.484   9.873  0.1532  0.1742 -0.0686
   16loPI   C2A  248   4.579  10.481   9.436 -0.3031  0.2433  0.0839
   16loPI   C3A  249   4.620  10.509   9.046  0.0331  0.1450  0.0660
   16loPI   C4A  250   4.688  10.508   8.613  0.1043  0.0042 -0.3093
   16loPI   C5A  251   4.541  10.581   8.188  0.1827  0.1548  0.0544
   16loPI   C6A  252   4.098  10.464   8.016 -0.1135  0.0493  0.0296
   16loPI   C1B  253   5.045  10.640  10.030  0.0592  0.1805  0.0044
   16loPI   C2B  254   5.071  10.636   9.547 -0.0917 -0.1370 -0.0754
   16loPI   C3B  255   5.074  10.683   9.108 -0.2509  0.1367  0.1104
   16loPI   C4B  256   5.160  10.663   8.701  0.1613 -0.2313 -0.0116
   17loPI    C1  257  15.697   9.145  10.249 -0.3116  0.1278  0.1937
   17loPI    C2  258  16.048   9.261  10.402 -0.0394 -0.2016 -0.1617
   17loPI    C3  259  15.759   9.126  10.644  0.0636  0.0989  0.1363
   17loPI   PO4  260  15.767   9.045  10.014 -0.1901 -0.2876 -0.1070
   17loPI   GL1  261  16.062   9.093   9.657 -0.0626 -0.0044 -0.1865
   17loPI   GL2  262  15.768   9.210   9.567 -0.3666  0.2085  0.0771
   17loPI   C1A  263  16.411   9.034   9.383 -0.3657 -0.1058  0.0927
   17loPI   C2A  264  16.547   9.068   8.974 -0.2866  0.0480  0.3053
   17loPI   C3A  265  16.672   9.193   8.547 -0.2200 -0.0834  0.0540
   17loPI   C4A  266  16.719   9.249   8.119  0.2110 -0.0806 -0.4023
   17loPI   C5A  267  17.102   9.246   7.986  0.0039  0.0308  0.0697
   17loPI   C6A  268  17.237   9.627   7.758  0.1315 -0.0061  0.1929
   17loPI   C1B  269  15.393   9.227   9.276  0.1990 -0.0271  0.2837
   17loPI   C2B  270  15.332   9.160   8.826  0.0692  0.0114 -0.1808
   17loPI   C3B  271  15.311   9.108   8.349 -0.0478  0.2620  0.0935
   17loPI   C4B  272  15.314   9.068   7.911  0.0113 -0.0631  0.0274
   18loPI    C1  273   9.487  10.326  10.420 -0.0598  0.0086 -0.0022
   18loPI    C2  274   9.688  10.402  10.757  0.2117  0.0671 -0.1742
   18loPI    C3  275   9.703  10.037  10.593 -0.2330 -0.0728  0.0806
   18loPI   PO4  276   9.562  10.463  10.166 -0.0028 -0.0173  0.0041
   18loPI   GL1  277   9.568  10.737   9.781 -0.0033 -0.0964  0.1275
   18loPI   GL2  278   9.313  10.958   9.875 -0.0719 -0.0315  0.2531
   18loPI   C1A  279   9.701  10.883   9.372 -0.2990 -0.0640  0.0154
   18loPI   C2A  280   9.837  10.754   8.999 -0.1604  0.1291  0.0449
   18loPI   C3A  281  10.054  10.489   8.872 -0.3229 -0.1487  0.0968
   18loPI   C4A  282   9.927  10.224   8.523  0.1824 -0.0464  0.0582
   18loPI   C5A  283   9.534  10.200   8.417 -0.0775  0.1903  0.1869
   18loPI   C6A  284   9.104  10.289   8.117 -0.0199 -0.3771 -0.2959
   18loPI   C1B  285   9.224  10.676   9.466  0.2371  0.0721  0.1310
   18loPI   C2B  286   9.166  10.653   8.986 -0.2801  0.0666  0.0036
   18loPI   C3B  287   9.141  10.631   8.534 -0.1018 -0.2980  0.1483
   18loPI   C4B  288   9.264  10.808   8.089 -0.0708 -0.2087  0.0837
   19loPI    C1  289   6.755  14.476  11.030  0.2082 -0.2670 -0.1536
   19loPI    C2  290   6.552  14.509  11.374  0.1860 -0.0762 -0.1839
   19loPI    C3  291   6.945  14.586  11.365  0.1626  0.0388 -0.2259
   19loPI   PO4  292   6.634  14.630  10.872  0.0265  0.1078  0.1153
   19loPI   GL1  293   6.598  14.810  10.467  0.1408  0.0196  0.0506
   19loPI   GL2  294   6.796  15.007  10.368  0.0830  0.0537  0.1698
   19loPI   C1A  295   6.604  14.538  10.123  0.1915 -0.2805 -0.0069
   19loPI   C2A  296   6.696  14.747   9.795  0.1975  0.0352 -0.1138
   19loPI   C3A  297   6.758  14.932   9.429 -0.0512 -0.2035 -0.0358
   19loPI   C4A  298   6.944  15.185   9.125  0.3745  0.1039 -0.0497
   19loPI   C5A  299   7.194  15.169   8.856  0.0149  0.3169 -0.0046
   19loPI   C6A  300   7.121  15.145   8.445 -0.0425 -0.0977 -0.0170
   19loPI   C1B  301   6.988  15.119   9.962 -0.3533 -0.0520  0.4237
   19loPI   C2B  302   6.782  15.413   9.601 -0.1208 -0.1980  0.1536
   19loPI   C3B  303   6.780  15.645   9.196 -0.1092  0.0293 -0.0663
   19loPI   C4B  304   6.909  15.663   8.785 -0.0991  0.0757  0.0024
   20loPI    C1  305   2.475   0.813  11.251 -0.1658  0.5345 -0.1602
   20loPI    C2  306   2.325   1.102  11.483  0.2263  0.2612  0.4587
   20loPI    C3  307   2.382   0.735  11.632 -0.1870 -0.1301 -0.2891
   20loPI   PO4  308   2.477   0.979  10.973 -0.0042  0.1662  0.0402
   20loPI   GL1  309   2.414   0.965  10.626 -0.1309 -0.0813  0.1811
   20loPI   GL2  310   2.139   1.215  10.494 -0.0219 -0.3345  0.2249
   20loPI   C1A  311   2.411   0.900  10.283  0.0500 -0.0440 -0.0261
   20loPI   C2A  312   2.271   0.801   9.888  0.0378  0.2257  0.1762
   20loPI   C3A  313   2.452   0.800   9.407 -0.0768 -0.2963  0.1587
   20loPI   C4A  314   2.744   0.829   9.040 -0.0329  0.1730  0.2676
   20loPI   C5A  315   2.678   1.007   8.528 -0.3132  0.2815 -0.0464
   20loPI   C6A  316   2.752   1.111   8.161  0.1950  0.0825  0.3221
   20loPI   C1B  317   1.912   1.177  10.114  0.0505 -0.0807 -0.0466
   20loPI   C2B  318   1.891   1.080   9.732  0.5261 -0.1195  0.0337
   20loPI   C3B  319   1.874   1.018   9.203  0.1064  0.0207  0.0373
   20loPI   C4B  320   1.820   0.674   8.868 -0.1295 -0.0268  0.0403
   21loPI    C1  321  13.667  11.568  10.640  0.0202 -0.0499  0.0566
   21loPI    C2  322  13.367  11.425  10.863  0.0895 -0.1901  0.0613
   21loPI    C3  323  13.707  11.217  10.828  0.1492 -0.0791 -0.0242
   21loPI   PO4  324  13.524  11.549  10.363  0.3287 -0.0843 -0.4310
   21loPI   GL1  325  13.259  11.756  10.084 -0.4787  0.0166  0.0823
   21loPI   GL2  326  13.504  11.882   9.935 -0.1481  0.0862 -0.0652
   21loPI   C1A  327  13.089  11.602   9.729 -0.0700 -0.2464  0.2145
   21loPI   C2A  328  13.069  11.619   9.251  0.1519  0.1238 -0.0613
   21loPI   C3A  329  12.933  11.400   8.866 -0.0345 -0.2234  0.1281
   21loPI   C4A  330  13.048  11.340   8.385  0.1515  0.3278  0.1315
   21loPI   C5A  331  13.276  11.369   7.948 -0.1300 -0.2873 -0.1385
   21loPI   C6A  332  13.736  11.300   7.831 -0.1811  0.0747  0.1382
   21loPI   C1B  333  13.612  11.921   9.505  0.0925 -0.1613 -0.0804
   21loPI   C2B  334  13.464  12.029   9.051  0.0297  0.0457  0.0324
   21loPI   C3B  335  13.304  11.750   8.661 -0.2595 -0.1366 -0.4211
   21loPI   C4B  336  13.101  11.850   8.272  0.0528 -0.0889 -0.0673
   22loPI    C1  337  11.821  17.054  10.404 -0.0178  0.1147  0.0027
   22loPI    C2  338  11.804  17.072  10.804  0.1643  0.0603  0.0137
   22loPI    C3  339  11.662  17.374  10.584 -0.2920 -0.0776  0.1092
   22loPI   PO4  340  11.979  16.951  10.334 -0.1485  0.0548  0.0097
   22loPI   GL1  341  12.142  16.921   9.976 -0.2668 -0.0668  0.0589
   22loPI   GL2  342  12.273  17.207   9.962 -0.2709  0.4004  0.0612
   22loPI   C1A  343  12.121  16.991   9.519 -0.0051  0.0141 -0.0910
   22loPI   C2A  344  12.015  17.098   9.092  0.2604 -0.0521 -0.0105
   22loPI   C3A  345  12.209  17.192   8.690 -0.4561  0.1099  0.0958
   22loPI   C4A  346  12.497  17.382   8.459 -0.2784 -0.0798  0.3613
   22loPI   C5A  347  12.715  17.735   8.249  0.0056 -0.4076 -0.1401
   22loPI   C6A  348  13.156  17.964   8.212  0.0276  0.1566  0.1192
   22loPI   C1B  349  12.356  17.409   9.513  0.0130  0.0629  0.0009
   22loPI   C2B  350  12.135  17.681   9.243 -0.0531 -0.1959 -0.1125
   22loPI   C3B  351  11.987  17.596   8.764  0.0514  0.0830  0.0204
   22loPI   C4B  352  11.914  17.363   8.351 -0.3021 -0.3295 -0.0547
   23loPI    C1  353   4.101   5.751  10.881 -0.2389 -0.0269  0.0229
   23loPI    C2  354   4.377   5.480  10.986  0.0324  0.2504  0.0399
   23loPI    C3  355   4.262   5.760  11.247 -0.3012  0.1114  0.0472
   23loPI   PO4  356   4.112   5.678  10.585 -0.0639 -0.1413  0.1712
   23loPI   GL1  357   4.049   5.460  10.197 -0.0863 -0.0138  0.0903
   23loPI   GL2  358   3.741   5.399  10.376  0.1758 -0.1844  0.0036
   23loPI   C1A  359   4.064   5.590   9.726  0.2479  0.1747  0.1264
   23loPI   C2A  360   3.944   5.514   9.382 -0.0014  0.0272  0.0656
   23loPI   C3A  361   3.766   5.130   9.276 -0.0760 -0.1997 -0.1890
   23loPI   C4A  362   3.606   4.768   9.009  0.1121  0.0155  0.1518
   23loPI   C5A  363   3.434   4.739   8.593 -0.0778 -0.0478 -0.0924
   23loPI   C6A  364   3.610   4.730   8.158 -0.1866  0.0199 -0.2666
   23loPI   C1B  365   3.602   5.637  10.008 -0.2503 -0.2560  0.1371
   23loPI   C2B  366   3.454   5.469   9.609 -0.1101 -0.1853  0.2226
   23loPI   C3B  367   3.423   5.499   9.122  0.0878  0.0948  0.1350
   23loPI   C4B  368   3.585   5.266   8.802 -0.1483 -0.4695  0.2143
   24loPI    C1  369   7.635  14.715  10.802  0.1244 -0.1774 -0.1574
   24loPI    C2  370   7.454  14.799  11.148 -0.3114 -0.1750 -0.3788
   24loPI    C3  371   7.591  15.096  10.918  0.0399 -0.1793 -0.1830
   24loPI   PO4  372   7.450  14.506  10.722 -0.0443  0.2974 -0.2728
   24loPI   GL1  373   7.519  14.264  10.339 -0.0223  0.3544 -0.2771
   24loPI   GL2  374   7.785  14.512  10.357 -0.0153 -0.2319 -0.0401
   24loPI   C1A  375   7.328  14.174   9.951  0.2718 -0.0747  0.1557
   24loPI   C2A  376   7.215  14.186   9.566  0.0297 -0.0258  0.1170
   24loPI   C3A  377   7.240  14.268   9.181  0.0334 -0.2608 -0.3718
   24loPI   C4A  378   7.221  13.957   8.806  0.0506 -0.2170 -0.1740
   24loPI   C5A  379   7.545  13.799   8.559  0.0433  0.0572 -0.3356
   24loPI   C6A  380   7.600  13.320   8.434  0.0091 -0.3240  0.0017
   24loPI   C1B  381   7.745  14.450   9.935  0.2307  0.1647 -0.4099
   24loPI   C2B  382   7.709  14.279   9.501  0.0456 -0.3404 -0.0666
   24loPI   C3B  383   7.722  14.180   9.004 -0.2783  0.0152 -0.0749
   24loPI   C4B  384   7.656  14.338   8.595  0.2073 -0.2705 -0.3210
   25loPI    C1  385   4.797  16.631  10.865 -0.1523  0.0623  0.1860
   25loPI    C2  386   4.870  16.958  11.083 -0.2609  0.0382  0.2587
   25loPI    C3  387   4.934  16.595  11.239  0.0679  0.0267  0.1034
   25loPI   PO4  388   4.897  16.694  10.601  0.1664  0.0753  0.1629
   25loPI   GL1  389   4.829  16.565  10.183  0.1909 -0.0943 -0.1460
   25loPI   GL2  390   4.929  16.920  10.187 -0.0068 -0.0069  0.0571
   25loPI   C1A  391   4.864  16.530   9.792 -0.0343 -0.0794 -0.2130
   25loPI   C2A  392   4.965  16.598   9.396 -0.0578  0.0298  0.2978
   25loPI   C3A  393   5.112  16.594   8.963 -0.0976  0.1096  0.3974
   25loPI   C4A  394   4.915  16.454   8.720 -0.1179  0.3056  0.2648
   25loPI   C5A  395   4.870  16.017   8.419 -0.1841 -0.0096  0.3366
   25loPI   C6A  396   5.128  15.628   8.223  0.3578 -0.0500 -0.0888
   25loPI   C1B  397   5.074  16.972   9.732  0.0411 -0.2438  0.1314
   25loPI   C2B  398   5.085  17.052   9.172 -0.0095  0.1770 -0.1306
   25loPI   C3B  399   5.018  17.105   8.743 -0.1952  0.2111 -0.0219
   25loPI   C4B  400   4.753  17.339   8.422 -0.1301  0.0788 -0.3468
   26loPI    C1  401   2.006  11.665  10.289  0.2017  0.1835  0.0150
   26loPI    C2  402   1.771  11.652  10.613  0.0362 -0.0692 -0.1123
   26loPI    C3  403   2.097  11.422  10.593  0.0299 -0.0761 -0.1375
   26loPI   PO4  404   2.017  11.991  10.224 -0.1954 -0.2154 -0.0058
   26loPI   GL1  405   2.033  12.181   9.826 -0.0516  0.0177 -0.2079
   26loPI   GL2  406   1.751  11.949   9.758 -0.2793 -0.1252  0.0000
   26loPI   C1A  407   2.025  12.422   9.391  0.0534 -0.0133 -0.2551
   26loPI   C2A  408   2.130  12.452   8.998 -0.1434 -0.2210 -0.0124
   26loPI   C3A  409   2.171  12.482   8.552  0.2708  0.2864  0.0974
   26loPI   C4A  410   1.927  12.495   8.260 -0.4911  0.0733  0.1368
   26loPI   C5A  411   1.839  12.533   7.810 -0.2222 -0.2697 -0.3468
   26loPI   C6A  412   2.157  12.580   7.524 -0.3661  0.2692 -0.1676
   26loPI   C1B  413   1.817  11.961   9.328 -0.3622 -0.0143 -0.1430
   26loPI   C2B  414   1.763  11.868   8.909 -0.0671 -0.2181 -0.3918
   26loPI   C3B  415   1.870  11.594   8.693  0.0532  0.1024  0.0530
   26loPI   C4B  416   1.789  11.119   8.456 -0.0083 -0.0488 -0.1795
   27loPI    C1  417   7.759   3.019  10.395  0.2326  0.3008  0.1502
   27loPI    C2  418   7.761   3.133  10.778  0.0675  0.3047  0.1506
   27loPI    C3  419   7.956   2.802  10.667 -0.0553  0.1895  0.2740
   27loPI   PO4  420   7.479   3.158  10.338  0.2386  0.1167 -0.0254
   27loPI   GL1  421   7.372   3.219   9.929  0.0641  0.4600  0.1305
   27loPI   GL2  422   7.636   3.403   9.878 -0.3007 -0.1113  0.0339
   27loPI   C1A  423   7.277   3.144   9.542 -0.0580  0.0540 -0.0568
   27loPI   C2A  424   7.078   2.864   9.373 -0.0983 -0.2127 -0.1173
   27loPI   C3A  425   6.944   2.673   9.012  0.5198  0.2155  0.1345
   27loPI   C4A  426   6.935   2.641   8.561 -0.1735  0.0492 -0.0238
   27loPI   C5A  427   6.901   2.159   8.508 -0.2235 -0.0065  0.1302
   27loPI   C6A  428   6.543   1.930   8.405 -0.3680 -0.2697  0.0930
   27loPI   C1B  429   7.738   3.512   9.528  0.0935  0.1416 -0.0272
   27loPI   C2B  430   7.627   3.479   9.165 -0.0270  0.1344 -0.3452
   27loPI   C3B  431   7.619   3.310   8.788 -0.1621  0.1367  0.3544
   27loPI   C4B  432   7.337   3.210   8.427  0.1413  0.1976 -0.2431
   28loPI    C1  433   2.121   6.043  10.714  0.0577  0.0705  0.1048
   28loPI    C2  434   2.388   5.847  10.939  0.0774  0.0193  0.0373
   28loPI    C3  435   2.367   6.246  10.956  0.2231  0.0305 -0.0273
   28loPI   PO4  436   2.076   5.836  10.572  0.2092  0.1616  0.1952
   28loPI   GL1  437   2.166   5.909  10.161 -0.1958  0.0134  0.2500
   28loPI   GL2  438   2.256   5.567  10.170 -0.0597  0.3305 -0.0181
   28loPI   C1A  439   2.204   5.944   9.753  0.0038  0.0378  0.0196
   28loPI   C2A  440   2.064   6.013   9.265  0.1628 -0.1770  0.0541
   28loPI   C3A  441   2.090   6.209   8.937 -0.0558 -0.0582  0.2152
   28loPI   C4A  442   2.161   6.413   8.549 -0.2398 -0.0813  0.0272
   28loPI   C5A  443   2.196   6.414   8.180  0.1972  0.2486  0.1228
   28loPI   C6A  444   2.063   6.680   7.795 -0.2971 -0.1577 -0.0145
   28loPI   C1B  445   2.554   5.637   9.791 -0.1138  0.1542  0.0255
   28loPI   C2B  446   2.445   5.691   9.394  0.1302  0.0531 -0.1283
   28loPI   C3B  447   2.422   5.628   8.959  0.1562 -0.0746  0.2882
   28loPI   C4B  448   2.465   5.563   8.546 -0.0330 -0.3209  0.4916
   29loPI    C1  449   9.257   5.884  10.539 -0.3710  0.0917  0.1927
   29loPI    C2  450   9.318   5.513  10.676  0.1943  0.0959 -0.0221
   29loPI    C3  451   9.497   5.823  10.854 -0.0240  0.2336 -0.0388
   29loPI   PO4  452   9.315   5.830  10.182 -0.1426  0.4028 -0.3089
   29loPI   GL1  453   9.134   6.053   9.762 -0.2922  0.0918  0.0089
   29loPI   GL2  454   9.346   6.286   9.567 -0.0878  0.0552 -0.0812
   29loPI   C1A  455   9.132   5.752   9.399 -0.3443 -0.1632  0.1425
   29loPI   C2A  456   9.123   5.600   8.993 -0.4461 -0.1561 -0.0654
   29loPI   C3A  457   8.900   5.468   8.630  0.1329  0.0815  0.0685
   29loPI   C4A  458   8.680   5.401   8.237  0.2068 -0.0141  0.0645
   29loPI   C5A  459   8.186   5.410   8.215  0.1307 -0.0684  0.1111
   29loPI   C6A  460   7.953   5.599   8.028  0.0879  0.0313 -0.2991
   29loPI   C1B  461   9.463   6.041   9.136  0.1173 -0.0861 -0.0265
   29loPI   C2B  462   9.405   5.938   8.742  0.4072 -0.1746 -0.0006
   29loPI   C3B  463   9.296   5.829   8.395 -0.3202 -0.0335  0.1198
   29loPI   C4B  464   9.134   5.533   8.104 -0.1018  0.1718 -0.1257
   30loPI    C1  465  13.835  14.088  10.853 -0.2411 -0.0033 -0.0339
   30loPI    C2  466  13.836  13.875  11.192  0.0202 -0.0359 -0.0535
   30loPI    C3  467  13.893  14.270  11.205 -0.3090  0.0132 -0.0310
   30loPI   PO4  468  13.699  14.025  10.740  0.0055  0.2778 -0.0439
   30loPI   GL1  469  13.486  14.031  10.383 -0.0514 -0.0289 -0.0548
   30loPI   GL2  470  13.314  14.312  10.365  0.0219  0.1371 -0.1020
   30loPI   C1A  471  13.324  13.833   9.975  0.1876  0.2135 -0.0282
   30loPI   C2A  472  13.167  13.607   9.530  0.0906 -0.1638  0.0732
   30loPI   C3A  473  13.073  13.560   9.082  0.0186  0.1199  0.0627
   30loPI   C4A  474  13.109  13.637   8.694  0.0970 -0.1166  0.1838
   30loPI   C5A  475  13.300  13.596   8.286 -0.1490 -0.1080  0.2588
   30loPI   C6A  476  13.714  13.552   8.083  0.3961  0.1620  0.2857
   30loPI   C1B  477  13.367  14.306   9.915  0.1443 -0.0492 -0.2348
   30loPI   C2B  478  13.181  14.144   9.539  0.0463  0.1286 -0.4857
   30loPI   C3B  479  12.895  14.003   9.205 -0.2891  0.3645  0.2843
   30loPI   C4B  480  12.658  13.714   8.885  0.0666  0.1019 -0.2813
   31loPI    C1  481  14.284  13.369  10.819  0.1165  0.1716 -0.2567
   31loPI    C2  482  14.174  13.749  10.884  0.1455  0.1681 -0.1873
   31loPI    C3  483  14.480  13.590  11.089 -0.1206 -0.0159  0.0769
   31loPI   PO4  484  14.281  13.371  10.578  0.0670 -0.0810  0.0719
   31loPI   GL1  485  14.451  13.442  10.236 -0.1693  0.0915  0.3287
   31loPI   GL2  486  14.193  13.518  10.092 -0.0170  0.3641 -0.2783
   31loPI   C1A  487  14.655  13.281   9.864  0.1194 -0.0878  0.2180
   31loPI   C2A  488  14.535  13.131   9.492  0.0356 -0.3539 -0.1304
   31loPI   C3A  489  14.304  12.938   9.097  0.0244 -0.0663 -0.2540
   31loPI   C4A  490  14.074  12.762   8.772  0.0796 -0.1978 -0.1371
   31loPI   C5A  491  13.884  12.911   8.371  0.0004  0.2427  0.1708
   31loPI   C6A  492  13.715  13.109   7.917  0.1835  0.1604 -0.0181
   31loPI   C1B  493  14.237  13.468   9.652  0.0938 -0.2890  0.0892
   31loPI   C2B  494  14.149  13.388   9.210 -0.1047 -0.0415 -0.0933
   31loPI   C3B  495  14.043  13.273   8.790  0.0321  0.3221 -0.1283
   31loPI   C4B  496  14.096  13.394   8.335  0.1840  0.0606  0.0253
   32loPI    C1  497  15.218   4.150  10.406 -0.1103  0.0800  0.0985
   32loPI    C2  498  15.435   4.180  10.741  0.1278 -0.1379 -0.0328
   32loPI    C3  499  15.093   3.972  10.741 -0.0376  0.1288  0.1519
   32loPI   PO4  500  15.406   4.105  10.244  0.0136 -0.0452 -0.0600
   32loPI   GL1  501  15.584   4.428  10.000  0.1682 -0.2313  0.0935
   32loPI   GL2  502  15.925   4.558   9.863 -0.0549 -0.1921 -0.0856
   32loPI   C1A  503  15.465   4.562   9.668 -0.1175  0.2870  0.0887
   32loPI   C2A  504  15.518   4.516   9.257  0.0583 -0.1926  0.1850
   32loPI   C3A  505  15.583   4.389   8.716 -0.4671  0.0093  0.0705
   32loPI   C4A  506  15.883   4.243   8.312 -0.1714  0.4310 -0.2463
   32loPI   C5A  507  16.096   3.944   8.024 -0.2563 -0.1273  0.1061
   32loPI   C6A  508  16.392   3.633   8.009  0.1845  0.1189  0.1033
   32loPI   C1B  509  15.911   4.429   9.504 -0.2220  0.0912 -0.0023
   32loPI   C2B  510  16.055   4.457   9.109  0.0777  0.0981 -0.1717
   32loPI   C3B  511  16.119   4.631   8.712  0.3422 -0.1619  0.0718
   32loPI   C4B  512  16.175   4.776   8.281 -0.0962  0.1825  0.0799
   33loPI    C1  513  15.768   4.708  10.359 -0.0798  0.2272 -0.0576
   33loPI    C2  514  15.905   4.332  10.353 -0.1488  0.2024 -0.0864
   33loPI    C3  515  15.862   4.524  10.701  0.0115  0.2299 -0.0808
   33loPI   PO4  516  15.867   4.852  10.213 -0.1597 -0.1768 -0.1131
   33loPI   GL1  517  15.711   5.096   9.802  0.2225 -0.3149  0.2842
   33loPI   GL2  518  15.448   5.336   9.924  0.2659  0.2124  0.2278
   33loPI   C1A  519  15.723   4.961   9.387 -0.2441  0.0976 -0.4090
   33loPI   C2A  520  15.680   4.859   8.949  0.1200 -0.2457 -0.3197
   33loPI   C3A  521  15.735   4.787   8.489  0.0043  0.1295  0.3894
   33loPI   C4A  522  15.467   4.972   8.263  0.1709 -0.1744  0.0096
   33loPI   C5A  523  15.148   4.907   8.045 -0.2607 -0.1816  0.1690
   33loPI   C6A  524  14.874   4.671   7.791 -0.0318  0.1777 -0.0760
   33loPI   C1B  525  15.500   5.389   9.485 -0.1100 -0.3889 -0.1565
   33loPI   C2B  526  15.361   5.225   9.074 -0.2839  0.0505 -0.0443
   33loPI   C3B  527  15.265   5.291   8.666  0.1323 -0.0335  0.3783
   33loPI   C4B  528  15.022   5.313   8.299  0.3216  0.1290 -0.0202
   34loPI    C1  529   5.923  17.029  11.043  0.0005  0.0268 -0.2263
   34loPI    C2  530   5.815  16.678  11.202 -0.0949  0.0801 -0.1721
   34loPI    C3  531   6.202  16.774  11.174 -0.0795  0.1107  0.1181
   34loPI   PO4  532   5.754  17.097  10.822  0.1155  0.1961 -0.3811
   34loPI   GL1  533   5.663  17.194  10.401 -0.2891  0.1522 -0.3141
   34loPI   GL2  534   5.320  17.282  10.371 -0.1146  0.1544 -0.3521
   34loPI   C1A  535   5.542  17.048   9.887  0.1869  0.0775 -0.1397
   34loPI   C2A  536   5.513  16.989   9.421 -0.0290 -0.0260  0.1777
   34loPI   C3A  537   5.561  16.806   9.045  0.0511  0.2281  0.0621
   34loPI   C4A  538   5.563  16.588   8.697  0.1692  0.1178  0.1203
   34loPI   C5A  539   5.766  16.299   8.476 -0.0137 -0.3261 -0.1419
   34loPI   C6A  540   6.006  16.241   8.122 -0.0607 -0.2586  0.0046
   34loPI   C1B  541   5.158  17.391  10.015 -0.0467 -0.1304 -0.1318
   34loPI   C2B  542   5.059  17.429   9.542  0.3385  0.0528  0.1607
   34loPI   C3B  543   4.994  17.577   9.161  0.3311 -0.2264  0.0939
   34loPI   C4B  544   4.795  17.790   8.869  0.2496 -0.0870 -0.2246
   35loPI    C1  545  14.063   9.522  10.411 -0.0909  0.0669  0.0123
   35loPI    C2  546  14.151   9.243  10.684 -0.1043  0.0661  0.0157
   35loPI    C3  547  14.408   9.541  10.614 -0.0802  0.0408 -0.0035
   35loPI   PO4  548  13.770   9.630  10.363  0.1639  0.0924 -0.0019
   35loPI   GL1  549  13.492   9.926  10.079  0.0675  0.0648  0.1757
   35loPI   GL2  550  13.171  10.068   9.951  0.0630 -0.0008 -0.1582
   35loPI   C1A  551  13.554   9.700   9.685  0.0688 -0.1796 -0.1268
   35loPI   C2A  552  13.484   9.635   9.303 -0.1536  0.2318 -0.1630
   35loPI   C3A  553  13.505   9.723   8.866 -0.2773  0.1947  0.0183
   35loPI   C4A  554  13.605   9.617   8.359  0.0716 -0.1577  0.1096
   35loPI   C5A  555  13.474   9.335   7.988 -0.3037  0.1143 -0.2041
   35loPI   C6A  556  13.261   9.483   7.648  0.0813  0.3314  0.3971
   35loPI   C1B  557  13.146   9.891   9.579 -0.1772  0.0776  0.0617
   35loPI   C2B  558  13.097   9.989   8.999 -0.0360 -0.1683 -0.0984
   35loPI   C3B  559  13.118   9.972   8.540  0.1441 -0.4326  0.3462
   35loPI   C4B  560  13.088   9.669   8.143 -0.1963 -0.1132  0.0843
   36loPI    C1  561   6.358   9.673  10.666  0.0677  0.2837 -0.0171
   36loPI    C2  562   6.215   9.947  10.920  0.2151  0.0527  0.3219
   36loPI    C3  563   6.596   9.966  10.800  0.1344  0.1857  0.0802
   36loPI   PO4  564   6.207   9.502  10.688 -0.1592 -0.1635  0.0832
   36loPI   GL1  565   5.912   9.423  10.328 -0.2272  0.0029  0.0810
   36loPI   GL2  566   5.625   9.353  10.379 -0.0079 -0.0653 -0.1272
   36loPI   C1A  567   5.789   9.656  10.024  0.2949 -0.0136  0.3292
   36loPI   C2A  568   5.677   9.616   9.632 -0.0622  0.0412 -0.0477
   36loPI   C3A  569   5.746   9.541   9.249  0.1276  0.0688  0.0784
   36loPI   C4A  570   5.766   9.499   8.835  0.0236  0.1473  0.0948
   36loPI   C5A  571   5.927   9.410   8.496  0.3459 -0.1611  0.1070
   36loPI   C6A  572   6.150   9.063   8.292 -0.0439  0.1248 -0.0375
   36loPI   C1B  573   5.297   9.315   9.972  0.3054 -0.0935 -0.2654
   36loPI   C2B  574   5.305   9.308   9.565  0.0789 -0.2083 -0.0291
   36loPI   C3B  575   5.252   9.359   9.163 -0.1182 -0.3125  0.0097
   36loPI   C4B  576   5.304   9.296   8.731  0.0529 -0.0239  0.2542
   37loPI    C1  577   4.825  14.992  10.649 -0.0857 -0.3678  0.0411
   37loPI    C2  578   4.709  14.931  11.027 -0.3297 -0.1700  0.0004
   37loPI    C3  579   4.682  15.296  10.865 -0.0065 -0.2028 -0.1358
   37loPI   PO4  580   4.939  14.737  10.567 -0.3004 -0.0710 -0.1279
   37loPI   GL1  581   5.133  14.590  10.185  0.3548 -0.0025 -0.1540
   37loPI   GL2  582   5.392  14.672  10.310 -0.1433  0.2089 -0.0288
   37loPI   C1A  583   5.333  14.506   9.758  0.1848  0.0720 -0.1226
   37loPI   C2A  584   5.381  14.527   9.366 -0.0201 -0.0074 -0.1079
   37loPI   C3A  585   5.251  14.806   9.125 -0.0878 -0.0663 -0.2006
   37loPI   C4A  586   5.185  15.204   8.807  0.2586  0.3429 -0.4211
   37loPI   C5A  587   5.112  15.178   8.429 -0.0957 -0.2810  0.1110
   37loPI   C6A  588   5.313  14.956   8.145 -0.0673 -0.0689  0.1371
   37loPI   C1B  589   5.729  14.821   9.990  0.1044 -0.1670  0.1478
   37loPI   C2B  590   5.807  14.835   9.531  0.1530  0.0784 -0.0326
   37loPI   C3B  591   5.809  14.871   9.163  0.0421 -0.0880  0.2257
   37loPI   C4B  592   5.619  14.986   8.758  0.0309  0.0061  0.2757
   38loPI    C1  593   0.575  14.347  10.342 -0.0888  0.0005  0.0269
   38loPI    C2  594   0.957  14.248  10.276 -0.1530 -0.1921 -0.0642
   38loPI    C3  595   0.745  14.053  10.554 -0.1960 -0.1099 -0.0391
   38loPI   PO4  596   0.419  14.317  10.122  0.0613 -0.0752 -0.2219
   38loPI   GL1  597   0.389  14.690   9.913 -0.0213 -0.2879 -0.2037
   38loPI   GL2  598   0.507  14.994   9.820  0.1073  0.0300 -0.0425
   38loPI   C1A  599   0.152  14.642   9.573  0.1854  0.2433 -0.0431
   38loPI   C2A  600  -0.010  14.810   9.287  0.0341 -0.1942  0.1972
   38loPI   C3A  601   0.016  14.777   8.848 -0.0243 -0.0859  0.0962
   38loPI   C4A  602   0.348  15.012   8.696 -0.0852  0.0326  0.1110
   38loPI   C5A  603   0.598  15.044   8.238  0.1065 -0.0677 -0.1781
   38loPI   C6A  604   0.961  15.298   8.253 -0.0684 -0.4063  0.0759
   38loPI   C1B  605   0.624  14.716   9.470 -0.1500 -0.2403 -0.0193
   38loPI   C2B  606   0.649  14.731   9.013  0.2181 -0.0199  0.0214
   38loPI   C3B  607   0.872  14.972   8.649  0.5127 -0.1536 -0.0602
   38loPI   C4B  608   1.340  14.953   8.511 -0.0708 -0.1776  0.5142
   39loPI    C1  609  12.027  13.828  10.761  0.0667  0.2383 -0.0199
   39loPI    C2  610  12.182  13.752  11.122  0.1472 -0.2431 -0.1499
   39loPI    C3  611  12.188  14.124  10.977  0.1865 -0.0587  0.3085
   39loPI   PO4  612  12.107  13.682  10.570  0.0802 -0.0546 -0.0196
   39loPI   GL1  613  12.060  13.492  10.254 -0.2052 -0.2675 -0.1269
   39loPI   GL2  614  11.812  13.333  10.277  0.1891 -0.1126 -0.2073
   39loPI   C1A  615  12.194  13.561   9.835  0.0094 -0.1216  0.2107
   39loPI   C2A  616  12.076  13.697   9.407 -0.0101  0.1544  0.2291
   39loPI   C3A  617  11.868  13.634   9.112  0.2179 -0.1551  0.0190
   39loPI   C4A  618  11.871  13.729   8.656  0.0840  0.0117  0.3076
   39loPI   C5A  619  11.600  13.828   8.416  0.0932 -0.2876 -0.3640
   39loPI   C6A  620  11.286  14.142   8.232  0.4828  0.0559  0.0153
   39loPI   C1B  621  11.883  13.176   9.900 -0.0256 -0.3428 -0.1725
   39loPI   C2B  622  11.817  13.158   9.437  0.2272 -0.3047 -0.2730
   39loPI   C3B  623  11.914  13.156   9.042 -0.4308  0.1158 -0.0795
   39loPI   C4B  624  12.205  13.369   8.882 -0.3630 -0.2386 -0.0767
   40loPI    C1  625   3.756   7.438  10.452 -0.0695  0.0300  0.0762
   40loPI    C2  626   3.755   7.272  10.816 -0.2847 -0.1633 -0.0096
   40loPI    C3  627   3.997   7.129  10.531 -0.2622 -0.1424 -0.0011
   40loPI   PO4  628   3.782   7.696  10.447 -0.1234 -0.0175  0.0826
   40loPI   GL1  629   3.524   7.766  10.103 -0.2848 -0.2100 -0.0761
   40loPI   GL2  630   3.820   7.645   9.976 -0.2706 -0.0096 -0.0061
   40loPI   C1A  631   3.296   7.921   9.830 -0.0463 -0.1237 -0.2381
   40loPI   C2A  632   3.278   7.867   9.422 -0.1690  0.0762  0.3273
   40loPI   C3A  633   3.203   7.872   9.026  0.0790  0.1322  0.1275
   40loPI   C4A  634   3.207   7.542   8.723  0.3835  0.2534 -0.0178
   40loPI   C5A  635   3.070   7.244   8.442 -0.1008 -0.0116  0.0714
   40loPI   C6A  636   2.928   6.970   8.184  0.1718  0.0043  0.3300
   40loPI   C1B  637   4.068   7.462   9.600 -0.0800 -0.1993 -0.0330
   40loPI   C2B  638   4.102   7.511   9.189  0.1706 -0.1454 -0.0430
   40loPI   C3B  639   4.337   7.589   8.871  0.1089 -0.2464 -0.3410
   40loPI   C4B  640   4.396   7.763   8.484 -0.2587 -0.1110 -0.1341
   41loPI    C1  641  17.779   9.482  10.469 -0.0349  0.1870 -0.2027
   41loPI    C2  642  17.457   9.249  10.423 -0.0289  0.1301  0.0262
   41loPI    C3  643  17.470   9.516  10.720  0.2115  0.0008  0.1348
   41loPI   PO4  644  17.816   9.601  10.298 -0.1304  0.0468 -0.0329
   41loPI   GL1  645  18.056   9.564   9.883 -0.0948 -0.0001 -0.0853
   41loPI   GL2  646  18.383   9.662   9.970 -0.0312 -0.1780 -0.1147
   41loPI   C1A  647  18.127   9.792   9.469 -0.1569 -0.0803 -0.1308
   41loPI   C2A  648  18.126   9.804   9.017  0.0294 -0.0402  0.0364
   41loPI   C3A  649  18.377   9.954   8.682  0.0341 -0.0373 -0.0730
   41loPI   C4A  650  18.628   9.977   8.344 -0.0085  0.2338  0.0959
   41loPI   C5A  651  18.637  10.117   7.914 -0.1260 -0.1992  0.0148
   41loPI   C6A  652  18.795  10.474   7.683  0.0058  0.0778 -0.1178
   41loPI   C1B  653  18.648   9.778   9.651  0.2897 -0.4992 -0.0185
   41loPI   C2B  654  18.639   9.740   9.213  0.0427 -0.2086  0.2608
   41loPI   C3B  655  18.823   9.782   8.873  0.0061  0.0323 -0.3063
   41loPI   C4B  656  18.890   9.618   8.502 -0.2615 -0.1063  0.0811
   42loPI    C1  657   7.695   6.743  10.906 -0.0029 -0.1587 -0.0587
   42loPI    C2  658   8.081   6.793  10.997 -0.0257  0.1099 -0.1007
   42loPI    C3  659   7.819   6.698  11.283  0.0574  0.0105 -0.0571
   42loPI   PO4  660   7.711   6.606  10.628  0.1209 -0.0377  0.1903
   42loPI   GL1  661   7.660   6.737  10.274  0.3145 -0.1044 -0.4088
   42loPI   GL2  662   7.441   6.516  10.203 -0.0596 -0.0618  0.1415
   42loPI   C1A  663   7.882   6.719   9.835 -0.1078 -0.0839 -0.0808
   42loPI   C2A  664   7.902   6.954   9.418  0.1612 -0.1051 -0.1062
   42loPI   C3A  665   7.856   7.042   9.100 -0.2503 -0.2006  0.2239
   42loPI   C4A  666   7.681   7.393   8.777 -0.2225  0.2658  0.1569
   42loPI   C5A  667   7.639   7.696   8.411  0.0130 -0.0326  0.1756
   42loPI   C6A  668   7.851   7.965   8.085  0.0060  0.0526  0.3596
   42loPI   C1B  669   7.205   6.548   9.890  0.1782 -0.0106 -0.1372
   42loPI   C2B  670   6.995   6.937   9.839 -0.0591  0.0216  0.0761
   42loPI   C3B  671   6.713   7.016   9.494  0.2457 -0.0889 -0.0963
   42loPI   C4B  672   6.723   7.078   9.131 -0.1309 -0.1263  0.0715
   43loPI    C1  673  12.060   3.251  10.855  0.0261  0.3612 -0.0500
   43loPI    C2  674  12.204   3.389  11.202 -0.2521  0.3477  0.0728
   43loPI    C3  675  11.923   3.104  11.201 -0.0007  0.0949 -0.1717
   43loPI   PO4  676  12.264   3.174  10.737 -0.0689 -0.2185 -0.0213
   43loPI   GL1  677  12.194   3.413  10.361  0.3855 -0.0219 -0.0253
   43loPI   GL2  678  12.442   3.384  10.258  0.0773 -0.1163 -0.1125
   43loPI   C1A  679  12.041   3.376   9.916  0.1757  0.0327  0.1696
   43loPI   C2A  680  12.061   3.397   9.461  0.0074  0.4055  0.0783
   43loPI   C3A  681  11.942   3.510   9.033 -0.0743 -0.0314  0.1639
   43loPI   C4A  682  11.728   3.754   8.813 -0.1082  0.3221  0.1939
   43loPI   C5A  683  11.462   4.191   8.879  0.3399  0.1352  0.3741
   43loPI   C6A  684  11.378   4.564   9.084  0.2457 -0.0386 -0.2340
   43loPI   C1B  685  12.770   3.238  10.063  0.0986 -0.1683  0.1739
   43loPI   C2B  686  12.947   3.282   9.667  0.0119  0.0586 -0.3678
   43loPI   C3B  687  12.989   3.178   9.220  0.1547  0.2663 -0.1623
   43loPI   C4B  688  12.906   3.270   8.782 -0.0580 -0.0564  0.0594
   44loPI    C1  689  10.682  15.049  11.165 -0.0992  0.1812 -0.2067
   44loPI    C2  690  11.055  15.080  11.303 -0.0849 -0.2844 -0.1218
   44loPI    C3  691  10.748  15.202  11.528  0.0151  0.1934 -0.2324
   44loPI   PO4  692  10.689  15.202  10.943  0.3035  0.1955 -0.3406
   44loPI   GL1  693  10.733  14.950  10.602 -0.1404 -0.0730  0.4147
   44loPI   GL2  694  10.455  15.048  10.582 -0.3452  0.1925 -0.1956
   44loPI   C1A  695  10.853  15.304  10.297  0.0717 -0.0059 -0.0814
   44loPI   C2A  696  10.902  15.477   9.904 -0.1013  0.2977 -0.0074
   44loPI   C3A  697  10.901  15.391   9.457  0.2708 -0.1351 -0.0116
   44loPI   C4A  698  10.657  15.499   9.185 -0.0472 -0.1798  0.0172
   44loPI   C5A  699  10.384  15.779   8.948  0.1096  0.0895  0.1311
   44loPI   C6A  700  10.272  15.763   8.488 -0.0807  0.3147  0.1933
   44loPI   C1B  701  10.558  15.004  10.061 -0.3453  0.0338 -0.2724
   44loPI   C2B  702  10.660  14.885   9.728 -0.0004  0.1098 -0.0952
   44loPI   C3B  703  10.514  14.905   9.234 -0.0976  0.2471 -0.0446
   44loPI   C4B  704  10.696  14.749   8.897 -0.0629  0.2339 -0.1108
   45loPI    C1  705  14.165   1.718  10.640 -0.2787  0.1238  0.1435
   45loPI    C2  706  14.034   1.379  10.807 -0.1905 -0.0058 -0.0477
   45loPI    C3  707  14.400   1.516  10.894 -0.2817  0.1199  0.1432
   45loPI   PO4  708  14.129   1.688  10.354  0.2337  0.2082  0.0063
   45loPI   GL1  709  14.198   1.899   9.940  0.2583 -0.0334 -0.0805
   45loPI   GL2  710  14.390   1.662   9.935 -0.1437 -0.1282 -0.0338
   45loPI   C1A  711  14.486   2.171   9.807  0.2171  0.0984 -0.1938
   45loPI   C2A  712  14.679   2.480   9.538 -0.0024 -0.0039  0.2717
   45loPI   C3A  713  14.656   2.695   9.214  0.1231 -0.0907 -0.0165
   45loPI   C4A  714  14.871   3.043   9.140 -0.3176 -0.1441 -0.3458
   45loPI   C5A  715  15.217   2.984   9.160  0.0895 -0.0230  0.3471
   45loPI   C6A  716  15.419   3.095   8.946  0.1455  0.0454  0.0433
   45loPI   C1B  717  14.532   1.751   9.454 -0.0815 -0.1668 -0.0692
   45loPI   C2B  718  14.574   2.160   9.169 -0.1785  0.0259  0.0060
   45loPI   C3B  719  14.591   2.375   8.730 -0.2368 -0.0007  0.0846
   45loPI   C4B  720  14.737   2.638   8.300  0.1554 -0.2164  0.1835
   46loPI    C1  721  12.691   9.803  10.532 -0.2695 -0.1358 -0.0763
   46loPI    C2  722  12.513  10.161  10.549 -0.0409 -0.0147 -0.1893
   46loPI    C3  723  12.565   9.947  10.883  0.0225  0.1586 -0.0868
   46loPI   PO4  724  12.909   9.827  10.388  0.0067 -0.4306 -0.0915
   46loPI   GL1  725  12.988   9.621   9.999 -0.0761  0.3545 -0.0764
   46loPI   GL2  726  12.820   9.665   9.927 -0.2349 -0.1390 -0.1526
   46loPI   C1A  727  13.032   9.334   9.607 -0.1047  0.0897  0.1955
   46loPI   C2A  728  13.045   9.467   9.204 -0.0579 -0.1808  0.1032
   46loPI   C3A  729  13.094   9.455   8.739 -0.2788 -0.1149  0.2313
   46loPI   C4A  730  13.185   9.242   8.383 -0.0980 -0.0891  0.0893
   46loPI   C5A  731  13.334   8.875   8.174 -0.2423  0.0460 -0.0872
   46loPI   C6A  732  13.444   8.445   8.183  0.1797 -0.0780  0.2780
   46loPI   C1B  733  12.638   9.618   9.588  0.3576 -0.1725  0.1934
   46loPI   C2B  734  12.633   9.637   9.045 -0.0959  0.1965  0.0431
   46loPI   C3B  735  12.658   9.668   8.575 -0.1173 -0.1758 -0.0295
   46loPI   C4B  736  12.461   9.640   8.213 -0.2580  0.2198 -0.0959
   47loPI    C1  737  13.289   0.059  10.747  0.1653 -0.3596 -0.2842
   47loPI    C2  738  12.939   0.119  10.563  0.0191  0.1450  0.1364
   47loPI    C3  739  12.949  -0.058  10.922  0.2068  0.0368  0.0788
   47loPI   PO4  740  13.426   0.018  10.417  0.2004 -0.1015  0.2112
   47loPI   GL1  741  13.536   0.251  10.100  0.2251  0.1331 -0.2595
   47loPI   GL2  742  13.292   0.034   9.921 -0.0902  0.1034  0.1699
   47loPI   C1A  743  13.418   0.501   9.771  0.1062 -0.1040  0.1740
   47loPI   C2A  744  13.397   0.447   9.290  0.1089 -0.0981 -0.0985
   47loPI   C3A  745  13.395   0.525   8.872  0.1554 -0.0539 -0.1449
   47loPI   C4A  746  13.505   0.504   8.406  0.0728  0.0106 -0.0896
   47loPI   C5A  747  13.819   0.696   8.082  0.5243  0.1708  0.0108
   47loPI   C6A  748  14.129   1.071   8.126 -0.3630 -0.0488 -0.3415
   47loPI   C1B  749  13.206   0.083   9.529 -0.1751 -0.1360 -0.1785
   47loPI   C2B  750  13.131   0.001   9.049  0.0101 -0.1878  0.3408
   47loPI   C3B  751  13.016   0.260   8.615  0.0661 -0.0762 -0.2722
   47loPI   C4B  752  13.031   0.474   8.240 -0.0955  0.1165  0.2021
   48loPI    C1  753  11.964   6.843  10.557 -0.5582 -0.1694 -0.0244
   48loPI    C2  754  11.907   6.733  10.937 -0.2185  0.0023  0.0807
   48loPI    C3  755  12.043   7.100  10.854  0.1635 -0.1916 -0.1779
   48loPI   PO4  756  12.123   6.721  10.445 -0.0275  0.0070 -0.0294
   48loPI   GL1  757  12.083   6.678   9.996 -0.1882 -0.0968 -0.1396
   48loPI   GL2  758  12.198   7.030   9.914  0.3225 -0.0123  0.2759
   48loPI   C1A  759  12.082   6.737   9.499  0.2683  0.0407 -0.2174
   48loPI   C2A  760  12.070   6.737   9.053  0.3857 -0.4027  0.0573
   48loPI   C3A  761  11.931   6.644   8.601 -0.0577 -0.1451 -0.1465
   48loPI   C4A  762  12.210   6.669   8.248  0.1086 -0.0451  0.0065
   48loPI   C5A  763  12.391   6.467   7.846  0.0492  0.1978 -0.0640
   48loPI   C6A  764  12.688   6.570   7.550 -0.1539 -0.2177  0.0523
   48loPI   C1B  765  12.451   7.153   9.508 -0.1144 -0.0915  0.2205
   48loPI   C2B  766  12.432   7.113   9.054 -0.0147  0.2370 -0.1729
   48loPI   C3B  767  12.433   7.031   8.585  0.2264 -0.0393  0.1860
   48loPI   C4B  768  12.339   7.225   8.142 -0.2193 -0.0688 -0.1292
   49loPI    C1  769  17.794   4.541  10.826  0.2110  0.0016  0.0185
   49loPI    C2  770  17.556   4.518  10.505  0.1209 -0.3133  0.1037
   49loPI    C3  771  17.567   4.854  10.723  0.0686 -0.1514 -0.1393
   49loPI   PO4  772  17.975   4.358  10.769  0.1171  0.2086  0.0848
   49loPI   GL1  773  18.095   3.930  10.464 -0.0218  0.1089 -0.2821
   49loPI   GL2  774  17.807   3.652  10.339 -0.1654 -0.0996  0.1911
   49loPI   C1A  775  18.208   4.095  10.085  0.0278 -0.2926  0.0088
   49loPI   C2A  776  18.230   4.270   9.648  0.2426  0.0597  0.0382
   49loPI   C3A  777  18.336   4.292   9.209  0.2177  0.1216  0.0292
   49loPI   C4A  778  18.546   4.083   8.954  0.1303  0.0893  0.1229
   49loPI   C5A  779  18.714   3.852   8.493 -0.1016  0.2611 -0.1921
   49loPI   C6A  780  18.662   3.534   8.185 -0.0812 -0.0936 -0.3510
   49loPI   C1B  781  17.681   3.652   9.834 -0.1142  0.3936 -0.4315
   49loPI   C2B  782  17.671   3.666   9.368 -0.1391 -0.2951  0.0265
   49loPI   C3B  783  17.848   3.433   8.983  0.3081 -0.0417  0.1989
   49loPI   C4B  784  18.001   2.979   8.804 -0.0488  0.0529 -0.0945
   50loPI    C1  785   1.611  13.829  10.458 -0.2257 -0.1482  0.0629
   50loPI    C2  786   1.799  13.950  10.789  0.0401 -0.0816 -0.1100
   50loPI    C3  787   1.510  13.675  10.813  0.0732 -0.0943  0.1733
   50loPI   PO4  788   1.847  13.881  10.292 -0.0110  0.3588 -0.1659
   50loPI   GL1  789   2.110  14.059  10.087 -0.3212  0.0365  0.2024
   50loPI   GL2  790   2.115  14.386  10.091 -0.3138  0.0516 -0.0880
   50loPI   C1A  791   2.221  14.013   9.677 -0.0648  0.0749 -0.0172
   50loPI   C2A  792   2.158  14.124   9.361 -0.1862 -0.0321  0.1362
   50loPI   C3A  793   2.319  13.994   9.033 -0.1182 -0.0892 -0.1583
   50loPI   C4A  794   2.496  13.832   8.652  0.2138  0.2377  0.1002
   50loPI   C5A  795   2.523  13.866   8.191 -0.3083  0.1454 -0.2277
   50loPI   C6A  796   2.358  14.042   7.800  0.1364 -0.1047  0.0267
   50loPI   C1B  797   2.179  14.525   9.621  0.2635 -0.4174 -0.4076
   50loPI   C2B  798   2.138  14.568   9.185  0.1653 -0.0028 -0.0290
   50loPI   C3B  799   1.934  14.841   8.868  0.1502  0.2288 -0.0574
   50loPI   C4B  800   1.647  14.621   8.612  0.1092 -0.1908  0.0156
   51loPI    C1  801   2.100   3.181  11.034 -0.1342  0.0277 -0.2355
   51loPI    C2  802   2.110   2.828  11.222 -0.0349  0.1177 -0.0693
   51loPI    C3  803   2.107   3.168  11.434  0.0397  0.2200 -0.2303
   51loPI   PO4  804   2.352   3.061  10.820  0.0583 -0.0352  0.4530
   51loPI   GL1  805   2.562   3.195  10.541  0.1032 -0.0972 -0.0081
   51loPI   GL2  806   2.546   2.905  10.349 -0.0884 -0.1491  0.0739
   51loPI   C1A  807   2.810   3.219  10.093  0.4009 -0.2849 -0.0062
   51loPI   C2A  808   2.914   3.609   9.797 -0.0446  0.0724 -0.2448
   51loPI   C3A  809   2.982   3.477   9.435  0.0242 -0.2001  0.0242
   51loPI   C4A  810   2.899   3.492   9.011 -0.1274 -0.1039 -0.0919
   51loPI   C5A  811   2.847   3.484   8.608  0.0707 -0.1502  0.3939
   51loPI   C6A  812   2.710   3.132   8.344 -0.0019  0.0103  0.1912
   51loPI   C1B  813   2.495   2.714  10.055  0.1832  0.0472 -0.0009
   51loPI   C2B  814   2.545   2.806   9.635 -0.1932  0.1894 -0.0819
   51loPI   C3B  815   2.702   2.692   9.166  0.0887  0.1155 -0.0199
   51loPI   C4B  816   2.686   2.501   8.780  0.0910  0.1163 -0.1023
   52loPI    C1  817   7.898   8.330  10.527  0.1355 -0.2745 -0.0122
   52loPI    C2  818   8.140   8.227  10.829  0.0455  0.0230  0.1652
   52loPI    C3  819   7.825   8.464  10.897 -0.0850 -0.0609 -0.1309
   52loPI   PO4  820   8.033   8.321  10.333 -0.2279 -0.0561  0.0541
   52loPI   GL1  821   8.161   8.117   9.991  0.1495 -0.3052  0.0737
   52loPI   GL2  822   7.854   7.960  10.063 -0.0182  0.0443 -0.1750
   52loPI   C1A  823   8.163   7.910   9.645  0.0710  0.1411  0.0076
   52loPI   C2A  824   8.485   7.773   9.311 -0.0588 -0.3142  0.1793
   52loPI   C3A  825   8.405   7.919   8.878  0.0291 -0.2009 -0.1532
   52loPI   C4A  826   8.265   7.999   8.429  0.2125 -0.0602 -0.0118
   52loPI   C5A  827   8.306   7.978   7.935  0.0263  0.2308  0.0207
   52loPI   C6A  828   8.253   8.152   7.584 -0.0071  0.0612  0.2124
   52loPI   C1B  829   7.587   7.940   9.688  0.2440  0.0078 -0.1029
   52loPI   C2B  830   7.535   7.908   9.327 -0.0150  0.1633  0.0801
   52loPI   C3B  831   7.412   8.025   8.828 -0.0531  0.2197 -0.2203
   52loPI   C4B  832   7.565   8.332   8.584 -0.1008 -0.3170  0.2544
   53loPI    C1  833   2.090   8.001  10.533 -0.0488 -0.2056  0.0624
   53loPI    C2  834   2.379   8.160  10.759 -0.0848 -0.0733  0.0166
   53loPI    C3  835   2.069   7.976  10.932 -0.0841 -0.0219  0.0732
   53loPI   PO4  836   2.178   8.029  10.296  0.0928 -0.0367 -0.1585
   53loPI   GL1  837   2.066   8.142  10.020 -0.0943  0.2881  0.0265
   53loPI   GL2  838   2.020   8.429   9.856 -0.2274 -0.0048  0.1109
   53loPI   C1A  839   1.916   8.085   9.505 -0.0166 -0.1157  0.1404
   53loPI   C2A  840   1.711   7.940   9.075  0.1329 -0.1053  0.0620
   53loPI   C3A  841   1.675   7.750   8.669  0.1583 -0.0814 -0.2889
   53loPI   C4A  842   1.746   8.032   8.393  0.2337  0.1095  0.2407
   53loPI   C5A  843   1.608   8.225   7.994  0.2376 -0.0415 -0.1226
   53loPI   C6A  844   1.740   8.437   7.680 -0.0179 -0.0701 -0.1145
   53loPI   C1B  845   2.102   8.533   9.507 -0.2440 -0.0189 -0.0705
   53loPI   C2B  846   2.084   8.400   9.015 -0.2561 -0.2426  0.0001
   53loPI   C3B  847   2.130   8.507   8.589  0.1341  0.0476 -0.1174
   53loPI   C4B  848   1.999   8.432   8.133  0.0964  0.0518 -0.0311
   54loPI    C1  849   6.933   4.776  10.780  0.1284 -0.1203 -0.0019
   54loPI    C2  850   6.724   5.107  10.696 -0.2033 -0.3563 -0.1287
   54loPI    C3  851   6.700   4.942  11.060 -0.0589 -0.2584 -0.0738
   54loPI   PO4  852   6.937   4.596  10.533  0.4509  0.0662 -0.0126
   54loPI   GL1  853   6.716   4.629  10.196 -0.1876 -0.1584 -0.1836
   54loPI   GL2  854   6.452   4.744  10.413 -0.0299 -0.0005 -0.2271
   54loPI   C1A  855   6.618   4.500   9.695 -0.1444 -0.1076 -0.0451
   54loPI   C2A  856   6.614   4.329   9.271  0.3109  0.0689  0.0351
   54loPI   C3A  857   6.649   4.235   8.792 -0.0004 -0.1105  0.1032
   54loPI   C4A  858   6.917   4.152   8.409  0.0502  0.0286 -0.1160
   54loPI   C5A  859   6.950   3.884   8.132  0.0063  0.0159 -0.2321
   54loPI   C6A  860   6.876   4.007   7.694  0.3443 -0.2406  0.1045
   54loPI   C1B  861   6.238   4.524  10.122 -0.0041 -0.1236  0.0211
   54loPI   C2B  862   6.099   4.320   9.670  0.0809 -0.0873 -0.3833
   54loPI   C3B  863   5.812   4.240   9.380  0.1423 -0.0653  0.0629
   54loPI   C4B  864   5.678   4.046   9.098  0.0004  0.3067 -0.1528
   55loPI    C1  865   1.365  15.344  10.984  0.1770  0.0962 -0.0035
   55loPI    C2  866   1.429  15.625  11.261 -0.1043 -0.1841  0.3551
   55loPI    C3  867   1.646  15.289  11.263  0.0598 -0.0832  0.0807
   55loPI   PO4  868   1.400  15.459  10.674  0.0808 -0.2680 -0.1957
   55loPI   GL1  869   1.440  15.370  10.276 -0.2611  0.2023 -0.1350
   55loPI   GL2  870   1.420  15.087  10.098  0.1877 -0.0032 -0.0677
   55loPI   C1A  871   1.745  15.505   9.977 -0.1164 -0.1907  0.0072
   55loPI   C2A  872   1.831  15.550   9.560  0.1774  0.0235 -0.2940
   55loPI   C3A  873   2.026  15.683   9.215 -0.0323 -0.3308 -0.3591
   55loPI   C4A  874   2.203  15.673   8.718 -0.0006  0.2558  0.0756
   55loPI   C5A  875   1.827  15.696   8.352 -0.2304 -0.0691  0.0735
   55loPI   C6A  876   1.508  16.042   8.335 -0.2934 -0.1046 -0.2484
   55loPI   C1B  877   1.403  15.256   9.745 -0.1579 -0.0724 -0.2775
   55loPI   C2B  878   1.381  15.421   9.298 -0.0186  0.0816 -0.1378
   55loPI   C3B  879   1.579  15.870   9.264  0.4155 -0.0766 -0.0343
   55loPI   C4B  880   1.701  16.006   8.804  0.0095 -0.1187  0.1097
   56loPI    C1  881  14.435   3.182  10.484  0.3156  0.0314 -0.0361
   56loPI    C2  882  14.055   3.285  10.557  0.2366 -0.1258 -0.2174
   56loPI    C3  883  14.354   3.519  10.684  0.0801 -0.0043 -0.0689
   56loPI   PO4  884  14.365   2.882  10.483 -0.1611  0.0239 -0.2198
   56loPI   GL1  885  14.323   2.583  10.164  0.0926  0.2192  0.0968
   56loPI   GL2  886  14.499   2.844   9.951  0.0384  0.1307 -0.1007
   56loPI   C1A  887  14.080   2.556   9.800 -0.1443  0.1391 -0.3798
   56loPI   C2A  888  14.198   2.530   9.380 -0.0326 -0.1299  0.0019
   56loPI   C3A  889  14.173   2.524   9.013  0.2074 -0.0494 -0.2431
   56loPI   C4A  890  14.102   2.604   8.591  0.1892 -0.1144 -0.0818
   56loPI   C5A  891  14.248   2.758   8.203  0.0916  0.0229  0.1337
   56loPI   C6A  892  14.486   2.809   7.908  0.0085  0.0416  0.0676
   56loPI   C1B  893  14.907   2.882   9.729  0.2264  0.1344  0.0866
   56loPI   C2B  894  15.178   3.168   9.596 -0.1155  0.2449 -0.2490
   56loPI   C3B  895  15.312   3.514   9.300  0.0710 -0.0462  0.0092
   56loPI   C4B  896  15.287   3.609   8.897  0.2930  0.1725  0.1093
   57loPI    C1  897  17.791  13.103  10.201 -0.1195  0.1258  0.0728
   57loPI    C2  898  18.098  13.315  10.347  0.1221 -0.2373  0.1042
   57loPI    C3  899  17.967  12.991  10.542 -0.0669 -0.2739 -0.0800
   57loPI   PO4  900  17.672  13.282  10.116 -0.2529 -0.0612 -0.2567
   57loPI   GL1  901  17.827  13.649   9.775  0.0625  0.2465 -0.0160
   57loPI   GL2  902  17.470  13.742   9.898  0.2233  0.1856 -0.0040
   57loPI   C1A  903  18.217  13.610   9.558  0.1507  0.1719  0.1436
   57loPI   C2A  904  18.470  13.706   9.210 -0.2348  0.0866 -0.0040
   57loPI   C3A  905  18.699  13.473   8.909  0.0987 -0.0276 -0.2281
   57loPI   C4A  906  18.965  13.507   8.692  0.0155 -0.1459  0.0102
   57loPI   C5A  907  19.382  13.665   8.615  0.2498 -0.0223 -0.2654
   57loPI   C6A  908  19.697  13.670   8.909  0.0147 -0.0542  0.0439
   57loPI   C1B  909  17.493  13.629   9.469  0.1094 -0.0072  0.0445
   57loPI   C2B  910  17.543  13.686   8.908 -0.0856 -0.1767 -0.2316
   57loPI   C3B  911  17.642  13.880   8.465  0.0828 -0.0632  0.1701
   57loPI   C4B  912  17.584  14.269   8.173 -0.0579  0.2033 -0.2711
   58loPI    C1  913  10.376   3.675  10.595  0.0256  0.2128 -0.1236
   58loPI    C2  914  10.762   3.617  10.682  0.0208  0.0798 -0.1884
   58loPI    C3  915  10.633   3.981  10.580  0.0891  0.1683  0.0346
   58loPI   PO4  916  10.322   3.511  10.318  0.0247 -0.0726 -0.1848
   58loPI   GL1  917  10.188   3.573   9.895  0.0323 -0.1143 -0.1787
   58loPI   GL2  918   9.984   3.303   9.818 -0.0998 -0.0583 -0.1073
   58loPI   C1A  919  10.524   3.627   9.631  0.2064 -0.0080 -0.1155
   58loPI   C2A  920  10.618   3.446   9.206  0.0569  0.0394  0.0754
   58loPI   C3A  921  10.717   3.497   8.812  0.0352 -0.0329 -0.0001
   58loPI   C4A  922  10.763   3.631   8.446 -0.1736  0.1653  0.2299
   58loPI   C5A  923  10.981   3.722   8.134 -0.1514 -0.1485 -0.1797
   58loPI   C6A  924  11.256   3.950   7.797  0.3306 -0.1787  0.0158
   58loPI   C1B  925  10.095   3.339   9.478  0.0342 -0.1748 -0.0343
   58loPI   C2B  926  10.097   3.337   9.045  0.0240 -0.3073 -0.3481
   58loPI   C3B  927  10.001   3.205   8.748 -0.1666 -0.0790  0.0070
   58loPI   C4B  928   9.685   3.132   8.394 -0.0544 -0.0911  0.2066
   59loPI    C1  929   5.320  12.572  10.846 -0.1679 -0.0514  0.0685
   59loPI    C2  930   5.481  12.564  11.212 -0.0851  0.1043  0.0363
   59loPI    C3  931   5.472  12.906  11.006  0.0433 -0.0234 -0.1850
   59loPI   PO4  932   5.526  12.340  10.716  0.1568 -0.0642  0.3395
   59loPI   GL1  933   5.601  12.283  10.341  0.3243  0.1411  0.1470
   59loPI   GL2  934   5.342  12.499  10.256  0.1076  0.1067  0.1317
   59loPI   C1A  935   5.804  12.094   9.984 -0.0487  0.0691 -0.2316
   59loPI   C2A  936   5.916  12.047   9.587  0.3361  0.2310 -0.0281
   59loPI   C3A  937   5.882  12.016   9.180  0.0267  0.0062 -0.0473
   59loPI   C4A  938   5.973  11.791   8.772 -0.0770 -0.3328 -0.2309
   59loPI   C5A  939   5.963  11.613   8.428 -0.0967  0.1296 -0.0739
   59loPI   C6A  940   5.833  11.432   7.965  0.3250 -0.1045  0.1387
   59loPI   C1B  941   5.358  12.377   9.822  0.2361 -0.2255 -0.1334
   59loPI   C2B  942   5.445  12.293   9.463  0.1668  0.1528 -0.1131
   59loPI   C3B  943   5.532  12.302   8.991 -0.0705  0.1364  0.0732
   59loPI   C4B  944   5.757  12.196   8.604 -0.0266  0.1115 -0.0417
   60loPI    C1  945   0.996   6.412  10.848  0.0497 -0.1213  0.2523
   60loPI    C2  946   1.265   6.474  11.137  0.1351  0.1436  0.1189
   60loPI    C3  947   0.935   6.699  11.120  0.0815  0.0615  0.0688
   60loPI   PO4  948   1.141   6.391  10.656  0.1759  0.5159 -0.1298
   60loPI   GL1  949   1.126   6.377  10.253 -0.0589  0.0066  0.2683
   60loPI   GL2  950   1.334   6.493   9.945 -0.2049  0.1509  0.0558
   60loPI   C1A  951   0.777   6.339   9.938  0.4424 -0.0071 -0.1261
   60loPI   C2A  952   0.632   6.185   9.548 -0.1682  0.2827 -0.0335
   60loPI   C3A  953   0.763   6.197   9.178  0.1729  0.4285 -0.1715
   60loPI   C4A  954   0.695   6.237   8.758 -0.1982 -0.2694  0.0909
   60loPI   C5A  955   0.625   5.823   8.425 -0.2714 -0.0784 -0.0306
   60loPI   C6A  956   0.459   5.384   8.335 -0.3741  0.0714  0.1613
   60loPI   C1B  957   1.156   6.479   9.489 -0.1430 -0.0826 -0.1665
   60loPI   C2B  958   1.307   6.285   9.062  0.0075  0.1586  0.1517
   60loPI   C3B  959   1.577   6.120   8.836 -0.0609 -0.0737  0.1694
   60loPI   C4B  960   1.583   5.951   8.491 -0.3663  0.0605 -0.3015
   61loPI    C1  961  17.386  10.024  10.514  0.0144 -0.0656 -0.0364
   61loPI    C2  962  17.620  10.339  10.594  0.1335 -0.0835 -0.3025
   61loPI    C3  963  17.741   9.970  10.691 -0.0272 -0.0477  0.0528
   61loPI   PO4  964  17.428  10.022  10.172 -0.1081  0.1341 -0.1167
   61loPI   GL1  965  17.289  10.235   9.755  0.0193 -0.1031  0.0117
   61loPI   GL2  966  17.338   9.959   9.707 -0.3712  0.1538 -0.0171
   61loPI   C1A  967  17.400  10.285   9.306  0.1391 -0.2877  0.1618
   61loPI   C2A  968  17.482  10.256   8.904  0.1102 -0.1198 -0.2840
   61loPI   C3A  969  17.500  10.307   8.563  0.0101  0.0040 -0.0155
   61loPI   C4A  970  17.675  10.265   8.052 -0.1995  0.1912  0.1037
   61loPI   C5A  971  18.052  10.155   7.878 -0.2252  0.0131 -0.2377
   61loPI   C6A  972  18.255  10.208   7.550  0.1360  0.0454 -0.1132
   61loPI   C1B  973  17.578   9.815   9.384  0.0603  0.1319 -0.1212
   61loPI   C2B  974  17.642   9.817   8.946 -0.3135  0.0298  0.3255
   61loPI   C3B  975  17.875   9.845   8.561 -0.1037 -0.1757 -0.2082
   61loPI   C4B  976  18.171   9.775   8.228 -0.0328 -0.2492  0.0968
   62loPI    C1  977  13.175   3.879  10.780  0.1222  0.1481 -0.0346
   62loPI    C2  978  13.221   3.863  11.177 -0.0124  0.1904 -0.0168
   62loPI    C3  979  13.330   4.191  10.976  0.2484  0.0902 -0.0417
   62loPI   PO4  980  12.934   3.796  10.699  0.0693 -0.3061 -0.1873
   62loPI   GL1  981  12.873   3.658  10.345 -0.3250  0.1117  0.0421
   62loPI   GL2  982  13.141   3.454  10.269 -0.3528  0.2760  0.2878
   62loPI   C1A  983  12.870   3.862   9.916  0.2354  0.2224 -0.0438
   62loPI   C2A  984  13.031   3.793   9.399 -0.2397  0.0322 -0.0861
   62loPI   C3A  985  13.185   3.635   9.017 -0.1932  0.2385  0.1920
   62loPI   C4A  986  13.254   3.663   8.595 -0.0062 -0.0398 -0.3268
   62loPI   C5A  987  13.356   3.822   8.180 -0.2264 -0.0397  0.0662
   62loPI   C6A  988  13.274   3.931   7.761  0.2011  0.0723  0.1640
   62loPI   C1B  989  13.346   3.538   9.895 -0.2158 -0.1211  0.1120
   62loPI   C2B  990  13.374   3.386   9.521 -0.0168  0.0341  0.0499
   62loPI   C3B  991  13.483   3.267   9.177  0.1286 -0.0008 -0.1304
   62loPI   C4B  992  13.413   3.273   8.828  0.4527  0.0064  0.1882
   63loPI    C1  993  13.634  10.663  10.611 -0.1912  0.3021 -0.0249
   63loPI    C2  994  14.017  10.603  10.709 -0.1659  0.1739 -0.1973
   63loPI    C3  995  13.762  10.749  10.980 -0.0610 -0.0157  0.0070
   63loPI   PO4  996  13.707  10.698  10.295  0.0396  0.0671 -0.2980
   63loPI   GL1  997  13.534  10.489   9.991  0.1313 -0.0880  0.0650
   63loPI   GL2  998  13.881  10.316  10.003 -0.1572  0.0047  0.0860
   63loPI   C1A  999  13.615  10.251   9.579  0.4168 -0.1731  0.0942
   63loPI   C2A 1000  13.570  10.161   9.159 -0.1290  0.0735 -0.1130
   63loPI   C3A 1001  13.502  10.254   8.730  0.2635 -0.1085  0.0666
   63loPI   C4A 1002  13.454  10.150   8.257  0.0619  0.2587 -0.0135
   63loPI   C5A 1003  13.459   9.856   7.885  0.0398 -0.0889  0.4021
   63loPI   C6A 1004  13.797   9.692   7.577 -0.0694 -0.0675 -0.0802
   63loPI   C1B 1005  14.077  10.423   9.660 -0.2567 -0.2279  0.2516
   63loPI   C2B 1006  13.995  10.524   9.221 -0.0731  0.0586 -0.1481
   63loPI   C3B 1007  13.955  10.452   8.814 -0.2624  0.1107  0.0890
   63loPI   C4B 1008  13.769  10.516   8.370 -0.1728  0.0769  0.0185
   64loPI    C1 1009  16.136   6.941  10.749 -0.2793  0.0765  0.0417
   64loPI    C2 1010  16.457   7.179  10.737 -0.1985 -0.0322  0.0254
   64loPI    C3 1011  16.368   6.947  10.423 -0.3353  0.0517  0.0011
   64loPI   PO4 1012  15.914   7.097  10.790 -0.1100 -0.0629 -0.1137
   64loPI   GL1 1013  15.549   7.068  10.438  0.5143  0.0856 -0.0147
   64loPI   GL2 1014  15.827   6.861  10.361  0.0563 -0.1782  0.2773
   64loPI   C1A 1015  15.420   6.858  10.046 -0.1551  0.0149 -0.5176
   64loPI   C2A 1016  15.440   6.886   9.566 -0.1684  0.3302 -0.3708
   64loPI   C3A 1017  15.494   6.843   9.207  0.1276 -0.1621  0.0504
   64loPI   C4A 1018  15.602   7.029   8.813  0.5542 -0.1734 -0.0584
   64loPI   C5A 1019  15.651   6.988   8.337  0.1264  0.0965 -0.2369
   64loPI   C6A 1020  15.943   7.118   8.044 -0.0078  0.1772 -0.3366
   64loPI   C1B 1021  15.820   6.624   9.900  0.1019  0.0441  0.2302
   64loPI   C2B 1022  15.946   6.589   9.475 -0.1455 -0.1320 -0.2687
   64loPI   C3B 1023  15.937   6.645   9.026 -0.2474  0.0597 -0.0857
   64loPI   C4B 1024  15.988   6.502   8.693 -0.0966  0.1261  0.3019
   65loPI    C1 1025  18.048   6.335  11.091 -0.1246  0.0576  0.0644
   65loPI    C2 1026  18.223   5.997  11.214  0.0785  0.1381  0.0011
   65loPI    C3 1027  17.999   6.211  11.467 -0.0395 -0.0359  0.0449
   65loPI   PO4 1028  18.190   6.363  10.812 -0.1426 -0.1714 -0.0205
   65loPI   GL1 1029  18.018   6.316  10.380  0.0307  0.0425  0.0970
   65loPI   GL2 1030  18.346   6.073  10.336 -0.1181  0.0451  0.1208
   65loPI   C1A 1031  17.849   6.256   9.973 -0.2188 -0.2304  0.2002
   65loPI   C2A 1032  17.725   6.326   9.609 -0.0208 -0.1643 -0.1769
   65loPI   C3A 1033  17.804   6.296   9.111  0.5283  0.1022  0.0744
   65loPI   C4A 1034  17.659   6.551   8.689 -0.0058 -0.1837  0.0335
   65loPI   C5A 1035  17.778   6.535   8.189  0.0125 -0.1287 -0.3118
   65loPI   C6A 1036  17.519   6.334   7.951  0.2447  0.0686 -0.1295
   65loPI   C1B 1037  18.317   5.979   9.919 -0.0117 -0.2004 -0.1885
   65loPI   C2B 1038  18.186   6.051   9.536 -0.1274  0.1333 -0.1667
   65loPI   C3B 1039  18.312   5.780   9.149 -0.1681  0.2574 -0.3875
   65loPI   C4B 1040  18.342   5.548   8.756 -0.2039 -0.1915 -0.1065
   66loPI    C1 1041   7.547  11.026  10.578 -0.1295 -0.0119 -0.1946
   66loPI    C2 1042   7.235  10.858  10.393 -0.1026 -0.0881 -0.1707
   66loPI    C3 1043   7.331  10.747  10.765 -0.1208  0.0227 -0.1328
   66loPI   PO4 1044   7.728  11.104  10.348 -0.2266  0.4473 -0.0729
   66loPI   GL1 1045   7.929  11.002   9.889 -0.0464 -0.1975  0.2515
   66loPI   GL2 1046   7.999  11.328   9.896 -0.0858  0.3131 -0.3001
   66loPI   C1A 1047   7.931  11.103   9.390  0.0249 -0.1765 -0.1333
   66loPI   C2A 1048   7.958  11.213   8.888  0.2310  0.0552  0.1561
   66loPI   C3A 1049   7.875  11.300   8.588 -0.2545  0.1445 -0.1753
   66loPI   C4A 1050   7.603  11.186   8.252 -0.1654  0.1822  0.2824
   66loPI   C5A 1051   7.703  11.062   7.831  0.1157 -0.2875 -0.3678
   66loPI   C6A 1052   7.777  10.683   7.656 -0.0573 -0.1708 -0.0417
   66loPI   C1B 1053   7.831  11.586   9.660 -0.0404  0.1694  0.0043
   66loPI   C2B 1054   7.939  11.557   9.213  0.0359 -0.1636 -0.1520
   66loPI   C3B 1055   8.042  11.809   8.874  0.0266 -0.1806 -0.0326
   66loPI   C4B 1056   7.956  11.766   8.457  0.1339  0.0588  0.0071
   67loPI    C1 1057   8.976   8.870  10.519  0.0123 -0.0788  0.2097
   67loPI    C2 1058   8.727   8.876  10.833 -0.3282 -0.0923 -0.0538
   67loPI    C3 1059   8.877   9.218  10.689 -0.1126 -0.0920  0.1655
   67loPI   PO4 1060   8.854   8.753  10.359  0.1402 -0.0189  0.1290
   67loPI   GL1 1061   8.976   8.935   9.948 -0.2725 -0.2067 -0.1821
   67loPI   GL2 1062   9.327   9.073   9.789  0.1778  0.1181  0.0916
   67loPI   C1A 1063   8.814   8.859   9.535 -0.1545 -0.0591 -0.2253
   67loPI   C2A 1064   8.802   8.811   9.175 -0.2924  0.1277 -0.2220
   67loPI   C3A 1065   8.634   8.698   8.862  0.0939  0.1012 -0.0036
   67loPI   C4A 1066   8.495   8.573   8.484  0.2231 -0.0905  0.0285
   67loPI   C5A 1067   8.146   8.452   8.195 -0.2458 -0.2276  0.1735
   67loPI   C6A 1068   8.026   8.666   7.784  0.3068 -0.0070 -0.3889
   67loPI   C1B 1069   9.260   8.723   9.441 -0.2405 -0.1835  0.1193
   67loPI   C2B 1070   9.282   8.511   9.027 -0.1164 -0.0442 -0.2677
   67loPI   C3B 1071   9.045   8.440   8.574 -0.4616  0.1470 -0.2819
   67loPI   C4B 1072   8.990   8.492   8.113 -0.0172 -0.1468 -0.0669
   68loPI    C1 1073   4.762   4.085  10.714  0.0829 -0.3195 -0.3219
   68loPI    C2 1074   5.009   4.356  10.555 -0.0477  0.1043  0.1706
   68loPI    C3 1075   5.115   4.159  10.886 -0.1764 -0.0594  0.1163
   68loPI   PO4 1076   4.535   4.223  10.711  0.0766 -0.1295 -0.3151
   68loPI   GL1 1077   4.571   4.578  10.373 -0.0460 -0.1749  0.0796
   68loPI   GL2 1078   4.662   4.849  10.447 -0.0168  0.1007 -0.2286
   68loPI   C1A 1079   4.389   4.667  10.075 -0.2478  0.0941 -0.0270
   68loPI   C2A 1080   4.539   4.646   9.613 -0.0494 -0.0455 -0.0839
   68loPI   C3A 1081   4.706   4.494   9.239  0.1036 -0.0235  0.1644
   68loPI   C4A 1082   4.857   4.297   8.866 -0.0124 -0.1252  0.0035
   68loPI   C5A 1083   5.133   3.960   8.772 -0.2023 -0.3221  0.2814
   68loPI   C6A 1084   5.402   3.931   8.392 -0.0734  0.1429  0.2471
   68loPI   C1B 1085   4.883   4.811   9.964  0.0141  0.1226  0.3717
   68loPI   C2B 1086   4.952   4.959   9.625 -0.2683  0.1222 -0.1661
   68loPI   C3B 1087   5.155   4.845   9.274  0.3582  0.1374  0.0272
   68loPI   C4B 1088   5.451   4.955   8.917 -0.1878 -0.2558  0.0187
   69loPI    C1 1089  12.266  12.307  10.852  0.0735 -0.0179 -0.0943
   69loPI    C2 1090  12.618  12.444  10.983  0.0395  0.0625 -0.0859
   69loPI    C3 1091  12.371  12.254  11.234  0.1109 -0.0644 -0.1109
   69loPI   PO4 1092  12.094  12.485  10.716 -0.0172 -0.0075  0.0825
   69loPI   GL1 1093  12.253  12.680  10.337  0.0354 -0.0851  0.1786
   69loPI   GL2 1094  12.421  13.026  10.130  0.0279  0.0952  0.0212
   69loPI   C1A 1095  12.092  12.350   9.934 -0.0237 -0.1940 -0.1780
   69loPI   C2A 1096  12.046  12.468   9.539  0.0154  0.2130 -0.0701
   69loPI   C3A 1097  12.098  12.750   9.208  0.1326 -0.0573  0.0169
   69loPI   C4A 1098  12.339  12.878   8.891 -0.4223 -0.0396 -0.3571
   69loPI   C5A 1099  12.560  12.666   8.477  0.4032 -0.0547  0.2009
   69loPI   C6A 1100  12.622  12.569   8.078  0.3304  0.1846 -0.0175
   69loPI   C1B 1101  12.601  13.254   9.838 -0.1119 -0.3421 -0.0261
   69loPI   C2B 1102  12.768  13.144   9.464 -0.2414  0.1105 -0.1802
   69loPI   C3B 1103  12.701  13.219   9.024 -0.1262  0.1655 -0.0599
   69loPI   C4B 1104  12.584  13.343   8.537 -0.0068  0.0908  0.2766
   70loPI    C1 1105   2.052   7.334  10.458  0.0490 -0.0853  0.1802
   70loPI    C2 1106   2.261   7.504  10.753  0.5500 -0.0350 -0.1911
   70loPI    C3 1107   2.301   7.113  10.680  0.0501 -0.1519  0.1132
   70loPI   PO4 1108   2.094   7.496  10.217  0.0998 -0.1134  0.3503
   70loPI   GL1 1109   2.441   7.683   9.952 -0.0488  0.4439  0.3860
   70loPI   GL2 1110   2.299   7.392   9.822  0.2778  0.0299 -0.0459
   70loPI   C1A 1111   2.795   7.659   9.620  0.3447 -0.0951 -0.4920
   70loPI   C2A 1112   2.686   7.699   9.151 -0.0920  0.3603  0.0822
   70loPI   C3A 1113   2.627   7.654   8.724  0.3831  0.0870  0.0968
   70loPI   C4A 1114   2.588   7.697   8.283 -0.0697  0.0435  0.0769
   70loPI   C5A 1115   2.272   7.507   7.935  0.0162  0.1370  0.1892
   70loPI   C6A 1116   1.936   7.141   7.934  0.0802 -0.0662 -0.2088
   70loPI   C1B 1117   2.259   7.605   9.453 -0.2453  0.1226 -0.2136
   70loPI   C2B 1118   2.124   7.653   8.997 -0.0888  0.0966  0.1439
   70loPI   C3B 1119   2.135   7.950   8.749  0.0290 -0.0432  0.0326
   70loPI   C4B 1120   2.248   8.080   8.351 -0.1297 -0.0003 -0.0903
   71loPI    C1 1121  16.598   3.144  10.708 -0.2287 -0.1712 -0.0141
   71loPI    C2 1122  16.562   2.762  10.821 -0.1316 -0.1756  0.0028
   71loPI    C3 1123  16.874   2.979  10.945 -0.0906 -0.1433 -0.1541
   71loPI   PO4 1124  16.569   3.076  10.391  0.2111 -0.0070 -0.0538
   71loPI   GL1 1125  16.328   2.901  10.001 -0.2645  0.0191 -0.1825
   71loPI   GL2 1126  16.524   2.649   9.745  0.0755 -0.0417 -0.1460
   71loPI   C1A 1127  16.274   3.334   9.830 -0.1016 -0.4147  0.0684
   71loPI   C2A 1128  16.341   3.519   9.414 -0.1335  0.1975  0.0147
   71loPI   C3A 1129  16.170   3.492   8.951  0.1754 -0.0162 -0.2910
   71loPI   C4A 1130  15.810   3.315   8.828  0.1563 -0.1833  0.0705
   71loPI   C5A 1131  15.535   3.405   8.444 -0.1274 -0.0594 -0.2527
   71loPI   C6A 1132  15.116   3.229   8.506  0.1129  0.0485  0.0995
   71loPI   C1B 1133  16.512   2.938   9.499  0.2475 -0.1426  0.1249
   71loPI   C2B 1134  16.387   3.067   9.170  0.1361 -0.1648 -0.1415
   71loPI   C3B 1135  16.396   3.074   8.780  0.2876 -0.0732 -0.0690
   71loPI   C4B 1136  16.446   3.281   8.357  0.2274  0.0919  0.2425
   72loPI    C1 1137   0.443  10.714  10.074 -0.0010  0.0045  0.1215
   72loPI    C2 1138   0.663  10.740  10.408 -0.0358  0.0430  0.1414
   72loPI    C3 1139   0.403  10.439  10.362  0.0354 -0.0140  0.1090
   72loPI   PO4 1140   0.364  11.019  10.069 -0.1915  0.0240 -0.2110
   72loPI   GL1 1141   0.108  11.187   9.689  0.0301  0.2308  0.1406
   72loPI   GL2 1142   0.327  11.422   9.747  0.0223 -0.1643 -0.1683
   72loPI   C1A 1143  -0.030  11.204   9.350  0.0617  0.0421 -0.0604
   72loPI   C2A 1144   0.035  11.237   8.927 -0.0739  0.1875 -0.1397
   72loPI   C3A 1145  -0.051  11.261   8.556 -0.1758 -0.0669  0.1944
   72loPI   C4A 1146  -0.149  11.115   8.159  0.1591 -0.3317  0.2142
   72loPI   C5A 1147  -0.448  10.761   7.881 -0.0273 -0.2136  0.3247
   72loPI   C6A 1148  -0.171  10.551   7.593 -0.0700 -0.2029  0.2405
   72loPI   C1B 1149   0.236  11.664   9.373  0.1996 -0.0681 -0.2847
   72loPI   C2B 1150   0.416  11.762   8.900  0.0825  0.1385 -0.2252
   72loPI   C3B 1151   0.335  11.638   8.547 -0.2621  0.0145 -0.0798
   72loPI   C4B 1152   0.118  11.578   8.123  0.0497  0.1021 -0.1647
   73loPI    C1 1153  13.676   3.584  10.778  0.0591  0.1575 -0.0902
   73loPI    C2 1154  13.683   3.827  11.096  0.1482  0.0096  0.0215
   73loPI    C3 1155  13.588   3.441  11.141  0.1758 -0.0153 -0.1293
   73loPI   PO4 1156  13.617   3.616  10.608 -0.1284  0.0944  0.2698
   73loPI   GL1 1157  13.505   3.784  10.261 -0.1331 -0.2624  0.2220
   73loPI   GL2 1158  13.248   4.002  10.274 -0.0982 -0.0187 -0.1482
   73loPI   C1A 1159  13.744   4.103  10.043  0.0353 -0.0567  0.1115
   73loPI   C2A 1160  13.877   4.117   9.682  0.0592  0.0841 -0.2394
   73loPI   C3A 1161  14.050   4.099   9.205  0.0213 -0.2468 -0.0260
   73loPI   C4A 1162  14.022   4.226   8.776 -0.1001 -0.1436  0.0433
   73loPI   C5A 1163  14.183   4.133   8.279 -0.1295  0.1749  0.4926
   73loPI   C6A 1164  14.156   4.139   7.851 -0.2004 -0.1906  0.0351
   73loPI   C1B 1165  13.365   4.003   9.761 -0.1124  0.0245 -0.0634
   73loPI   C2B 1166  13.481   4.029   9.329  0.0211 -0.1762 -0.1597
   73loPI   C3B 1167  13.621   3.858   8.881  0.0000 -0.1742 -0.1882
   73loPI   C4B 1168  13.775   3.944   8.412 -0.1238 -0.0278  0.0882
   74loPI    C1 1169  10.891   0.902  10.462 -0.0132  0.1237  0.0044
   74loPI    C2 1170  10.794   1.073  10.810  0.3771  0.2733  0.0437
   74loPI    C3 1171  11.138   0.871  10.775 -0.0205 -0.4196 -0.0343
   74loPI   PO4 1172  10.822   1.194  10.290 -0.2397 -0.1019  0.2246
   74loPI   GL1 1173  10.574   1.343   9.904  0.0043 -0.1267  0.1248
   74loPI   GL2 1174  10.545   1.630   9.782  0.0790  0.0206  0.1081
   74loPI   C1A 1175  10.605   1.034   9.577  0.3279  0.0354  0.0306
   74loPI   C2A 1176  10.924   0.739   9.325  0.0161  0.1282  0.2872
   74loPI   C3A 1177  11.156   0.766   8.934  0.1303 -0.1779 -0.1141
   74loPI   C4A 1178  11.118   0.575   8.502 -0.0721  0.2204  0.0715
   74loPI   C5A 1179  10.993   0.347   8.234 -0.0979  0.0592  0.0628
   74loPI   C6A 1180  10.628   0.112   8.256 -0.0409 -0.1790 -0.0026
   74loPI   C1B 1181  10.595   1.589   9.317  0.1973 -0.1476  0.0642
   74loPI   C2B 1182  10.487   1.449   8.922  0.0141  0.0104  0.2358
   74loPI   C3B 1183  10.754   1.252   8.681  0.0768 -0.0252 -0.1477
   74loPI   C4B 1184  10.800   0.921   8.205 -0.2325 -0.1538  0.0483
   75loPI    C1 1185   3.108   8.331  10.419 -0.0275 -0.2050 -0.0976
   75loPI    C2 1186   3.175   8.561  10.739 -0.1945 -0.1683 -0.0882
   75loPI    C3 1187   2.800   8.471  10.632 -0.1430 -0.1057 -0.3265
   75loPI   PO4 1188   3.234   8.466  10.262 -0.2358 -0.1329  0.1986
   75loPI   GL1 1189   3.353   8.488   9.840  0.0204 -0.1132 -0.0079
   75loPI   GL2 1190   3.654   8.581   9.951  0.1012 -0.0975 -0.0092
   75loPI   C1A 1191   3.486   8.358   9.395  0.2240 -0.0601  0.2860
   75loPI   C2A 1192   3.351   8.352   9.003 -0.1201  0.2529 -0.0062
   75loPI   C3A 1193   3.467   8.169   8.637 -0.2672  0.0281  0.1130
   75loPI   C4A 1194   3.609   8.041   8.248 -0.0438 -0.0524 -0.1067
   75loPI   C5A 1195   3.744   7.714   7.993  0.2345  0.0181 -0.3557
   75loPI   C6A 1196   3.735   7.414   7.609  0.0857  0.1961 -0.0159
   75loPI   C1B 1197   3.619   8.830   9.553  0.1088  0.0537  0.0559
   75loPI   C2B 1198   3.602   8.762   9.176 -0.1559 -0.0705  0.0858
   75loPI   C3B 1199   3.585   8.776   8.805  0.2136  0.0200  0.0127
   75loPI   C4B 1200   3.549   8.620   8.414  0.0913 -0.1702  0.1592
   76loPI    C1 1201   1.955  17.755  10.672  0.0088  0.2757  0.2865
   76loPI    C2 1202   1.613  17.957  10.624  0.0108  0.1595 -0.2877
   76loPI    C3 1203   1.957  18.112  10.491  0.1318  0.1196 -0.0269
   76loPI   PO4 1204   1.811  17.458  10.643  0.4567 -0.3684 -0.0982
   76loPI   GL1 1205   2.051  17.041  10.386 -0.0498  0.1838  0.3874
   76loPI   GL2 1206   1.691  17.014  10.330 -0.3614 -0.1262 -0.3312
   76loPI   C1A 1207   2.170  17.207  10.069 -0.0896 -0.0010 -0.5027
   76loPI   C2A 1208   2.127  17.067   9.645 -0.1332 -0.0674  0.1465
   76loPI   C3A 1209   2.131  17.188   9.350  0.0630 -0.0515  0.0761
   76loPI   C4A 1210   2.375  17.159   9.048  0.1755  0.3121 -0.0180
   76loPI   C5A 1211   2.629  17.355   8.706 -0.2858 -0.0415 -0.0901
   76loPI   C6A 1212   2.519  17.824   8.605  0.0607 -0.0152 -0.0189
   76loPI   C1B 1213   1.779  16.875   9.942  0.3352  0.0546  0.0444
   76loPI   C2B 1214   1.853  16.611   9.515 -0.1090 -0.0443  0.2281
   76loPI   C3B 1215   1.805  16.458   9.149 -0.1060  0.0653 -0.1774
   76loPI   C4B 1216   1.547  16.481   8.755  0.1054 -0.1483  0.1213
   77loPI    C1 1217   3.226  17.960  11.001  0.1007  0.0830 -0.0802
   77loPI    C2 1218   2.991  17.945  11.324  0.1634 -0.1568 -0.0438
   77loPI    C3 1219   3.185  18.283  11.233 -0.2924  0.0861 -0.1457
   77loPI   PO4 1220   3.016  17.838  10.803 -0.2703 -0.0716 -0.2204
   77loPI   GL1 1221   2.893  17.768  10.368  0.1287 -0.1400  0.0494
   77loPI   GL2 1222   2.929  18.112  10.347  0.2965  0.3162 -0.1884
   77loPI   C1A 1223   2.962  17.664  10.041 -0.1851 -0.3459 -0.2631
   77loPI   C2A 1224   2.745  17.883   9.696  0.1798  0.2211 -0.0978
   77loPI   C3A 1225   2.368  17.984   9.507 -0.1708  0.3816  0.2152
   77loPI   C4A 1226   2.147  18.141   9.373  0.4034 -0.1187 -0.0117
   77loPI   C5A 1227   1.956  18.016   9.023  0.1602  0.1208  0.2132
   77loPI   C6A 1228   1.925  18.185   8.594 -0.4195 -0.4784  0.3013
   77loPI   C1B 1229   3.106  18.125   9.939  0.0813 -0.1303 -0.0423
   77loPI   C2B 1230   3.201  17.886   9.619 -0.0196  0.1170  0.0203
   77loPI   C3B 1231   3.130  17.915   9.155  0.0126  0.1538  0.2876
   77loPI   C4B 1232   2.980  17.734   8.722 -0.0940  0.0816 -0.0093
   78loPI    C1 1233  14.712  15.564  10.718 -0.0771 -0.0705 -0.0332
   78loPI    C2 1234  15.050  15.369  10.629 -0.0252  0.0912 -0.1987
   78loPI    C3 1235  14.934  15.405  11.010  0.1720  0.0804 -0.1362
   78loPI   PO4 1236  14.755  15.835  10.533  0.3252 -0.1531  0.0181
   78loPI   GL1 1237  14.577  16.074  10.155  0.0045 -0.0489 -0.2452
   78loPI   GL2 1238  14.264  16.025  10.068  0.0854 -0.0266 -0.1245
   78loPI   C1A 1239  14.695  15.945   9.785 -0.1311 -0.1826 -0.0012
   78loPI   C2A 1240  14.729  15.979   9.329 -0.0454 -0.0597  0.0315
   78loPI   C3A 1241  14.951  16.058   8.889 -0.0733 -0.3906 -0.0214
   78loPI   C4A 1242  14.977  15.918   8.400  0.0378  0.1820 -0.2664
   78loPI   C5A 1243  15.205  15.832   8.096  0.0828 -0.0702  0.3599
   78loPI   C6A 1244  15.620  15.725   8.240 -0.1411 -0.1378  0.1840
   78loPI   C1B 1245  14.288  16.116   9.583 -0.2111  0.2101  0.1356
   78loPI   C2B 1246  14.121  15.889   9.292 -0.3285 -0.0184 -0.0167
   78loPI   C3B 1247  14.219  15.602   8.965 -0.3754  0.1377  0.3400
   78loPI   C4B 1248  14.086  15.295   8.704 -0.1200 -0.1826  0.0765
   79loPI    C1 1249  13.991  11.039  10.475  0.1522  0.0415 -0.0937
   79loPI    C2 1250  14.277  11.301  10.573 -0.2099  0.3635  0.1325
   79loPI    C3 1251  14.168  11.018  10.834  0.3252 -0.1625 -0.1888
   79loPI   PO4 1252  13.874  11.206  10.269 -0.0908  0.0391 -0.1567
   79loPI   GL1 1253  13.625  11.325   9.962 -0.0268  0.1888 -0.1089
   79loPI   GL2 1254  13.422  11.055   9.892 -0.1204 -0.0135  0.3128
   79loPI   C1A 1255  13.555  11.415   9.475 -0.3643  0.1588 -0.1175
   79loPI   C2A 1256  13.644  11.547   9.028 -0.0658 -0.5673 -0.1838
   79loPI   C3A 1257  13.979  11.455   8.739 -0.0598 -0.0170 -0.1914
   79loPI   C4A 1258  14.205  11.676   8.501  0.1876 -0.2071 -0.0647
   79loPI   C5A 1259  14.312  12.020   8.351  0.4550  0.1366 -0.2689
   79loPI   C6A 1260  14.455  12.330   8.154  0.0999  0.0892 -0.0595
   79loPI   C1B 1261  13.472  10.768   9.570 -0.2368  0.2261 -0.1677
   79loPI   C2B 1262  13.506  10.698   9.130 -0.0423  0.2663  0.3026
   79loPI   C3B 1263  13.417  10.732   8.653 -0.1302  0.0556  0.0494
   79loPI   C4B 1264  13.303  10.896   8.168  0.3779  0.0138  0.0417
   80loPI    C1 1265   7.021  15.673  10.751  0.0109 -0.0037  0.0508
   80loPI    C2 1266   7.293  15.923  10.598 -0.1925  0.1298 -0.0979
   80loPI    C3 1267   6.907  15.964  10.501 -0.2407 -0.1834 -0.0481
   80loPI   PO4 1268   7.159  15.339  10.627 -0.2600  0.0153 -0.0312
   80loPI   GL1 1269   7.414  15.005  10.434  0.1595  0.1107  0.2506
   80loPI   GL2 1270   7.754  15.010  10.364 -0.2179  0.1900 -0.2628
   80loPI   C1A 1271   7.441  15.195  10.041  0.1682 -0.0804 -0.1357
   80loPI   C2A 1272   7.265  15.245   9.510  0.2098  0.2441 -0.1780
   80loPI   C3A 1273   7.336  15.572   9.184 -0.3697 -0.1211  0.3481
   80loPI   C4A 1274   7.419  15.669   8.689  0.3175  0.2459 -0.0338
   80loPI   C5A 1275   7.328  15.531   8.287  0.0333 -0.0500  0.0214
   80loPI   C6A 1276   7.112  15.269   7.962 -0.3001  0.0997  0.3345
   80loPI   C1B 1277   7.852  14.924   9.964 -0.2740  0.0370 -0.2586
   80loPI   C2B 1278   7.759  15.024   9.534 -0.1449  0.0357 -0.1010
   80loPI   C3B 1279   7.718  15.229   9.047  0.0210 -0.1991 -0.0083
   80loPI   C4B 1280   7.686  15.260   8.674  0.1509 -0.0254  0.2968
   81loPI    C1 1281  14.857   4.432  10.692 -0.0886  0.1470 -0.0180
   81loPI    C2 1282  14.789   4.668  11.007 -0.0122  0.0508  0.0714
   81loPI    C3 1283  15.159   4.533  10.934 -0.0389  0.0319 -0.0307
   81loPI   PO4 1284  14.759   4.436  10.491 -0.0751 -0.0946 -0.1372
   81loPI   GL1 1285  14.786   4.480  10.078  0.2902 -0.1163 -0.0712
   81loPI   GL2 1286  15.065   4.485  10.067  0.1543 -0.2034 -0.0019
   81loPI   C1A 1287  14.775   4.532   9.623 -0.2696  0.0278 -0.0851
   81loPI   C2A 1288  14.870   4.605   9.347  0.0158 -0.0175  0.0181
   81loPI   C3A 1289  14.726   4.513   8.907  0.1835 -0.0629 -0.1144
   81loPI   C4A 1290  14.490   4.531   8.515  0.0993  0.0807 -0.0989
   81loPI   C5A 1291  14.062   4.626   8.484 -0.0620 -0.0877 -0.2041
   81loPI   C6A 1292  13.735   4.427   8.331  0.0187 -0.2166 -0.3460
   81loPI   C1B 1293  15.042   4.897   9.767  0.1402 -0.1155 -0.0549
   81loPI   C2B 1294  15.216   4.979   9.481  0.1482 -0.0098 -0.1849
   81loPI   C3B 1295  15.140   4.800   9.044  0.4659 -0.4550  0.0194
   81loPI   C4B 1296  15.229   4.746   8.624 -0.1984 -0.1713 -0.3767
   82loPI    C1 1297  17.219   8.213  10.633  0.0832  0.0994 -0.0327
   82loPI    C2 1298  17.155   8.530  10.870 -0.2195 -0.0093  0.0356
   82loPI    C3 1299  16.933   8.200  10.913 -0.0255 -0.1677 -0.1536
   82loPI   PO4 1300  17.206   8.317  10.297 -0.0798 -0.2423  0.2425
   82loPI   GL1 1301  16.919   8.100   9.909 -0.1185  0.2325  0.3768
   82loPI   GL2 1302  16.854   8.566   9.985  0.0716  0.0591 -0.1290
   82loPI   C1A 1303  17.055   8.204   9.518  0.1079 -0.0654 -0.4528
   82loPI   C2A 1304  16.850   8.190   9.166 -0.4531  0.0974  0.0793
   82loPI   C3A 1305  16.944   8.128   8.736  0.0297 -0.2794 -0.0092
   82loPI   C4A 1306  16.597   7.993   8.445 -0.2340  0.0828  0.1119
   82loPI   C5A 1307  16.422   8.294   8.128 -0.0631  0.1150  0.0279
   82loPI   C6A 1308  16.036   8.155   7.943 -0.3961  0.3870 -0.2845
   82loPI   C1B 1309  16.986   8.679   9.530 -0.0148 -0.2483 -0.3963
   82loPI   C2B 1310  17.168   8.574   9.188 -0.2374  0.0627 -0.1869
   82loPI   C3B 1311  17.283   8.477   8.714  0.2925 -0.1802  0.0720
   82loPI   C4B 1312  17.387   8.129   8.475  0.1378 -0.0221  0.0233
   83loPI    C1 1313   7.680   0.824  11.367 -0.1084  0.1743 -0.1536
   83loPI    C2 1314   7.981   1.087  11.350  0.0755 -0.0237 -0.0296
   83loPI    C3 1315   7.981   0.801  11.630 -0.2231 -0.0353 -0.0374
   83loPI   PO4 1316   7.616   0.906  11.036 -0.1187  0.1771 -0.0007
   83loPI   GL1 1317   7.353   0.833  10.690  0.0638 -0.3726 -0.1565
   83loPI   GL2 1318   7.691   0.840  10.524 -0.3390 -0.2613  0.1452
   83loPI   C1A 1319   7.191   0.697  10.378  0.2493  0.0893 -0.0393
   83loPI   C2A 1320   7.135   0.539  10.012  0.2094 -0.1136  0.1867
   83loPI   C3A 1321   7.057   0.403   9.632  0.0472 -0.0426 -0.2292
   83loPI   C4A 1322   7.021   0.394   9.205 -0.0985 -0.0695  0.3244
   83loPI   C5A 1323   6.990   0.419   8.827 -0.1796 -0.0414 -0.0358
   83loPI   C6A 1324   6.749   0.221   8.618  0.0475  0.1303  0.0728
   83loPI   C1B 1325   7.582   0.665  10.135 -0.3915 -0.3366  0.2345
   83loPI   C2B 1326   7.484   0.673   9.711 -0.2531 -0.2987  0.0969
   83loPI   C3B 1327   7.318   0.789   9.284  0.1835 -0.0868  0.0459
   83loPI   C4B 1328   7.295   0.846   8.831 -0.2197  0.0174  0.0564
   84loPI    C1 1329   0.513  11.274  10.473 -0.1068  0.0145  0.0232
   84loPI    C2 1330   0.380  11.428  10.818 -0.0237  0.0179  0.0542
   84loPI    C3 1331   0.659  11.141  10.821 -0.1464 -0.1035 -0.0048
   84loPI   PO4 1332   0.526  11.464  10.228 -0.0625  0.1804  0.2497
   84loPI   GL1 1333   0.754  11.635   9.935 -0.0824  0.1422  0.1594
   84loPI   GL2 1334   0.543  11.919   9.998 -0.2790 -0.1319  0.0283
   84loPI   C1A 1335   0.778  11.639   9.516  0.0024 -0.1899  0.0830
   84loPI   C2A 1336   0.923  11.671   9.138  0.0608  0.1023 -0.1676
   84loPI   C3A 1337   0.874  11.626   8.678 -0.1178 -0.1233  0.0519
   84loPI   C4A 1338   0.719  11.662   8.214 -0.1746 -0.1670 -0.0542
   84loPI   C5A 1339   0.592  11.773   7.812 -0.1853  0.3761 -0.2029
   84loPI   C6A 1340   0.325  11.962   7.435 -0.2304  0.1555 -0.0035
   84loPI   C1B 1341   0.605  12.069   9.572  0.0357 -0.0155  0.1161
   84loPI   C2B 1342   0.722  12.085   9.207 -0.2008  0.0077  0.2227
   84loPI   C3B 1343   0.652  12.158   8.759 -0.0295 -0.2646  0.3595
   84loPI   C4B 1344   0.475  12.072   8.397 -0.0439 -0.0598 -0.1120
   85loPI    C1 1345  15.026   3.026  10.925  0.0828 -0.1226 -0.2060
   85loPI    C2 1346  15.241   2.752  11.122  0.0658 -0.0865 -0.1369
   85loPI    C3 1347  14.896   2.884  11.275  0.0602 -0.0468 -0.1834
   85loPI   PO4 1348  15.307   3.115  10.644  0.0240 -0.0205 -0.2212
   85loPI   GL1 1349  15.447   3.150  10.193 -0.1803 -0.0125 -0.1751
   85loPI   GL2 1350  15.177   3.244  10.129 -0.1488  0.0630  0.0262
   85loPI   C1A 1351  15.790   3.043   9.969  0.0939 -0.0850  0.0830
   85loPI   C2A 1352  16.051   2.799   9.563  0.0390 -0.0575  0.3126
   85loPI   C3A 1353  16.246   2.575   9.175  0.0804 -0.5224  0.1870
   85loPI   C4A 1354  16.346   2.581   8.734 -0.1710  0.3312 -0.2310
   85loPI   C5A 1355  16.137   2.882   8.423  0.1149 -0.1397 -0.3171
   85loPI   C6A 1356  15.908   3.201   8.231 -0.1848  0.0889  0.2260
   85loPI   C1B 1357  15.359   2.779   9.936 -0.3279 -0.0552  0.3537
   85loPI   C2B 1358  15.531   2.852   9.552 -0.2009  0.4090  0.2344
   85loPI   C3B 1359  15.545   2.602   9.275 -0.0376  0.2392  0.0497
   85loPI   C4B 1360  15.453   2.409   8.838 -0.0235  0.2142 -0.0140
   86loPI    C1 1361  14.754  16.748  11.088 -0.2442 -0.0658  0.0404
   86loPI    C2 1362  14.808  17.026  11.371 -0.1942  0.0408 -0.0727
   86loPI    C3 1363  14.606  16.690  11.455  0.0323 -0.0407  0.1585
   86loPI   PO4 1364  14.844  16.920  10.848 -0.0555 -0.1552  0.0894
   86loPI   GL1 1365  14.677  17.094  10.474  0.2501  0.3157 -0.0931
   86loPI   GL2 1366  14.764  16.691  10.411  0.0463 -0.2671 -0.0987
   86loPI   C1A 1367  14.660  17.036  10.037  0.2101 -0.0632  0.0579
   86loPI   C2A 1368  14.664  17.041   9.601  0.1534 -0.0392  0.2832
   86loPI   C3A 1369  14.869  17.002   9.223  0.0605 -0.0373 -0.0849
   86loPI   C4A 1370  14.915  16.940   8.754  0.1229  0.2769  0.1097
   86loPI   C5A 1371  15.293  16.965   8.554 -0.0085  0.0625 -0.0226
   86loPI   C6A 1372  15.430  16.680   8.301 -0.1966  0.1291  0.0339
   86loPI   C1B 1373  14.973  16.530  10.023 -0.1601  0.1748  0.2527
   86loPI   C2B 1374  14.930  16.491   9.593  0.0725  0.1983 -0.1270
   86loPI   C3B 1375  15.213  16.283   9.347  0.1577 -0.1044  0.3483
   86loPI   C4B 1376  15.661  16.338   9.245 -0.0279 -0.1840  0.2560
   87loPI    C1 1377  15.010   0.563  10.824 -0.0554 -0.1862 -0.0028
   87loPI    C2 1378  15.276   0.848  10.739 -0.0991 -0.1415  0.0099
   87loPI    C3 1379  15.247   0.706  11.112  0.1156 -0.3616 -0.0546
   87loPI   PO4 1380  14.819   0.650  10.626  0.0620 -0.0039 -0.6035
   87loPI   GL1 1381  14.976   0.755  10.215  0.3357 -0.1199  0.1075
   87loPI   GL2 1382  15.263   0.902  10.259  0.0001  0.3081 -0.1507
   87loPI   C1A 1383  14.738   0.745   9.748 -0.1223 -0.0586 -0.0125
   87loPI   C2A 1384  14.677   0.759   9.291  0.1326 -0.3219 -0.3450
   87loPI   C3A 1385  14.940   0.740   8.892  0.3184 -0.0688  0.1370
   87loPI   C4A 1386  14.955   0.712   8.495  0.1065  0.2356  0.0787
   87loPI   C5A 1387  14.671   0.601   8.180  0.0554  0.1011  0.0937
   87loPI   C6A 1388  14.342   0.617   8.092  0.1038 -0.2087 -0.2006
   87loPI   C1B 1389  15.224   1.040   9.802  0.0568  0.0905 -0.1344
   87loPI   C2B 1390  15.260   0.893   9.333 -0.0963 -0.4249 -0.0695
   87loPI   C3B 1391  15.442   0.921   8.958  0.3688  0.5016  0.0611
   87loPI   C4B 1392  15.326   1.042   8.546 -0.2886 -0.0789 -0.1903
   88loPI    C1 1393   8.444   2.881  10.587 -0.0000  0.0997  0.2218
   88loPI    C2 1394   8.649   3.205  10.698 -0.1250  0.1382  0.3425
   88loPI    C3 1395   8.682   2.866  10.907  0.2349 -0.0175  0.0450
   88loPI   PO4 1396   8.398   2.965  10.306 -0.1523  0.0390 -0.0434
   88loPI   GL1 1397   8.355   2.666   9.942 -0.2860 -0.1315  0.1276
   88loPI   GL2 1398   8.579   2.514  10.160 -0.3837 -0.0235 -0.2540
   88loPI   C1A 1399   8.441   2.330   9.646  0.2157  0.1981 -0.1199
   88loPI   C2A 1400   8.392   2.002   9.415  0.0079 -0.0579 -0.3541
   88loPI   C3A 1401   8.208   1.703   9.111 -0.2172  0.1733 -0.0332
   88loPI   C4A 1402   8.091   1.625   8.706 -0.1281  0.1616  0.0913
   88loPI   C5A 1403   8.251   1.416   8.308  0.1965 -0.0193 -0.1727
   88loPI   C6A 1404   8.599   1.276   8.077  0.1980  0.1084  0.3630
   88loPI   C1B 1405   8.524   2.144  10.125  0.1166 -0.1457 -0.3003
   88loPI   C2B 1406   8.120   1.946   9.908  0.2023 -0.1728 -0.0330
   88loPI   C3B 1407   7.930   1.898   9.569 -0.3704 -0.0114 -0.1742
   88loPI   C4B 1408   7.796   1.946   9.156  0.1867  0.1397  0.3415
   89loPI    C1 1409   0.121  16.044  10.820  0.2177 -0.0917  0.0738
   89loPI    C2 1410   0.370  16.263  11.043  0.0040  0.0547  0.1728
   89loPI    C3 1411   0.064  16.072  11.215 -0.0909  0.0685  0.0210
   89loPI   PO4 1412   0.100  16.121  10.584 -0.0295 -0.0429  0.0287
   89loPI   GL1 1413   0.274  16.370  10.225 -0.0615 -0.0682  0.3322
   89loPI   GL2 1414   0.597  16.518  10.327  0.1123  0.0505  0.2895
   89loPI   C1A 1415  -0.037  16.219   9.903 -0.2700 -0.0369  0.0947
   89loPI   C2A 1416  -0.030  16.061   9.429 -0.0676 -0.1804  0.2375
   89loPI   C3A 1417   0.030  15.772   9.069  0.0645  0.0164 -0.0852
   89loPI   C4A 1418   0.228  15.520   8.827 -0.1237 -0.1165  0.0377
   89loPI   C5A 1419   0.163  15.392   8.356 -0.0718 -0.1610 -0.1230
   89loPI   C6A 1420   0.005  14.941   8.364  0.0736 -0.2626 -0.2559
   89loPI   C1B 1421   0.790  16.614   9.922  0.3065 -0.2139 -0.0856
   89loPI   C2B 1422   0.862  16.519   9.536  0.0547  0.0962 -0.0197
   89loPI   C3B 1423   0.913  16.540   9.156  0.0743 -0.1966 -0.5501
   89loPI   C4B 1424   1.007  16.644   8.722 -0.0709 -0.0484  0.1721
   90loPI    C1 1425   6.226   2.432  10.918 -0.1061 -0.4542  0.0127
   90loPI    C2 1426   6.478   2.369  11.222 -0.0006 -0.0301  0.0192
   90loPI    C3 1427   6.175   2.627  11.264  0.1418  0.1967 -0.2995
   90loPI   PO4 1428   6.392   2.462  10.724 -0.0870 -0.0072 -0.0914
   90loPI   GL1 1429   6.367   2.198  10.346  0.1347  0.1785  0.0593
   90loPI   GL2 1430   6.222   1.956  10.405  0.0177  0.0071  0.5689
   90loPI   C1A 1431   6.606   2.317  10.106 -0.2904  0.2595 -0.0366
   90loPI   C2A 1432   6.386   2.130   9.678  0.1867  0.0412 -0.3376
   90loPI   C3A 1433   6.264   2.072   9.262 -0.1117 -0.0533 -0.1367
   90loPI   C4A 1434   6.509   2.184   8.887  0.1879 -0.1071  0.0251
   90loPI   C5A 1435   6.376   2.454   8.507 -0.3437  0.1840 -0.1728
   90loPI   C6A 1436   6.492   2.823   8.335  0.1679 -0.3229 -0.1432
   90loPI   C1B 1437   5.990   2.057  10.024 -0.0021  0.1665  0.0251
   90loPI   C2B 1438   5.958   1.830   9.756 -0.0744  0.0085 -0.2506
   90loPI   C3B 1439   5.797   1.779   9.346  0.0496  0.1616  0.2260
   90loPI   C4B 1440   5.519   1.737   9.082 -0.3287  0.3602  0.0595
   91loPI    C1 1441  14.528  13.862  10.538  0.0364  0.4721  0.0057
   91loPI    C2 1442  14.805  14.142  10.468  0.2697  0.2350 -0.0331
   91loPI    C3 1443  14.911  13.757  10.491 -0.0539  0.1440 -0.0195
   91loPI   PO4 1444  14.343  14.027  10.426 -0.2034 -0.1575 -0.0353
   91loPI   GL1 1445  14.158  14.018  10.030  0.0560  0.0588  0.0282
   91loPI   GL2 1446  13.842  13.951  10.015  0.0320  0.0527 -0.0588
   91loPI   C1A 1447  14.341  13.960   9.624  0.1977  0.1077  0.0329
   91loPI   C2A 1448  14.106  13.835   9.293  0.2596  0.1954 -0.2757
   91loPI   C3A 1449  14.119  13.761   8.812  0.2188  0.1658  0.1429
   91loPI   C4A 1450  14.383  13.843   8.544 -0.0135 -0.0732  0.0297
   91loPI   C5A 1451  14.395  13.746   8.108  0.0065  0.1130  0.0323
   91loPI   C6A 1452  14.340  13.917   7.744 -0.0139 -0.0338 -0.0060
   91loPI   C1B 1453  13.724  14.117   9.547  0.1657  0.1494 -0.1044
   91loPI   C2B 1454  13.518  14.036   9.278 -0.0655 -0.0736  0.2732
   91loPI   C3B 1455  13.646  13.941   8.933 -0.1696 -0.0585  0.3175
   91loPI   C4B 1456  13.678  13.803   8.536  0.0562  0.1197  0.2475
   92loPI    C1 1457  11.905  17.957  10.752  0.2505  0.0241  0.2665
   92loPI    C2 1458  11.581  17.779  10.904  0.1507 -0.0052  0.0230
   92loPI    C3 1459  11.598  18.178  10.882  0.0378 -0.0094 -0.1626
   92loPI   PO4 1460  11.985  17.833  10.545  0.2282 -0.4334 -0.0380
   92loPI   GL1 1461  11.884  17.630  10.223  0.2476 -0.0426  0.0513
   92loPI   GL2 1462  11.585  17.615  10.055  0.2556  0.0032  0.1490
   92loPI   C1A 1463  11.981  17.573   9.766  0.0573  0.0697 -0.0171
   92loPI   C2A 1464  11.727  17.432   9.465 -0.0074  0.1019  0.4201
   92loPI   C3A 1465  11.697  17.413   9.082  0.0029 -0.0796  0.0718
   92loPI   C4A 1466  11.547  17.271   8.730 -0.3036 -0.0380  0.1167
   92loPI   C5A 1467  11.419  17.048   8.436 -0.1631 -0.1103 -0.0303
   92loPI   C6A 1468  11.495  16.586   8.550  0.0462 -0.0764 -0.0867
   92loPI   C1B 1469  11.279  17.556   9.718 -0.1132  0.2781 -0.0318
   92loPI   C2B 1470  11.202  17.522   9.356 -0.0799 -0.0870  0.2587
   92loPI   C3B 1471  11.133  17.403   9.000  0.0134 -0.0740  0.1020
   92loPI   C4B 1472  11.066  17.360   8.586 -0.3109  0.0088  0.2695
   93loPI    C1 1473  11.173   5.103  10.508  0.0346  0.0704  0.1073
   93loPI    C2 1474  11.152   4.777  10.740 -0.1063  0.0123  0.0142
   93loPI    C3 1475  11.072   5.138  10.894  0.0100 -0.0008  0.1074
   93loPI   PO4 1476  11.385   5.019  10.337  0.0289 -0.1086  0.0965
   93loPI   GL1 1477  11.522   5.108   9.894 -0.0104 -0.3517 -0.0481
   93loPI   GL2 1478  11.789   5.196  10.139  0.1234 -0.0707  0.0111
   93loPI   C1A 1479  11.413   5.400   9.533 -0.0081  0.2056 -0.1675
   93loPI   C2A 1480  11.498   5.645   9.128  0.0771 -0.0152  0.0040
   93loPI   C3A 1481  11.477   5.706   8.749  0.1625  0.1683  0.0160
   93loPI   C4A 1482  11.154   5.434   8.427  0.1398 -0.0053  0.1488
   93loPI   C5A 1483  11.141   5.175   8.009 -0.1921 -0.1692  0.4664
   93loPI   C6A 1484  11.177   4.843   7.606 -0.1885  0.1853  0.2635
   93loPI   C1B 1485  11.848   5.464   9.811  0.0952 -0.1230  0.2099
   93loPI   C2B 1486  11.947   5.384   9.361  0.1516 -0.0692 -0.0465
   93loPI   C3B 1487  11.912   5.393   9.023 -0.0949  0.3333 -0.0973
   93loPI   C4B 1488  11.787   5.311   8.660  0.2455  0.0078 -0.2699
   94loPI    C1 1489  11.799  12.077  10.888  0.0551  0.1166 -0.0646
   94loPI    C2 1490  11.821  11.716  11.058  0.1208  0.0975 -0.1133
   94loPI    C3 1491  11.883  12.045  11.278  0.0711  0.0789 -0.0712
   94loPI   PO4 1492  11.609  11.977  10.627  0.2155 -0.0003 -0.1009
   94loPI   GL1 1493  11.692  12.054  10.240 -0.0965  0.0910  0.0556
   94loPI   GL2 1494  11.581  11.659  10.185  0.0391 -0.3311 -0.2187
   94loPI   C1A 1495  11.720  12.081   9.733 -0.3116 -0.0822  0.1478
   94loPI   C2A 1496  11.774  12.227   9.230 -0.1552  0.2119 -0.4302
   94loPI   C3A 1497  11.863  12.455   8.875  0.2186  0.2780  0.0295
   94loPI   C4A 1498  12.063  12.595   8.474 -0.1826  0.0724  0.0342
   94loPI   C5A 1499  12.248  13.065   8.289  0.2661 -0.2536  0.1766
   94loPI   C6A 1500  12.427  13.485   8.069 -0.0233 -0.3226  0.0009
   94loPI   C1B 1501  11.440  11.653   9.781  0.1815 -0.3453 -0.1083
   94loPI   C2B 1502  11.654  11.738   9.363  0.2487 -0.1708  0.1126
   94loPI   C3B 1503  11.697  11.724   8.883  0.0299  0.2814 -0.2329
   94loPI   C4B 1504  11.772  12.034   8.562  0.0558 -0.2947 -0.1055
   95loPI    C1 1505  10.949  17.536  10.787 -0.1627 -0.0803  0.0349
   95loPI    C2 1506  11.155  17.653  11.109  0.2295 -0.0077 -0.2344
   95loPI    C3 1507  10.758  17.703  11.097  0.1665 -0.2738  0.3494
   95loPI   PO4 1508  11.205  17.611  10.594 -0.1547  0.1388 -0.1487
   95loPI   GL1 1509  11.027  17.685  10.193  0.1617  0.1438  0.2973
   95loPI   GL2 1510  10.837  17.500   9.987  0.1202  0.0521  0.0921
   95loPI   C1A 1511  11.107  17.993   9.943 -0.1559 -0.0860 -0.0235
   95loPI   C2A 1512  11.208  17.994   9.514 -0.0940 -0.4299 -0.2944
   95loPI   C3A 1513  11.101  17.921   9.108  0.0998  0.1108  0.0414
   95loPI   C4A 1514  10.786  17.782   8.779 -0.2263 -0.3009 -0.1194
   95loPI   C5A 1515  10.554  17.633   8.434  0.3793 -0.0390 -0.1599
   95loPI   C6A 1516  10.350  17.659   8.116 -0.1457 -0.0583  0.0087
   95loPI   C1B 1517  10.791  17.300   9.604  0.6008  0.2397  0.0170
   95loPI   C2B 1518  10.688  17.373   9.142 -0.0040 -0.2205  0.3084
   95loPI   C3B 1519  10.631  17.151   8.799 -0.4460  0.0574 -0.1622
   95loPI   C4B 1520  10.492  16.989   8.396  0.0317 -0.4676  0.0328
   96loPI    C1 1521  12.139   7.832  10.300  0.1874 -0.0067 -0.1743
   96loPI    C2 1522  12.151   7.566  10.598 -0.0813  0.0002 -0.1547
   96loPI    C3 1523  12.421   7.860  10.583  0.0185 -0.0812  0.0044
   96loPI   PO4 1524  12.232   7.662  10.112  0.5590 -0.2646 -0.0213
   96loPI   GL1 1525  12.213   7.595   9.717  0.3348 -0.0054 -0.0207
   96loPI   GL2 1526  12.560   7.709   9.751 -0.1787  0.0924  0.1910
   96loPI   C1A 1527  12.190   7.656   9.343  0.0428  0.2466 -0.0480
   96loPI   C2A 1528  12.055   7.593   8.888  0.2528 -0.3013  0.2326
   96loPI   C3A 1529  12.135   7.526   8.456  0.0544  0.3830 -0.1622
   96loPI   C4A 1530  12.362   7.848   8.174 -0.1960 -0.1014 -0.0482
   96loPI   C5A 1531  12.648   8.065   7.955  0.1161 -0.0203 -0.1589
   96loPI   C6A 1532  12.750   7.928   7.595 -0.3192  0.2355  0.0748
   96loPI   C1B 1533  12.699   7.709   9.282 -0.3043 -0.3109  0.0060
   96loPI   C2B 1534  12.556   7.565   8.953  0.0501  0.1640  0.0153
   96loPI   C3B 1535  12.637   7.580   8.506 -0.2435  0.1644 -0.0324
   96loPI   C4B 1536  12.759   7.541   8.012 -0.1775  0.1262 -0.0328
   97loPI    C1 1537   1.586   2.021  10.907  0.1986 -0.0343  0.0148
   97loPI    C2 1538   1.545   1.648  11.046 -0.3017  0.0212  0.0325
   97loPI    C3 1539   1.860   1.869  11.156 -0.1072 -0.3235  0.1826
   97loPI   PO4 1540   1.534   1.986  10.680 -0.1396  0.0524 -0.1888
   97loPI   GL1 1541   1.284   2.003  10.424  0.2012 -0.1430  0.0501
   97loPI   GL2 1542   1.168   1.805  10.163  0.0333 -0.5024 -0.0910
   97loPI   C1A 1543   1.569   2.147   9.991  0.0152  0.3918  0.1519
   97loPI   C2A 1544   1.752   2.110   9.597 -0.1693 -0.0362  0.1284
   97loPI   C3A 1545   1.916   2.055   9.193  0.0629  0.1526  0.2379
   97loPI   C4A 1546   2.007   1.949   8.839  0.2711  0.0062  0.0718
   97loPI   C5A 1547   2.099   1.653   8.486 -0.2185  0.1557 -0.1223
   97loPI   C6A 1548   2.297   1.292   8.410 -0.2357 -0.1245  0.0655
   97loPI   C1B 1549   1.361   1.736   9.742  0.0416 -0.1109 -0.0845
   97loPI   C2B 1550   1.442   1.800   9.238  0.2525  0.4607  0.0679
   97loPI   C3B 1551   1.570   1.652   8.898 -0.0366  0.2534 -0.1036
   97loPI   C4B 1552   1.562   1.678   8.382 -0.1889 -0.1709  0.0054
   98loPI    C1 1553   1.265   6.865  10.752  0.1306 -0.0909 -0.0534
   98loPI    C2 1554   1.653   6.835  10.845  0.0586  0.0559  0.3118
   98loPI    C3 1555   1.394   6.982  11.112 -0.2206  0.1368  0.0033
   98loPI   PO4 1556   1.330   6.780  10.465  0.0669  0.0569  0.0967
   98loPI   GL1 1557   1.258   6.941  10.152 -0.3249  0.0008  0.0810
   98loPI   GL2 1558   1.084   7.151  10.165  0.0480 -0.1638 -0.1550
   98loPI   C1A 1559   1.082   6.916   9.686  0.2030  0.2368 -0.0229
   98loPI   C2A 1560   1.176   6.935   9.289 -0.0334  0.0487 -0.4569
   98loPI   C3A 1561   1.166   6.729   8.872 -0.0400 -0.0869  0.1630
   98loPI   C4A 1562   0.842   6.788   8.476 -0.0936 -0.1411 -0.2725
   98loPI   C5A 1563   0.457   6.735   8.239 -0.1260 -0.2632 -0.2552
   98loPI   C6A 1564   0.130   6.888   8.297 -0.4067 -0.1004 -0.0153
   98loPI   C1B 1565   0.701   6.853  10.124  0.2170 -0.1364 -0.1488
   98loPI   C2B 1566   0.592   6.783   9.678 -0.0033 -0.2989 -0.0517
   98loPI   C3B 1567   0.769   6.674   9.314  0.0427  0.2796  0.0925
   98loPI   C4B 1568   0.692   6.699   8.908  0.0352 -0.1750 -0.1608
   99loPI    C1 1569   0.781   7.522  10.518  0.0343  0.1045 -0.2649
   99loPI    C2 1570   1.077   7.296  10.666 -0.1676 -0.0619 -0.1078
   99loPI    C3 1571   1.050   7.682  10.767 -0.2272 -0.1418  0.1917
   99loPI   PO4 1572   0.484   7.238  10.573 -0.2531  0.2316 -0.1328
   99loPI   GL1 1573   0.191   7.052  10.312  0.0060 -0.3751 -0.0670
   99loPI   GL2 1574   0.159   6.776  10.410 -0.1022 -0.0725  0.2763
   99loPI   C1A 1575   0.236   7.058   9.856  0.3348  0.3328 -0.0209
   99loPI   C2A 1576   0.185   7.007   9.412 -0.1145 -0.4218 -0.4568
   99loPI   C3A 1577   0.272   6.782   9.088  0.0708 -0.0850 -0.1178
   99loPI   C4A 1578   0.146   6.562   8.660 -0.0907  0.1419 -0.1748
   99loPI   C5A 1579   0.115   6.308   8.321 -0.3070 -0.1873 -0.1700
   99loPI   C6A 1580   0.370   6.222   8.136  0.0419 -0.2196  0.1400
   99loPI   C1B 1581   0.261   6.519  10.023  0.0411  0.3292  0.6601
   99loPI   C2B 1582   0.219   6.503   9.553 -0.0626 -0.2981  0.1055
   99loPI   C3B 1583   0.258   6.288   9.111  0.1934  0.2114 -0.1178
   99loPI   C4B 1584   0.055   6.056   8.733  0.2035 -0.2334 -0.1095
  100loPI    C1 1585   4.435  12.156  10.858 -0.2235  0.0077 -0.0169
  100loPI    C2 1586   4.770  12.304  11.019 -0.1471 -0.0891 -0.0860
  100loPI    C3 1587   4.421  12.489  11.079 -0.0863 -0.0052  0.0122
  100loPI   PO4 1588   4.566  12.123  10.608 -0.0108 -0.1298 -0.0900
  100loPI   GL1 1589   4.464  11.989  10.290 -0.0679  0.1717  0.1112
  100loPI   GL2 1590   4.732  11.762  10.311 -0.1795 -0.4051  0.3853
  100loPI   C1A 1591   4.372  11.792   9.952 -0.1133 -0.1286  0.2445
  100loPI   C2A 1592   4.620  11.568   9.710  0.0531 -0.1661 -0.1430
  100loPI   C3A 1593   4.808  11.534   9.232  0.0054 -0.0342 -0.0779
  100loPI   C4A 1594   4.850  11.485   8.799 -0.0454 -0.0851  0.0550
  100loPI   C5A 1595   5.069  11.650   8.514  0.0200 -0.0515  0.0068
  100loPI   C6A 1596   5.441  11.870   8.386 -0.2056 -0.0914 -0.3036
  100loPI   C1B 1597   4.969  11.536  10.087 -0.0869  0.0787 -0.0406
  100loPI   C2B 1598   5.106  11.451   9.676  0.1206  0.1153 -0.1076
  100loPI   C3B 1599   5.182  11.226   9.264 -0.0197 -0.0284 -0.0430
  100loPI   C4B 1600   5.226  11.181   8.794 -0.0931 -0.0651 -0.2323
  101loPI    C1 1601   1.025   9.094  10.393 -0.0432 -0.2778  0.1355
  101loPI    C2 1602   0.744   9.374  10.344  0.2241 -0.0190  0.0545
  101loPI    C3 1603   1.074   9.456  10.555  0.2811 -0.2910  0.0742
  101loPI   PO4 1604   0.763   8.897  10.171  0.0614  0.0314  0.1401
  101loPI   GL1 1605   0.426   8.880   9.970 -0.1494  0.0659 -0.2102
  101loPI   GL2 1606   0.221   9.117  10.014  0.3358 -0.2910  0.3030
  101loPI   C1A 1607   0.486   8.812   9.545 -0.1973  0.0093  0.0902
  101loPI   C2A 1608   0.473   8.776   9.014 -0.1629 -0.0755 -0.1777
  101loPI   C3A 1609   0.524   8.582   8.602 -0.0810 -0.0154  0.2282
  101loPI   C4A 1610   0.770   8.530   8.264  0.0106 -0.1226  0.0605
  101loPI   C5A 1611   0.771   8.312   7.963 -0.2766  0.0930  0.0365
  101loPI   C6A 1612   0.669   8.338   7.574 -0.2248 -0.1508 -0.1541
  101loPI   C1B 1613   0.269   9.264   9.596 -0.1178  0.0470 -0.0976
  101loPI   C2B 1614   0.235   9.318   9.168  0.0106  0.2067  0.0370
  101loPI   C3B 1615   0.424   9.413   8.806 -0.0789  0.0398  0.0645
  101loPI   C4B 1616   0.452   9.313   8.383 -0.2026  0.4293  0.0166
  102loPI    C1 1617  16.690   0.704  10.455 -0.1163  0.3164 -0.0815
  102loPI    C2 1618  16.752   0.446  10.156  0.0050  0.1986  0.0437
  102loPI    C3 1619  16.509   0.347  10.458 -0.0781  0.2976  0.0097
  102loPI   PO4 1620  16.965   0.826  10.421 -0.0009  0.1135 -0.0197
  102loPI   GL1 1621  16.971   0.828   9.971  0.0613  0.0693 -0.1288
  102loPI   GL2 1622  17.214   0.903   9.868  0.1190 -0.1903 -0.0781
  102loPI   C1A 1623  16.973   0.475   9.715  0.1563  0.1866 -0.0676
  102loPI   C2A 1624  16.872   0.206   9.467 -0.0585 -0.2760  0.0170
  102loPI   C3A 1625  16.911   0.050   9.117  0.2414 -0.0824 -0.3051
  102loPI   C4A 1626  16.801  -0.231   8.895  0.1217 -0.1530 -0.2275
  102loPI   C5A 1627  16.636  -0.342   8.459  0.0878 -0.0772  0.0235
  102loPI   C6A 1628  16.439  -0.140   8.162  0.1570  0.0868 -0.2010
  102loPI   C1B 1629  17.221   0.833   9.390  0.0045  0.1357 -0.0245
  102loPI   C2B 1630  17.246   0.800   8.919 -0.1818  0.0108 -0.1919
  102loPI   C3B 1631  17.095   1.112   8.557  0.0041 -0.1603  0.1939
  102loPI   C4B 1632  16.826   1.322   8.354 -0.0042  0.0795  0.1762
  103loPI    C1 1633   5.743   1.391  10.899  0.2479  0.1214  0.0124
  103loPI    C2 1634   5.436   1.499  11.130  0.0982  0.2255 -0.2308
  103loPI    C3 1635   5.742   1.294  11.287 -0.1463  0.0217 -0.0101
  103loPI   PO4 1636   5.664   1.282  10.689 -0.0818  0.2904  0.2442
  103loPI   GL1 1637   5.452   1.233  10.227  0.2854 -0.0959  0.2497
  103loPI   GL2 1638   5.383   1.563  10.290  0.0916 -0.1072  0.0175
  103loPI   C1A 1639   5.563   0.970   9.895 -0.0978  0.1157  0.3936
  103loPI   C2A 1640   5.425   0.550   9.741  0.0548  0.1882  0.4648
  103loPI   C3A 1641   5.119   0.411   9.397  0.1031  0.0202  0.3006
  103loPI   C4A 1642   5.108   0.243   8.871 -0.5328 -0.1023  0.0243
  103loPI   C5A 1643   4.848   0.262   8.592 -0.1813 -0.0456 -0.0476
  103loPI   C6A 1644   4.576   0.400   8.234  0.0189 -0.1300 -0.1334
  103loPI   C1B 1645   5.331   1.883   9.935  0.1285  0.2911  0.2333
  103loPI   C2B 1646   5.205   1.859   9.457  0.1187  0.3466  0.2016
  103loPI   C3B 1647   5.047   1.587   9.106  0.1173 -0.0627  0.1971
  103loPI   C4B 1648   5.030   1.589   8.642 -0.0933  0.0241 -0.0827
  104loPI    C1 1649   1.438   9.814  10.399  0.1860 -0.1786  0.0394
  104loPI    C2 1650   1.579  10.027  10.707  0.0807 -0.3180  0.1859
  104loPI    C3 1651   1.605  10.172  10.335 -0.2242  0.0702  0.3089
  104loPI   PO4 1652   1.546   9.539  10.344 -0.2321  0.0212  0.1331
  104loPI   GL1 1653   1.774   9.349   9.991 -0.1798 -0.1396  0.0340
  104loPI   GL2 1654   1.898   9.025   9.886 -0.2014 -0.1123 -0.1013
  104loPI   C1A 1655   1.695   9.591   9.597 -0.1274 -0.1111  0.1645
  104loPI   C2A 1656   1.699   9.363   9.210 -0.0055  0.1069  0.2370
  104loPI   C3A 1657   1.712   9.419   8.763  0.1066 -0.1166 -0.1264
  104loPI   C4A 1658   1.602   9.721   8.569 -0.1897 -0.0888  0.1454
  104loPI   C5A 1659   1.869   9.836   8.206  0.2458 -0.0757  0.0318
  104loPI   C6A 1660   2.291  10.038   8.281  0.2623  0.0283  0.2974
  104loPI   C1B 1661   1.820   8.971   9.489  0.2880 -0.0149 -0.1172
  104loPI   C2B 1662   1.911   8.916   9.078  0.2736 -0.1847 -0.0809
  104loPI   C3B 1663   2.031   8.968   8.561 -0.1939  0.1130 -0.1231
  104loPI   C4B 1664   2.258   8.870   8.222 -0.0069 -0.0543  0.3628
  105loPI    C1 1665  13.464  14.794  10.579  0.0366  0.0691  0.2937
  105loPI    C2 1666  13.743  14.604  10.794  0.0596 -0.0354  0.1730
  105loPI    C3 1667  13.356  14.520  10.850  0.0814 -0.2944 -0.0463
  105loPI   PO4 1668  13.643  14.792  10.356  0.2485  0.0429  0.0863
  105loPI   GL1 1669  13.685  14.974   9.991  0.1018  0.0295  0.1601
  105loPI   GL2 1670  13.452  15.170   9.909 -0.3245  0.0296 -0.0563
  105loPI   C1A 1671  14.030  15.041   9.726  0.3180 -0.0668  0.1046
  105loPI   C2A 1672  14.316  14.971   9.415 -0.1589  0.1811 -0.2191
  105loPI   C3A 1673  14.456  15.150   9.004  0.1169  0.2621  0.0502
  105loPI   C4A 1674  14.622  15.197   8.636 -0.0187  0.0717  0.1488
  105loPI   C5A 1675  14.270  15.265   8.289 -0.2035 -0.0390  0.0466
  105loPI   C6A 1676  13.945  15.626   8.309 -0.0397  0.0339  0.0485
  105loPI   C1B 1677  13.522  15.029   9.442  0.2070 -0.1801 -0.0141
  105loPI   C2B 1678  13.245  14.933   9.116 -0.0176 -0.3767  0.0738
  105loPI   C3B 1679  12.963  14.792   8.789 -0.1920  0.1271 -0.0710
  105loPI   C4B 1680  12.979  14.566   8.346  0.0423  0.4357  0.2174
  106loPI    C1 1681   6.122   0.637  10.599  0.1770  0.1509  0.0550
  106loPI    C2 1682   5.912   0.859  10.857  0.1663  0.2445 -0.0340
  106loPI    C3 1683   6.126   1.035  10.568  0.1051  0.1369 -0.1457
  106loPI   PO4 1684   5.925   0.315  10.486  0.2033  0.0359  0.0213
  106loPI   GL1 1685   5.922  -0.101  10.296 -0.3620  0.0924 -0.1913
  106loPI   GL2 1686   5.748  -0.265  10.466 -0.2843  0.0040 -0.0874
  106loPI   C1A 1687   5.854  -0.047   9.908  0.0727 -0.0181  0.0326
  106loPI   C2A 1688   5.660   0.126   9.478  0.0205 -0.0852  0.1063
  106loPI   C3A 1689   5.894   0.020   9.085  0.1468 -0.2188 -0.1379
  106loPI   C4A 1690   5.864  -0.009   8.617  0.1105 -0.1174  0.1573
  106loPI   C5A 1691   5.857   0.155   8.180 -0.0422 -0.1794  0.1454
  106loPI   C6A 1692   5.520   0.254   7.824 -0.2978  0.0125 -0.0791
  106loPI   C1B 1693   5.627  -0.418  10.073 -0.1483 -0.0455 -0.2085
  106loPI   C2B 1694   5.585  -0.420   9.639 -0.1914  0.2944  0.3389
  106loPI   C3B 1695   5.517  -0.506   9.335  0.2233  0.0831 -0.0071
  106loPI   C4B 1696   5.418  -0.616   8.927  0.0813 -0.0038  0.2933
  107loPI    C1 1697   0.838   3.676  10.697 -0.0199 -0.1853  0.1658
  107loPI    C2 1698   0.480   3.648  10.872 -0.0872  0.1790  0.0945
  107loPI    C3 1699   0.800   3.750  11.089 -0.0670  0.0755  0.1139
  107loPI   PO4 1700   0.876   3.445  10.562 -0.0510 -0.0906 -0.2797
  107loPI   GL1 1701   0.742   3.259  10.178  0.1575 -0.4232 -0.1126
  107loPI   GL2 1702   0.481   3.199  10.223 -0.1937 -0.3498 -0.1914
  107loPI   C1A 1703   0.899   3.471   9.807  0.0700 -0.2477 -0.1335
  107loPI   C2A 1704   0.954   3.574   9.377  0.0168 -0.1217 -0.0823
  107loPI   C3A 1705   0.772   3.652   8.991  0.2347 -0.2296 -0.3434
  107loPI   C4A 1706   1.036   3.518   8.570 -0.1832 -0.0735 -0.0518
  107loPI   C5A 1707   1.327   3.319   8.297  0.0653  0.0455  0.3096
  107loPI   C6A 1708   1.898   3.275   8.170 -0.0282  0.2700 -0.2361
  107loPI   C1B 1709   0.429   3.219   9.760  0.1033  0.1148 -0.0927
  107loPI   C2B 1710   0.575   3.237   9.344  0.0611  0.0922  0.3785
  107loPI   C3B 1711   0.737   3.062   9.040 -0.2157  0.1333 -0.1075
  107loPI   C4B 1712   0.856   2.817   8.764  0.1001  0.4707 -0.0122
  108loPI    C1 1713   0.790   5.576  10.886 -0.1432  0.1060 -0.2184
  108loPI    C2 1714   0.929   5.472  11.246 -0.2317 -0.1083 -0.2447
  108loPI    C3 1715   0.647   5.753  11.215 -0.1160  0.0184 -0.1589
  108loPI   PO4 1716   0.962   5.508  10.660  0.0708 -0.2140  0.0290
  108loPI   GL1 1717   1.042   5.490  10.192  0.0063  0.0445 -0.0304
  108loPI   GL2 1718   1.205   5.735  10.243  0.2336  0.1264  0.1617
  108loPI   C1A 1719   1.238   5.431   9.707  0.0949 -0.0843  0.0617
  108loPI   C2A 1720   1.352   5.362   9.224 -0.1056  0.1071 -0.0138
  108loPI   C3A 1721   1.141   5.183   8.866 -0.2116  0.3956  0.1090
  108loPI   C4A 1722   1.015   5.417   8.562  0.0126 -0.2834 -0.0642
  108loPI   C5A 1723   1.175   5.672   8.218  0.1184 -0.4302 -0.4429
  108loPI   C6A 1724   1.302   6.041   8.088 -0.2409  0.0172  0.2454
  108loPI   C1B 1725   1.158   5.954   9.928 -0.1544 -0.0581  0.2633
  108loPI   C2B 1726   1.126   5.973   9.428 -0.0598 -0.2966 -0.0024
  108loPI   C3B 1727   1.279   5.783   8.982 -0.0230 -0.0425  0.0477
  108loPI   C4B 1728   1.476   5.517   8.687 -0.3016 -0.2974  0.1249
  109loPI    C1 1729   9.424   0.825  11.050 -0.1760 -0.0079  0.0620
  109loPI    C2 1730   9.235   1.167  11.135 -0.1113  0.0740 -0.1200
  109loPI    C3 1731   9.153   0.836  11.344 -0.2089  0.1890  0.0255
  109loPI   PO4 1732   9.428   0.842  10.746 -0.0610 -0.0119  0.0750
  109loPI   GL1 1733   9.272   1.008  10.388  0.1262  0.0044  0.6056
  109loPI   GL2 1734   9.054   0.840  10.373 -0.1734  0.2802 -0.0609
  109loPI   C1A 1735   9.238   1.175   9.947  0.1564  0.0234 -0.3839
  109loPI   C2A 1736   9.174   0.988   9.602  0.2430  0.1525 -0.3209
  109loPI   C3A 1737   9.153   0.937   9.155 -0.0062 -0.2154 -0.1420
  109loPI   C4A 1738   9.161   1.027   8.743  0.1434 -0.1506 -0.0865
  109loPI   C5A 1739   8.896   0.994   8.373  0.1425 -0.0579  0.2567
  109loPI   C6A 1740   8.511   0.934   8.412  0.3766  0.0814 -0.0100
  109loPI   C1B 1741   9.030   0.686   9.998  0.1932  0.0351 -0.1433
  109loPI   C2B 1742   8.816   0.662   9.576 -0.0056 -0.0046  0.2221
  109loPI   C3B 1743   8.709   0.572   9.115  0.0101 -0.2874 -0.0261
  109loPI   C4B 1744   8.761   0.649   8.783 -0.2501  0.1074  0.1513
  110loPI    C1 1745   3.277   7.602  10.916 -0.2487  0.1078  0.0308
  110loPI    C2 1746   3.049   7.365  11.145 -0.3180  0.0133 -0.1342
  110loPI    C3 1747   3.055   7.760  11.209  0.0664 -0.0634  0.3708
  110loPI   PO4 1748   3.274   7.331  10.658  0.1254  0.0765 -0.2271
  110loPI   GL1 1749   3.256   7.290  10.216 -0.1256 -0.2508  0.0546
  110loPI   GL2 1750   2.954   7.187  10.254 -0.3023 -0.2577 -0.3097
  110loPI   C1A 1751   3.283   7.398   9.797 -0.0438 -0.2647 -0.1953
  110loPI   C2A 1752   3.560   7.499   9.467 -0.1039 -0.1246 -0.0469
  110loPI   C3A 1753   3.635   7.423   9.120  0.1820 -0.1919  0.1213
  110loPI   C4A 1754   3.585   7.058   8.798  0.2248 -0.0985 -0.2642
  110loPI   C5A 1755   3.419   6.733   8.628  0.1775  0.0198 -0.1673
  110loPI   C6A 1756   3.052   6.665   8.554  0.1508  0.0416  0.2364
  110loPI   C1B 1757   2.828   7.216   9.933 -0.0385 -0.2225 -0.0268
  110loPI   C2B 1758   2.630   7.188   9.529  0.0686 -0.2414  0.2317
  110loPI   C3B 1759   2.575   6.770   9.401  0.1511 -0.0638 -0.0778
  110loPI   C4B 1760   2.569   6.638   8.941  0.1206 -0.0063  0.1036
  111loPI    C1 1761  10.027  10.627  10.395  0.1136 -0.2371 -0.2153
  111loPI    C2 1762  10.377  10.760  10.536  0.0945 -0.2487 -0.1569
  111loPI    C3 1763  10.221  10.419  10.677 -0.1808  0.0083  0.1799
  111loPI   PO4 1764   9.976  10.892  10.242  0.1581 -0.1822 -0.1903
  111loPI   GL1 1765   9.732  11.172   9.995  0.4129 -0.3004 -0.2090
  111loPI   GL2 1766   9.937  11.384  10.047 -0.2207 -0.0051  0.0253
  111loPI   C1A 1767   9.631  11.399   9.621 -0.0686 -0.0640  0.0805
  111loPI   C2A 1768   9.465  11.337   9.227  0.0107  0.0013 -0.1226
  111loPI   C3A 1769   9.423  11.121   8.914  0.0283 -0.1196 -0.0864
  111loPI   C4A 1770   9.627  10.807   8.593  0.2385  0.0404 -0.0302
  111loPI   C5A 1771   9.696  10.544   8.193  0.2993 -0.0158  0.0926
  111loPI   C6A 1772   9.491  10.446   7.812  0.0800 -0.1749 -0.2838
  111loPI   C1B 1773  10.064  11.199   9.674  0.1224  0.2230  0.3266
  111loPI   C2B 1774  10.089  11.224   9.258 -0.1827 -0.0035 -0.2665
  111loPI   C3B 1775  10.324  11.084   8.894 -0.0586 -0.3319  0.0171
  111loPI   C4B 1776  10.615  11.040   8.513  0.0464  0.2017  0.2500
  112loPI    C1 1777  17.133   3.954  10.758 -0.1009 -0.0689  0.0075
  112loPI    C2 1778  16.735   3.928  10.725 -0.1204 -0.0327  0.2080
  112loPI    C3 1779  16.948   3.611  10.846 -0.0837 -0.0646  0.0611
  112loPI   PO4 1780  17.205   4.127  10.511  0.0790 -0.4103  0.0910
  112loPI   GL1 1781  17.450   4.087  10.096 -0.1219  0.3099 -0.0473
  112loPI   GL2 1782  17.729   4.164  10.172 -0.3376 -0.1876  0.0016
  112loPI   C1A 1783  17.338   4.466   9.830 -0.2669  0.2617  0.1682
  112loPI   C2A 1784  17.430   4.478   9.327 -0.3323 -0.1142 -0.0555
  112loPI   C3A 1785  17.513   4.371   8.889 -0.0768 -0.0753 -0.5026
  112loPI   C4A 1786  17.657   4.641   8.513  0.1084 -0.1533  0.1383
  112loPI   C5A 1787  17.976   4.517   8.250 -0.1749 -0.1840  0.3424
  112loPI   C6A 1788  18.109   4.325   8.055  0.1874  0.1517 -0.0518
  112loPI   C1B 1789  17.697   4.095   9.695 -0.3136  0.0011  0.1641
  112loPI   C2B 1790  17.859   4.204   9.259  0.0303  0.1440  0.0391
  112loPI   C3B 1791  17.997   4.428   8.838 -0.1747  0.0507  0.2517
  112loPI   C4B 1792  18.413   4.432   8.620 -0.2278 -0.0978 -0.0609
  113loPI    C1 1793  11.817  14.288  10.692 -0.0460 -0.0608  0.0949
  113loPI    C2 1794  11.818  14.687  10.708  0.0422 -0.0573  0.0130
  113loPI    C3 1795  11.805  14.473  11.046  0.4232  0.0147  0.0778
  113loPI   PO4 1796  12.081  14.254  10.496  0.1774  0.0303  0.1591
  113loPI   GL1 1797  12.069  14.029  10.102  0.1499 -0.0265 -0.1299
  113loPI   GL2 1798  12.399  14.121  10.090 -0.1805  0.0721  0.1096
  113loPI   C1A 1799  11.890  14.044   9.756 -0.1568 -0.0923  0.1688
  113loPI   C2A 1800  11.863  14.181   9.352 -0.0711  0.1446 -0.1817
  113loPI   C3A 1801  11.718  14.120   8.905 -0.0301 -0.1820 -0.1766
  113loPI   C4A 1802  11.494  14.347   8.673  0.1185 -0.1636  0.5165
  113loPI   C5A 1803  11.082  14.702   8.559  0.0215  0.0944  0.0584
  113loPI   C6A 1804  10.696  14.721   8.372 -0.1140 -0.0538  0.1751
  113loPI   C1B 1805  12.349  14.173   9.678 -0.2076 -0.1186 -0.1945
  113loPI   C2B 1806  12.325  14.112   9.282  0.1109  0.0503  0.2658
  113loPI   C3B 1807  12.209  14.111   8.923 -0.0542 -0.0922 -0.1396
  113loPI   C4B 1808  11.986  14.113   8.405 -0.0267 -0.0778  0.1888
  114loPI    C1 1809   2.521   2.150  10.818  0.0569  0.0157 -0.0374
  114loPI    C2 1810   2.127   2.085  10.839  0.0285  0.1619 -0.1012
  114loPI    C3 1811   2.304   2.327  11.104  0.0457  0.2342 -0.1783
  114loPI   PO4 1812   2.626   1.943  10.711 -0.3466 -0.0163  0.0750
  114loPI   GL1 1813   2.706   1.787  10.370 -0.0764 -0.0725  0.1480
  114loPI   GL2 1814   3.000   1.996  10.343 -0.1997 -0.0284 -0.0560
  114loPI   C1A 1815   2.805   1.758   9.956  0.1593 -0.0126  0.2989
  114loPI   C2A 1816   2.816   1.752   9.507  0.1509  0.3534 -0.3576
  114loPI   C3A 1817   2.848   1.639   9.061  0.2313 -0.2936  0.2378
  114loPI   C4A 1818   2.892   1.895   8.705 -0.2460 -0.3715 -0.1695
  114loPI   C5A 1819   2.918   2.058   8.331  0.1396 -0.3215 -0.0283
  114loPI   C6A 1820   2.586   2.075   8.059  0.1288  0.2579 -0.2746
  114loPI   C1B 1821   3.285   1.676  10.123 -0.2680 -0.1089  0.1692
  114loPI   C2B 1822   3.449   1.667   9.730 -0.0313  0.0307  0.0686
  114loPI   C3B 1823   3.357   1.499   9.321 -0.0728  0.1247 -0.0079
  114loPI   C4B 1824   3.456   1.229   9.119 -0.0628 -0.5733  0.1936
  115loPI    C1 1825   2.850   9.802  10.491 -0.1120 -0.2413 -0.2055
  115loPI    C2 1826   2.519   9.748  10.709  0.0697  0.0639  0.1585
  115loPI    C3 1827   2.849   9.896  10.880  0.3059  0.0441 -0.2663
  115loPI   PO4 1828   2.797  10.015  10.324  0.1468 -0.1158  0.1617
  115loPI   GL1 1829   3.039  10.059  10.050  0.2739 -0.1020  0.0535
  115loPI   GL2 1830   3.421   9.935   9.975 -0.0141  0.1554 -0.1760
  115loPI   C1A 1831   3.034  10.335   9.782 -0.3365  0.3918  0.1120
  115loPI   C2A 1832   3.124  10.366   9.312 -0.0357 -0.1232 -0.2834
  115loPI   C3A 1833   3.214  10.462   8.926  0.0397  0.0978  0.1092
  115loPI   C4A 1834   3.325  10.536   8.561 -0.0459 -0.0374 -0.0954
  115loPI   C5A 1835   3.200  10.269   8.237  0.0501  0.0556  0.0978
  115loPI   C6A 1836   3.592  10.084   7.986 -0.0616  0.2335  0.3865
  115loPI   C1B 1837   3.396  10.026   9.635 -0.3008  0.1376  0.1056
  115loPI   C2B 1838   3.557  10.133   9.211  0.1535 -0.0665 -0.2016
  115loPI   C3B 1839   3.689  10.228   8.840  0.1215  0.0162  0.3224
  115loPI   C4B 1840   3.732  10.363   8.364  0.2421 -0.1977 -0.0038
  116loPI    C1 1841  17.470  14.321  10.776 -0.2258 -0.3245 -0.0589
  116loPI    C2 1842  17.483  14.123  10.429  0.1758 -0.2262 -0.1049
  116loPI    C3 1843  17.699  13.996  10.741  0.1215 -0.0903 -0.0110
  116loPI   PO4 1844  17.185  14.533  10.636  0.3460  0.1018 -0.0659
  116loPI   GL1 1845  16.877  14.695  10.319 -0.1038 -0.0130 -0.1846
  116loPI   GL2 1846  17.224  14.852  10.243  0.0995  0.0065 -0.0255
  116loPI   C1A 1847  16.707  15.039  10.104 -0.2581 -0.3929 -0.1459
  116loPI   C2A 1848  16.615  15.347   9.739  0.0355  0.0753  0.1546
  116loPI   C3A 1849  16.573  15.444   9.275 -0.1658  0.0195 -0.3426
  116loPI   C4A 1850  16.510  15.362   8.861 -0.1154 -0.2170 -0.0523
  116loPI   C5A 1851  16.444  15.060   8.627 -0.2777 -0.0286 -0.2132
  116loPI   C6A 1852  16.611  14.824   8.226 -0.0250  0.0636 -0.0287
  116loPI   C1B 1853  17.050  14.825   9.799  0.0181 -0.0138 -0.2289
  116loPI   C2B 1854  17.179  14.629   9.440 -0.1047  0.0919 -0.0132
  116loPI   C3B 1855  17.339  14.604   9.006  0.2881 -0.3604 -0.1344
  116loPI   C4B 1856  17.624  14.626   8.630 -0.0550  0.0428 -0.0713
  117loPI    C1 1857  13.213   3.018  11.162 -0.4417 -0.1447 -0.0716
  117loPI    C2 1858  13.120   3.390  11.274 -0.1360 -0.1045  0.0598
  117loPI    C3 1859  13.025   3.081  11.510 -0.4599 -0.1205 -0.0859
  117loPI   PO4 1860  13.089   2.913  10.856  0.0250  0.0084  0.0287
  117loPI   GL1 1861  13.112   2.938  10.367 -0.2397  0.0347 -0.1625
  117loPI   GL2 1862  12.909   2.698  10.203  0.4737  0.3221  0.0886
  117loPI   C1A 1863  13.248   2.946   9.912  0.3033 -0.3500 -0.2746
  117loPI   C2A 1864  13.386   2.902   9.494  0.2689  0.0348 -0.0740
  117loPI   C3A 1865  13.328   2.738   9.065 -0.0463  0.3076  0.0679
  117loPI   C4A 1866  13.143   2.855   8.709  0.1812  0.0347  0.0135
  117loPI   C5A 1867  13.033   2.643   8.376  0.2998 -0.3019 -0.1549
  117loPI   C6A 1868  13.122   2.304   8.125 -0.3553 -0.0136  0.3319
  117loPI   C1B 1869  12.775   2.758   9.770  0.0489 -0.3099 -0.1514
  117loPI   C2B 1870  12.873   2.711   9.277  0.0380 -0.2746  0.1520
  117loPI   C3B 1871  12.646   2.699   8.854 -0.0403 -0.3699  0.2071
  117loPI   C4B 1872  12.600   3.009   8.447 -0.1146  0.4180 -0.0891
  118loPI    C1 1873   3.729   0.148  10.695  0.1577  0.0289 -0.0029
  118loPI    C2 1874   3.709   0.546  10.727  0.0898  0.0242  0.0134
  118loPI    C3 1875   3.664   0.317  11.052  0.5021  0.0156  0.0700
  118loPI   PO4 1876   3.915   0.169  10.444 -0.1823  0.0542  0.2302
  118loPI   GL1 1877   3.991   0.228  10.007 -0.0666  0.0048 -0.1467
  118loPI   GL2 1878   3.786  -0.084   9.976  0.4841 -0.0665  0.2712
  118loPI   C1A 1879   4.266   0.035   9.668  0.1671 -0.0194 -0.1496
  118loPI   C2A 1880   4.028  -0.018   9.275  0.1877  0.0141  0.0422
  118loPI   C3A 1881   3.941  -0.126   8.883  0.0522 -0.0964 -0.0989
  118loPI   C4A 1882   3.763  -0.130   8.539 -0.0169 -0.0029  0.2896
  118loPI   C5A 1883   3.662  -0.063   8.103  0.0029 -0.1427 -0.2266
  118loPI   C6A 1884   3.601  -0.155   7.659  0.0852 -0.0016  0.0011
  118loPI   C1B 1885   3.607   0.235   9.651  0.2528 -0.3640  0.2509
  118loPI   C2B 1886   3.579   0.135   9.154 -0.0491  0.0371 -0.1188
  118loPI   C3B 1887   3.337   0.164   8.747 -0.3243  0.1107  0.1248
  118loPI   C4B 1888   3.307  -0.088   8.390  0.3851 -0.0867 -0.2972
  119loPI    C1 1889  13.614  15.673  10.692  0.0274  0.3243  0.1175
  119loPI    C2 1890  13.763  15.646  11.062 -0.0307 -0.2394  0.1077
  119loPI    C3 1891  13.384  15.540  10.991 -0.0692  0.0199 -0.0873
  119loPI   PO4 1892  13.847  15.683  10.543 -0.0540  0.6061  0.0504
  119loPI   GL1 1893  13.820  15.777  10.168  0.2100 -0.2216 -0.0559
  119loPI   GL2 1894  13.616  15.629   9.998  0.0195 -0.0324 -0.2052
  119loPI   C1A 1895  14.023  15.560   9.666 -0.2680  0.2292  0.3184
  119loPI   C2A 1896  13.957  15.415   9.296 -0.0063 -0.1653  0.0973
  119loPI   C3A 1897  13.898  15.006   9.063 -0.0708 -0.1404  0.1758
  119loPI   C4A 1898  13.957  14.837   8.561 -0.0548 -0.1290 -0.4289
  119loPI   C5A 1899  13.968  14.534   8.146  0.0566  0.1545 -0.0957
  119loPI   C6A 1900  14.261  14.392   7.856  0.0626 -0.2640 -0.0023
  119loPI   C1B 1901  13.528  15.475   9.574 -0.1204  0.2825 -0.1857
  119loPI   C2B 1902  13.496  15.418   9.066 -0.0054 -0.0279 -0.1133
  119loPI   C3B 1903  13.662  15.584   8.761  0.0058  0.0384  0.2299
  119loPI   C4B 1904  13.997  15.950   8.738  0.0095 -0.2055  0.1422
  120loPI    C1 1905   1.592  11.365  10.163  0.3264  0.0147  0.2331
  120loPI    C2 1906   1.436  10.997  10.144 -0.0465  0.1798 -0.0318
  120loPI    C3 1907   1.828  11.051  10.088 -0.0002 -0.1677 -0.0632
  120loPI   PO4 1908   1.326  11.496  10.134 -0.1826  0.0997 -0.0963
  120loPI   GL1 1909   1.273  11.728   9.810 -0.2821 -0.2446 -0.2660
  120loPI   GL2 1910   1.131  11.979   9.738 -0.0259  0.1907 -0.1972
  120loPI   C1A 1911   1.460  11.667   9.331 -0.0774  0.0453 -0.0631
  120loPI   C2A 1912   1.423  11.519   8.884  0.1234  0.1928  0.1334
  120loPI   C3A 1913   1.360  11.686   8.583  0.1761 -0.2100  0.0474
  120loPI   C4A 1914   1.255  11.813   8.261  0.0292 -0.0765  0.1690
  120loPI   C5A 1915   0.940  12.107   8.097 -0.0698 -0.2450 -0.0276
  120loPI   C6A 1916   0.724  12.544   7.939 -0.0140  0.1498  0.0904
  120loPI   C1B 1917   1.216  12.048   9.326 -0.0447 -0.0966  0.1951
  120loPI   C2B 1918   1.194  12.027   8.903 -0.0434 -0.1677 -0.0937
  120loPI   C3B 1919   1.228  12.182   8.569 -0.0842 -0.3630 -0.1785
  120loPI   C4B 1920   1.220  12.495   8.196 -0.0654 -0.2745  0.3826
  121loPI    C1 1921  14.236   8.526  10.148  0.0307  0.1688  0.0808
  121loPI    C2 1922  14.442   8.697  10.445 -0.0212 -0.0236  0.2294
  121loPI    C3 1923  14.257   8.348  10.505 -0.0055 -0.0803 -0.0396
  121loPI   PO4 1924  14.443   8.481   9.905 -0.1611  0.2488 -0.3568
  121loPI   GL1 1925  14.704   8.670   9.608  0.1398 -0.0357  0.0298
  121loPI   GL2 1926  14.954   8.746   9.626 -0.1086 -0.0271 -0.0049
  121loPI   C1A 1927  14.487   8.484   9.246 -0.1519  0.1941 -0.0425
  121loPI   C2A 1928  14.305   8.267   8.983 -0.1398  0.1876 -0.4808
  121loPI   C3A 1929  14.156   8.033   8.664 -0.1268 -0.1816  0.2817
  121loPI   C4A 1930  14.390   7.748   8.483 -0.1790  0.1489  0.2875
  121loPI   C5A 1931  14.719   7.397   8.335 -0.0971  0.0027  0.1543
  121loPI   C6A 1932  15.056   7.165   8.129  0.1010  0.1050  0.0740
  121loPI   C1B 1933  14.933   8.832   9.195  0.3051 -0.2482 -0.2412
  121loPI   C2B 1934  15.228   8.674   8.921  0.1450 -0.3773  0.1402
  121loPI   C3B 1935  15.344   8.597   8.442  0.0839  0.0839  0.2080
  121loPI   C4B 1936  15.435   8.328   8.160  0.0609  0.3893 -0.0584
  122loPI    C1 1937  17.324   1.839  10.216 -0.1941  0.1481  0.0511
  122loPI    C2 1938  17.118   2.180  10.187 -0.3209  0.0822  0.1668
  122loPI    C3 1939  17.095   1.960  10.520 -0.0363  0.0906  0.1943
  122loPI   PO4 1940  17.608   1.878   9.990 -0.1333 -0.0101 -0.0274
  122loPI   GL1 1941  17.813   1.621   9.587 -0.1250 -0.2590  0.0608
  122loPI   GL2 1942  17.735   1.940   9.502 -0.1579 -0.0380 -0.1217
  122loPI   C1A 1943  17.621   1.574   9.189 -0.1245  0.2383  0.0228
  122loPI   C2A 1944  17.711   1.649   8.726  0.0780  0.0984  0.1308
  122loPI   C3A 1945  17.756   1.902   8.337  0.1481 -0.2909 -0.1266
  122loPI   C4A 1946  18.114   2.147   8.217  0.1269  0.1469  0.0491
  122loPI   C5A 1947  18.450   2.407   8.190  0.1688  0.0197  0.0935
  122loPI   C6A 1948  18.920   2.610   8.277 -0.1138 -0.1674 -0.0574
  122loPI   C1B 1949  18.042   1.897   9.158 -0.2286 -0.1425 -0.1760
  122loPI   C2B 1950  18.173   2.012   8.727  0.2457 -0.1851  0.1439
  122loPI   C3B 1951  18.547   1.882   8.483 -0.1918  0.1031  0.0777
  122loPI   C4B 1952  18.866   2.064   8.327 -0.0794 -0.4597  0.3627
  123loPI    C1 1953  16.208  11.652  10.395  0.2644 -0.0331 -0.0429
  123loPI    C2 1954  16.160  11.986  10.610 -0.1447 -0.2214  0.1695
  123loPI    C3 1955  16.368  11.680  10.761  0.0108 -0.1605  0.0805
  123loPI   PO4 1956  16.108  11.749  10.114 -0.0111  0.1137 -0.0731
  123loPI   GL1 1957  16.327  11.744   9.659 -0.0982  0.1272  0.0300
  123loPI   GL2 1958  16.056  11.653   9.525 -0.2365 -0.0090  0.0538
  123loPI   C1A 1959  16.472  11.763   9.214  0.1036  0.0917  0.1227
  123loPI   C2A 1960  16.763  11.766   8.853  0.1254  0.2130  0.5565
  123loPI   C3A 1961  16.780  11.743   8.475  0.1003 -0.1705 -0.0781
  123loPI   C4A 1962  16.736  11.911   8.116 -0.1328  0.1036 -0.0612
  123loPI   C5A 1963  16.908  12.275   8.012  0.1098  0.2420  0.1990
  123loPI   C6A 1964  17.255  12.514   8.019 -0.4392 -0.1834  0.1044
  123loPI   C1B 1965  16.035  11.541   9.080 -0.2932  0.1661  0.1928
  123loPI   C2B 1966  15.979  11.430   8.670 -0.2846  0.0668 -0.2458
  123loPI   C3B 1967  15.859  11.379   8.204  0.0262 -0.1073 -0.0275
  123loPI   C4B 1968  15.839  11.109   7.868 -0.0373 -0.0316  0.2694
  124loPI    C1 1969   5.358  16.694  10.444 -0.0340  0.0237  0.0129
  124loPI    C2 1970   5.332  16.553  10.817  0.0566  0.1307  0.0599
  124loPI    C3 1971   5.290  16.945  10.748  0.0390  0.1110 -0.0422
  124loPI   PO4 1972   5.633  16.526  10.391  0.0588 -0.2457 -0.0356
  124loPI   GL1 1973   5.881  16.774  10.102 -0.1645 -0.1230 -0.0147
  124loPI   GL2 1974   6.049  16.410  10.067 -0.2165 -0.1954  0.0449
  124loPI   C1A 1975   5.930  16.769   9.693 -0.1216 -0.0756  0.2224
  124loPI   C2A 1976   6.015  16.844   9.272 -0.4518  0.0176  0.1864
  124loPI   C3A 1977   6.072  16.958   8.932  0.0394 -0.0472  0.2457
  124loPI   C4A 1978   6.040  16.833   8.432  0.1215 -0.0466 -0.2442
  124loPI   C5A 1979   5.968  16.696   7.961  0.1414  0.0240  0.0861
  124loPI   C6A 1980   5.993  16.426   7.639 -0.5276 -0.1830 -0.1149
  124loPI   C1B 1981   6.095  16.185   9.692 -0.2026  0.1242  0.1807
  124loPI   C2B 1982   6.174  16.253   9.205  0.1494 -0.0741 -0.1805
  124loPI   C3B 1983   6.002  16.421   8.941 -0.0147 -0.0300  0.0637
  124loPI   C4B 1984   6.227  16.206   8.619 -0.1369 -0.2425 -0.1771
  125loPI    C1 1985  12.636   4.924  10.677 -0.3070  0.1858  0.1088
  125loPI    C2 1986  12.738   5.014  11.053 -0.2121  0.0391  0.1189
  125loPI    C3 1987  12.353   5.001  10.948 -0.2498 -0.1769  0.2773
  125loPI   PO4 1988  12.827   4.743  10.583 -0.0041 -0.1591  0.0015
  125loPI   GL1 1989  13.099   4.816  10.261  0.2092 -0.2623 -0.0538
  125loPI   GL2 1990  12.923   4.535  10.076  0.0376 -0.0012  0.0742
  125loPI   C1A 1991  13.496   4.529  10.123  0.1942 -0.0158 -0.0326
  125loPI   C2A 1992  13.615   4.544   9.676  0.0191 -0.0929  0.0321
  125loPI   C3A 1993  13.739   4.435   9.242  0.0746 -0.0947  0.0515
  125loPI   C4A 1994  13.551   4.409   8.870 -0.0339 -0.1685 -0.1467
  125loPI   C5A 1995  13.304   4.680   8.587 -0.1640  0.3560  0.1714
  125loPI   C6A 1996  12.886   4.506   8.481  0.0579  0.0340 -0.0391
  125loPI   C1B 1997  13.138   4.424   9.701  0.1144 -0.0565  0.0454
  125loPI   C2B 1998  13.176   4.481   9.337  0.3056  0.0200  0.0230
  125loPI   C3B 1999  13.134   4.211   9.015 -0.2032  0.0216 -0.0970
  125loPI   C4B 2000  13.295   4.173   8.522  0.0997  0.0725 -0.1078
  126loPI    C1 2001  14.281   4.001  11.011  0.2327 -0.1060  0.1117
  126loPI    C2 2002  14.357   4.372  10.881 -0.0746 -0.0535  0.0752
  126loPI    C3 2003  14.344   4.296  11.274  0.1118 -0.0531  0.0820
  126loPI   PO4 2004  14.136   3.929  10.820  0.0845  0.1668  0.2741
  126loPI   GL1 2005  14.056   3.831  10.399 -0.1563 -0.3067  0.1308
  126loPI   GL2 2006  14.403   3.692  10.184  0.0022  0.2228  0.0979
  126loPI   C1A 2007  13.859   3.613   9.983 -0.2387 -0.2793  0.6100
  126loPI   C2A 2008  13.821   3.565   9.591 -0.0820 -0.0522 -0.0207
  126loPI   C3A 2009  13.895   3.500   9.175  0.0464  0.0285 -0.3541
  126loPI   C4A 2010  13.973   3.335   8.846 -0.1713  0.1920  0.2692
  126loPI   C5A 2011  13.728   3.409   8.435 -0.2723 -0.1290  0.4674
  126loPI   C6A 2012  13.700   3.481   7.943 -0.1576 -0.0507  0.1218
  126loPI   C1B 2013  14.253   3.811   9.786  0.2686  0.1392 -0.2535
  126loPI   C2B 2014  14.335   3.702   9.436 -0.1102  0.5435  0.2318
  126loPI   C3B 2015  14.341   3.630   8.965  0.2550 -0.0237  0.0347
  126loPI   C4B 2016  14.160   3.741   8.560 -0.0991 -0.1804 -0.1185
  127loPI    C1 2017  15.472   0.377  10.744 -0.1791  0.2970  0.3268
  127loPI    C2 2018  15.181   0.119  10.838  0.1093 -0.1371  0.0651
  127loPI    C3 2019  15.486   0.178  11.091  0.1124 -0.1550  0.0656
  127loPI   PO4 2020  15.456   0.321  10.463  0.1030 -0.0807 -0.1195
  127loPI   GL1 2021  15.666   0.064  10.205  0.4018 -0.1726  0.0638
  127loPI   GL2 2022  15.884  -0.116  10.062  0.0743  0.0349  0.1109
  127loPI   C1A 2023  15.565   0.181   9.727  0.1388 -0.1935 -0.3469
  127loPI   C2A 2024  15.551   0.296   9.208 -0.0784  0.2316  0.0507
  127loPI   C3A 2025  15.404   0.444   8.774 -0.2642  0.1600 -0.0681
  127loPI   C4A 2026  15.537   0.546   8.430 -0.1092 -0.2802 -0.5081
  127loPI   C5A 2027  15.769   0.548   8.103 -0.2163 -0.2300  0.2356
  127loPI   C6A 2028  16.190   0.591   8.006 -0.0213 -0.0507 -0.0324
  127loPI   C1B 2029  15.830  -0.311   9.659 -0.0588 -0.1043 -0.0256
  127loPI   C2B 2030  15.792  -0.193   9.167  0.1665 -0.0710  0.0305
  127loPI   C3B 2031  15.780   0.075   8.789  0.1868 -0.0895  0.2919
  127loPI   C4B 2032  15.558  -0.090   8.497  0.0686 -0.0067 -0.1625
  128loPI    C1 2033   8.983   4.630  10.608 -0.1389 -0.2121  0.0836
  128loPI    C2 2034   9.107   4.881  10.323  0.0961 -0.3302  0.0787
  128loPI    C3 2035   9.020   5.020  10.688 -0.1107 -0.1932 -0.0203
  128loPI   PO4 2036   9.052   4.402  10.494 -0.2801  0.3531  0.0138
  128loPI   GL1 2037   9.209   4.442  10.033 -0.0852  0.0792 -0.0537
  128loPI   GL2 2038   9.338   4.239   9.844 -0.0786 -0.0206  0.0943
  128loPI   C1A 2039   8.897   4.403   9.674  0.0049  0.1156 -0.2860
  128loPI   C2A 2040   8.733   4.100   9.382  0.1045 -0.0182  0.0911
  128loPI   C3A 2041   8.536   4.010   8.968 -0.2051  0.2186 -0.0444
  128loPI   C4A 2042   8.368   3.937   8.515  0.1414  0.2245  0.3641
  128loPI   C5A 2043   8.243   3.783   8.117  0.1781  0.0975  0.2701
  128loPI   C6A 2044   7.976   3.663   7.924 -0.1007 -0.2165  0.2397
  128loPI   C1B 2045   9.259   4.136   9.464 -0.2874 -0.0953 -0.2026
  128loPI   C2B 2046   9.192   4.031   9.087 -0.1234 -0.1921 -0.0056
  128loPI   C3B 2047   8.938   3.924   8.700 -0.3099 -0.1619  0.1816
  128loPI   C4B 2048   8.847   3.945   8.271 -0.3654 -0.1167 -0.0874
  129loPI    C1 2049   2.138  10.345  10.477 -0.0135 -0.0979 -0.0491
  129loPI    C2 2050   2.042  10.193  10.834  0.0541 -0.0612 -0.0152
  129loPI    C3 2051   2.426  10.229  10.729  0.0315 -0.2491 -0.1683
  129loPI   PO4 2052   2.086  10.234  10.192 -0.0158  0.0484  0.1045
  129loPI   GL1 2053   2.170  10.306   9.860 -0.4382 -0.0656  0.0133
  129loPI   GL2 2054   2.502  10.166   9.904 -0.0462  0.2018 -0.1069
  129loPI   C1A 2055   2.156  10.368   9.519 -0.2648  0.2209  0.2863
  129loPI   C2A 2056   2.267  10.412   9.196 -0.4460  0.2450  0.0340
  129loPI   C3A 2057   2.330  10.427   8.733  0.0249 -0.0232  0.0084
  129loPI   C4A 2058   2.423  10.519   8.309  0.0335  0.4168  0.0175
  129loPI   C5A 2059   2.468  10.583   7.847  0.1532  0.1362  0.1269
  129loPI   C6A 2060   2.077  10.658   7.687 -0.2690  0.3127 -0.0426
  129loPI   C1B 2061   2.631  10.147   9.472 -0.0378 -0.1640  0.0767
  129loPI   C2B 2062   2.717  10.240   9.005 -0.2239 -0.1823 -0.1531
  129loPI   C3B 2063   2.775  10.330   8.564 -0.2003 -0.0280 -0.0240
  129loPI   C4B 2064   2.742  10.168   8.089  0.0637  0.0108 -0.0214
  130loPI    C1 2065   4.173  11.522  10.478 -0.2861 -0.3711  0.2266
  130loPI    C2 2066   4.483  11.507  10.730  0.0607  0.1517 -0.1482
  130loPI    C3 2067   4.185  11.766  10.794  0.0599  0.1583 -0.1790
  130loPI   PO4 2068   4.133  11.258  10.416  0.0530 -0.1527 -0.0244
  130loPI   GL1 2069   4.234  10.840  10.213 -0.1836  0.4467 -0.2526
  130loPI   GL2 2070   4.153  10.553  10.078  0.1175 -0.0761  0.2521
  130loPI   C1A 2071   3.994  10.978   9.861 -0.1984  0.1057 -0.2112
  130loPI   C2A 2072   4.072  10.971   9.400  0.1200 -0.0674  0.1902
  130loPI   C3A 2073   4.224  10.884   8.999  0.0741 -0.0640 -0.1322
  130loPI   C4A 2074   4.247  10.813   8.544  0.0953 -0.0047 -0.1867
  130loPI   C5A 2075   3.913  10.866   8.319  0.2698 -0.0227  0.0697
  130loPI   C6A 2076   3.836  10.974   7.919 -0.1024  0.1736 -0.0497
  130loPI   C1B 2077   4.134  10.462   9.668 -0.1430 -0.2826 -0.3763
  130loPI   C2B 2078   4.136  10.400   9.269 -0.0273  0.1539  0.1680
  130loPI   C3B 2079   4.206  10.327   8.815 -0.0357 -0.0587  0.0371
  130loPI   C4B 2080   4.428  10.124   8.488 -0.0710  0.0042  0.0079
  131loPI    C1 2081  10.201  15.116  11.132  0.0084 -0.1274 -0.0932
  131loPI    C2 2082   9.918  14.937  11.350 -0.1119  0.1684 -0.0014
  131loPI    C3 2083  10.294  14.955  11.486 -0.0465 -0.2188 -0.1202
  131loPI   PO4 2084  10.094  14.964  10.878 -0.1294  0.2206  0.1516
  131loPI   GL1 2085   9.853  14.919  10.610  0.1733  0.0503 -0.3727
  131loPI   GL2 2086   9.457  15.055  10.626 -0.0507 -0.1196  0.0110
  131loPI   C1A 2087   9.664  14.736  10.270 -0.0325 -0.1892 -0.0338
  131loPI   C2A 2088   9.610  14.415  10.004  0.2032  0.0503  0.1387
  131loPI   C3A 2089   9.629  14.433   9.640  0.3783 -0.2085  0.2065
  131loPI   C4A 2090   9.795  14.499   9.247 -0.1424 -0.1110  0.0476
  131loPI   C5A 2091   9.860  14.444   8.813  0.0850 -0.2875  0.1506
  131loPI   C6A 2092   9.752  14.469   8.413 -0.1802  0.0791 -0.0738
  131loPI   C1B 2093   9.714  15.289  10.249 -0.1569 -0.1676 -0.2038
  131loPI   C2B 2094  10.137  15.252  10.107 -0.3605 -0.0407 -0.0958
  131loPI   C3B 2095  10.386  15.478  10.116  0.1780 -0.2122  0.1760
  131loPI   C4B 2096  10.592  15.743  10.272 -0.0129  0.0056 -0.3229
  132loPI    C1 2097  17.453   7.707  10.763  0.1360  0.0051  0.0457
  132loPI    C2 2098  17.170   7.425  10.785  0.2875 -0.1402  0.1511
  132loPI    C3 2099  17.136   7.760  11.001  0.0605 -0.0338 -0.0455
  132loPI   PO4 2100  17.740   7.526  10.727 -0.1558  0.2224  0.1744
  132loPI   GL1 2101  17.959   7.458  10.364 -0.0355  0.0832 -0.0449
  132loPI   GL2 2102  18.294   7.530  10.236  0.3143  0.1558 -0.0235
  132loPI   C1A 2103  17.756   7.292   9.970 -0.1122 -0.1321  0.0304
  132loPI   C2A 2104  17.566   7.411   9.577 -0.4509 -0.1136  0.0176
  132loPI   C3A 2105  17.644   7.376   9.116  0.0356 -0.0410 -0.2250
  132loPI   C4A 2106  17.447   7.382   8.655 -0.1089  0.2114 -0.0745
  132loPI   C5A 2107  17.494   7.679   8.322  0.0270  0.2496  0.4196
  132loPI   C6A 2108  17.839   7.888   8.128  0.0144  0.0124  0.1112
  132loPI   C1B 2109  18.134   7.599   9.932  0.1984 -0.1160 -0.1176
  132loPI   C2B 2110  18.090   7.492   9.497  0.2206  0.0832 -0.0691
  132loPI   C3B 2111  18.185   7.381   9.111 -0.0604 -0.2057 -0.0690
  132loPI   C4B 2112  18.414   7.111   8.700 -0.3268 -0.0806 -0.0501
  133loPI    C1 2113   2.734   2.697  10.865 -0.1048  0.0938  0.1320
  133loPI    C2 2114   2.862   2.472  11.170 -0.0865 -0.0282  0.0353
  133loPI    C3 2115   2.615   2.780  11.238  0.0516  0.0494  0.1923
  133loPI   PO4 2116   2.765   2.531  10.657  0.1605 -0.4490 -0.0866
  133loPI   GL1 2117   2.702   2.400  10.400  0.0187 -0.1237 -0.1427
  133loPI   GL2 2118   2.361   2.183  10.343 -0.1934  0.2555 -0.1708
  133loPI   C1A 2119   2.737   2.235   9.980 -0.3043  0.1231  0.0894
  133loPI   C2A 2120   2.678   2.200   9.486  0.0317  0.1877  0.1554
  133loPI   C3A 2121   2.820   2.150   9.106 -0.1723 -0.0574 -0.2542
  133loPI   C4A 2122   3.163   2.349   8.799  0.1716 -0.4224  0.3561
  133loPI   C5A 2123   3.528   2.569   8.666 -0.0545  0.0802 -0.3879
  133loPI   C6A 2124   3.952   2.686   8.895 -0.0018 -0.2107  0.0348
  133loPI   C1B 2125   2.209   2.325   9.918  0.0555  0.0657  0.2781
  133loPI   C2B 2126   2.198   2.410   9.501  0.0599 -0.1546 -0.1109
  133loPI   C3B 2127   2.321   2.346   9.094 -0.3364  0.0095  0.2725
  133loPI   C4B 2128   2.459   2.087   8.682 -0.3376 -0.0162  0.0628
  134loPI    C1 2129  15.884  10.141  10.510  0.0794 -0.0169  0.0443
  134loPI    C2 2130  16.202  10.090  10.748  0.0090  0.0755  0.1590
  134loPI    C3 2131  16.126   9.827  10.457  0.1776  0.0404  0.1456
  134loPI   PO4 2132  15.898  10.396  10.362  0.1422 -0.1901 -0.2603
  134loPI   GL1 2133  15.629  10.358   9.920 -0.1939  0.5156  0.0185
  134loPI   GL2 2134  15.846  10.573   9.776  0.0589 -0.1457 -0.1263
  134loPI   C1A 2135  15.469  10.377   9.540 -0.2330 -0.0416  0.0586
  134loPI   C2A 2136  15.525  10.262   9.190  0.1681 -0.1726  0.0282
  134loPI   C3A 2137  15.420  10.220   8.875 -0.2185  0.0303  0.0137
  134loPI   C4A 2138  15.343  10.183   8.456 -0.0983 -0.0684  0.0190
  134loPI   C5A 2139  15.177  10.341   8.004  0.2914 -0.0363 -0.4909
  134loPI   C6A 2140  15.025  10.500   7.741 -0.0424  0.2900  0.1631
  134loPI   C1B 2141  15.824  10.786   9.362  0.0419  0.2562  0.3342
  134loPI   C2B 2142  15.862  10.614   8.983 -0.2304 -0.1966 -0.0711
  134loPI   C3B 2143  15.790  10.445   8.608 -0.1256  0.1754  0.0645
  134loPI   C4B 2144  15.644  10.332   8.081  0.1687  0.3153  0.2358
  135loPI    C1 2145   6.872   7.355  10.939 -0.3116 -0.1696  0.0591
  135loPI    C2 2146   7.098   7.447  11.257 -0.1478 -0.1148 -0.0718
  135loPI    C3 2147   6.801   7.181  11.293 -0.0364 -0.2190  0.0926
  135loPI   PO4 2148   6.987   7.336  10.735  0.1280 -0.0206 -0.0737
  135loPI   GL1 2149   7.036   7.481  10.411  0.2475  0.0507  0.1186
  135loPI   GL2 2150   6.915   7.211  10.254 -0.0512  0.3349 -0.2789
  135loPI   C1A 2151   7.128   7.919  10.254  0.2229  0.2939  0.0124
  135loPI   C2A 2152   7.159   8.204   9.905  0.0038 -0.2233  0.0622
  135loPI   C3A 2153   7.066   8.205   9.424  0.1981  0.0346 -0.0463
  135loPI   C4A 2154   6.984   8.278   9.029 -0.0141  0.4525  0.0092
  135loPI   C5A 2155   7.063   8.396   8.706 -0.0138 -0.2832  0.1961
  135loPI   C6A 2156   7.172   8.465   8.232 -0.0167 -0.0874 -0.0407
  135loPI   C1B 2157   6.637   7.342   9.945  0.0651 -0.1487  0.1294
  135loPI   C2B 2158   6.472   7.443   9.498 -0.2116 -0.2000  0.1256
  135loPI   C3B 2159   6.470   7.483   9.028  0.2266 -0.1885  0.0130
  135loPI   C4B 2160   6.683   7.414   8.678  0.1230  0.2203  0.1030
  136loPI    C1 2161  16.386  15.663  11.046 -0.1379 -0.0179  0.1882
  136loPI    C2 2162  16.681  15.399  11.105  0.0535  0.1532  0.0162
  136loPI    C3 2163  16.514  15.587  11.417  0.1164  0.0458  0.1155
  136loPI   PO4 2164  16.256  15.559  10.669 -0.1339  0.0202 -0.1429
  136loPI   GL1 2165  16.245  15.249  10.296 -0.0437 -0.2567  0.0958
  136loPI   GL2 2166  15.978  15.423  10.350 -0.0939 -0.1309  0.0061
  136loPI   C1A 2167  16.206  15.001   9.834  0.0314  0.1886 -0.2971
  136loPI   C2A 2168  16.238  15.056   9.379 -0.2666  0.1336  0.0121
  136loPI   C3A 2169  16.155  14.924   8.986  0.1953 -0.1140  0.0272
  136loPI   C4A 2170  15.943  14.913   8.613  0.1584  0.1136 -0.0094
  136loPI   C5A 2171  16.126  15.061   8.205  0.3038 -0.3106  0.0931
  136loPI   C6A 2172  16.017  15.565   8.017 -0.1828  0.1449  0.0462
  136loPI   C1B 2173  15.912  15.532   9.971  0.3470  0.1877 -0.1830
  136loPI   C2B 2174  16.132  15.470   9.569 -0.0097 -0.1661  0.3196
  136loPI   C3B 2175  16.010  15.441   9.085  0.4017 -0.1933 -0.0191
  136loPI   C4B 2176  15.795  15.427   8.697  0.1868  0.0484 -0.3924
  137loPI    C1 2177   4.157   6.711  10.870 -0.4747 -0.1320  0.0826
  137loPI    C2 2178   4.215   7.051  11.073 -0.1796 -0.2109  0.1347
  137loPI    C3 2179   4.291   6.699  11.247 -0.2902 -0.2956  0.0133
  137loPI   PO4 2180   4.322   6.669  10.627  0.3225  0.1373  0.1343
  137loPI   GL1 2181   4.283   6.777  10.146  0.0006  0.0939  0.2991
  137loPI   GL2 2182   4.099   6.496  10.077 -0.1699  0.0457 -0.0347
  137loPI   C1A 2183   4.283   6.852   9.793  0.2902  0.0234 -0.0814
  137loPI   C2A 2184   4.145   6.562   9.406  0.5345  0.0857  0.2017
  137loPI   C3A 2185   4.397   6.573   9.056  0.0204 -0.0597 -0.1388
  137loPI   C4A 2186   4.495   6.650   8.657  0.0525  0.0664  0.2098
  137loPI   C5A 2187   4.338   6.402   8.282  0.2390  0.2442  0.2091
  137loPI   C6A 2188   4.164   6.080   7.946  0.2192 -0.2211 -0.0958
  137loPI   C1B 2189   4.431   6.351   9.828  0.2496 -0.1609  0.1697
  137loPI   C2B 2190   4.606   6.205   9.392  0.1099 -0.0701  0.0120
  137loPI   C3B 2191   4.598   6.151   8.904  0.2959  0.0903  0.0210
  137loPI   C4B 2192   4.718   6.146   8.491  0.0529 -0.2920 -0.2178
  138loPI    C1 2193   1.294   4.530  11.263 -0.1883 -0.0137  0.0303
  138loPI    C2 2194   1.010   4.621  11.529 -0.0903  0.1798  0.0705
  138loPI    C3 2195   1.380   4.536  11.653 -0.1220 -0.0438  0.0162
  138loPI   PO4 2196   1.253   4.634  10.928  0.5488 -0.2775 -0.0278
  138loPI   GL1 2197   1.214   4.328  10.520 -0.1526  0.0049  0.0449
  138loPI   GL2 2198   0.914   4.235  10.474  0.3086  0.0887  0.1652
  138loPI   C1A 2199   1.153   4.397  10.038 -0.0365  0.0117 -0.0042
  138loPI   C2A 2200   1.209   4.494   9.517  0.0906 -0.1003 -0.1041
  138loPI   C3A 2201   1.282   4.437   9.014  0.1956 -0.4320  0.1742
  138loPI   C4A 2202   1.434   4.238   8.623  0.1380 -0.1274 -0.0259
  138loPI   C5A 2203   1.559   3.758   8.541 -0.0458 -0.2096  0.0651
  138loPI   C6A 2204   1.741   3.398   8.604  0.3489 -0.1533 -0.1131
  138loPI   C1B 2205   1.038   3.965  10.189  0.0430  0.0858 -0.0569
  138loPI   C2B 2206   1.071   3.943   9.820  0.3639 -0.3311  0.2303
  138loPI   C3B 2207   1.160   4.027   9.366 -0.0723 -0.0548 -0.0074
  138loPI   C4B 2208   1.310   3.888   8.999 -0.1925  0.1030  0.0223
  139loPI    C1 2209  10.168  14.133  11.146 -0.0994 -0.0621  0.2005
  139loPI    C2 2210  10.191  14.491  11.322  0.0462 -0.1210  0.3039
  139loPI    C3 2211  10.400  14.183  11.469  0.1077 -0.1906  0.0742
  139loPI   PO4 2212  10.203  14.244  10.868  0.2236  0.2278  0.2320
  139loPI   GL1 2213  10.170  14.516  10.580  0.0997 -0.0903 -0.2693
  139loPI   GL2 2214   9.858  14.298  10.501  0.0946  0.1592 -0.3031
  139loPI   C1A 2215  10.204  14.715  10.255  0.2124 -0.1624 -0.0615
  139loPI   C2A 2216   9.982  14.833   9.785  0.2238  0.0874  0.0531
  139loPI   C3A 2217  10.004  14.919   9.397  0.1692 -0.0218 -0.1508
  139loPI   C4A 2218  10.105  14.947   8.958  0.1765 -0.2233  0.0178
  139loPI   C5A 2219  10.133  14.821   8.532 -0.5762 -0.2305  0.3721
  139loPI   C6A 2220  10.396  15.045   8.160 -0.0371 -0.2520 -0.0616
  139loPI   C1B 2221   9.650  13.904  10.232 -0.3774  0.0604 -0.0566
  139loPI   C2B 2222   9.665  13.941   9.809  0.2672  0.3511 -0.0021
  139loPI   C3B 2223   9.533  14.049   9.360 -0.0341  0.1629 -0.1318
  139loPI   C4B 2224   9.598  13.968   8.929 -0.0340  0.0689  0.0774
  140loPI    C1 2225   3.910   6.235  10.764 -0.2091  0.1448 -0.2720
  140loPI    C2 2226   3.850   6.438  11.103  0.0267 -0.2384  0.0064
  140loPI    C3 2227   3.753   6.050  11.081  0.2361 -0.2777 -0.2849
  140loPI   PO4 2228   3.867   6.406  10.514  0.0032 -0.0028  0.0814
  140loPI   GL1 2229   3.623   6.551  10.257  0.0716 -0.0704  0.1294
  140loPI   GL2 2230   3.726   6.855  10.229  0.1027 -0.1332 -0.0051
  140loPI   C1A 2231   3.752   6.504   9.734 -0.0951  0.1708  0.0230
  140loPI   C2A 2232   3.556   6.519   9.275 -0.0235 -0.0754 -0.1000
  140loPI   C3A 2233   3.539   6.344   8.920 -0.2144 -0.1385  0.0052
  140loPI   C4A 2234   3.687   6.196   8.517 -0.2085 -0.1288 -0.3271
  140loPI   C5A 2235   3.597   6.314   8.105  0.0896  0.0845  0.0588
  140loPI   C6A 2236   3.710   6.375   7.682 -0.0202  0.1446 -0.0085
  140loPI   C1B 2237   3.693   7.033   9.769 -0.3120 -0.0079  0.0794
  140loPI   C2B 2238   3.861   7.008   9.328 -0.1762  0.2219 -0.2129
  140loPI   C3B 2239   3.909   6.732   8.989 -0.1234  0.0646 -0.0657
  140loPI   C4B 2240   4.029   6.499   8.706  0.0461  0.0002  0.4377
  141loPI    C1 2241   2.134   4.471  10.906 -0.0031  0.0711 -0.1462
  141loPI    C2 2242   2.499   4.328  10.831 -0.0153  0.0670 -0.1984
  141loPI    C3 2243   2.269   4.153  11.107  0.1040  0.1997 -0.0123
  141loPI   PO4 2244   2.058   4.607  10.642 -0.3159  0.0039  0.3067
  141loPI   GL1 2245   1.902   4.460  10.316 -0.0716  0.2198 -0.1871
  141loPI   GL2 2246   1.567   4.571  10.226 -0.0539 -0.0493 -0.2335
  141loPI   C1A 2247   2.055   4.671   9.932  0.1726 -0.2258 -0.1853
  141loPI   C2A 2248   2.047   4.852   9.486 -0.1962 -0.1599 -0.0118
  141loPI   C3A 2249   2.143   4.774   9.045 -0.1010  0.2309 -0.0139
  141loPI   C4A 2250   2.212   4.788   8.745 -0.3031 -0.1325  0.5397
  141loPI   C5A 2251   2.263   5.092   8.434  0.2022 -0.1338 -0.0547
  141loPI   C6A 2252   1.923   5.400   8.364  0.1088  0.0234  0.1771
  141loPI   C1B 2253   1.600   4.515   9.788 -0.2843 -0.0686  0.2661
  141loPI   C2B 2254   1.648   4.347   9.376 -0.1527  0.0261 -0.3371
  141loPI   C3B 2255   1.789   4.386   8.957 -0.5009 -0.1884 -0.2272
  141loPI   C4B 2256   1.996   4.304   8.485  0.0881 -0.1787  0.0059
  142loPI    C1 2257  16.251  17.844  10.734 -0.0280  0.0036 -0.0589
  142loPI    C2 2258  16.151  17.457  10.756 -0.0071 -0.0014 -0.0455
  142loPI    C3 2259  15.965  17.725  10.986  0.1305 -0.0342  0.1054
  142loPI   PO4 2260  16.221  17.889  10.469 -0.1287  0.1117 -0.2807
  142loPI   GL1 2261  16.396  17.849  10.160  0.1084  0.1638 -0.0806
  142loPI   GL2 2262  16.710  17.974  10.253 -0.0637 -0.1641 -0.0548
  142loPI   C1A 2263  16.229  17.556   9.890 -0.1335 -0.1261 -0.0159
  142loPI   C2A 2264  16.130  17.346   9.483 -0.2637  0.3461  0.1700
  142loPI   C3A 2265  16.114  17.311   9.111  0.0191 -0.1097 -0.2173
  142loPI   C4A 2266  15.952  17.406   8.800  0.0403 -0.1734 -0.1293
  142loPI   C5A 2267  15.929  17.597   8.301  0.1067  0.0439  0.0349
  142loPI   C6A 2268  15.527  17.704   7.978 -0.1229  0.2643  0.0347
  142loPI   C1B 2269  16.887  17.883   9.807  0.0916 -0.0839 -0.0095
  142loPI   C2B 2270  16.965  17.689   9.349 -0.0129  0.2531  0.0258
  142loPI   C3B 2271  17.190  17.427   9.065  0.0958  0.1732 -0.0183
  142loPI   C4B 2272  17.142  17.329   8.628  0.0454 -0.0531 -0.1301
  143loPI    C1 2273  17.115   3.292  10.503  0.2752  0.0128  0.1723
  143loPI    C2 2274  17.329   3.233  10.835  0.4134  0.0168  0.0847
  143loPI    C3 2275  17.419   3.536  10.591  0.2852  0.0395  0.0650
  143loPI   PO4 2276  17.132   3.105  10.379 -0.0434 -0.1685 -0.3862
  143loPI   GL1 2277  16.934   3.176  10.015  0.2156  0.0478 -0.2356
  143loPI   GL2 2278  16.740   3.360   9.807  0.0018  0.0444 -0.0675
  143loPI   C1A 2279  17.024   2.883   9.734  0.1346  0.3754 -0.1010
  143loPI   C2A 2280  17.087   2.895   9.290 -0.1377  0.1231  0.3145
  143loPI   C3A 2281  16.784   2.810   8.968  0.1245  0.1217 -0.0099
  143loPI   C4A 2282  16.775   2.808   8.537  0.2144 -0.1120 -0.1252
  143loPI   C5A 2283  16.552   2.772   8.193 -0.0023 -0.1790  0.2713
  143loPI   C6A 2284  16.217   2.890   7.931  0.1567 -0.0870  0.0402
  143loPI   C1B 2285  16.842   3.366   9.413 -0.1984 -0.0659 -0.0997
  143loPI   C2B 2286  16.696   3.515   9.115 -0.2398  0.0935  0.0064
  143loPI   C3B 2287  16.821   3.426   8.678  0.1384  0.4902 -0.0865
  143loPI   C4B 2288  16.901   3.197   8.315 -0.0380 -0.0353 -0.1456
  144loPI    C1 2289  10.319   0.306  10.678  0.0722  0.2031 -0.0999
  144loPI    C2 2290  10.550   0.192  10.984 -0.0962  0.1155 -0.0032
  144loPI    C3 2291  10.201   0.374  11.054 -0.0537  0.2564 -0.1484
  144loPI   PO4 2292  10.328   0.045  10.499 -0.1603 -0.2254 -0.0986
  144loPI   GL1 2293  10.607  -0.010  10.068 -0.1483 -0.4201 -0.2950
  144loPI   GL2 2294  10.329   0.130  10.000  0.0245  0.0260 -0.0604
  144loPI   C1A 2295  10.635  -0.199   9.662  0.3101  0.1615  0.0443
  144loPI   C2A 2296  10.596  -0.054   9.197  0.0941  0.1168 -0.0976
  144loPI   C3A 2297  10.257  -0.101   8.831  0.1033  0.4612 -0.0582
  144loPI   C4A 2298  10.093  -0.039   8.408  0.2557  0.0125  0.3744
  144loPI   C5A 2299   9.761  -0.162   8.199 -0.0246 -0.0187 -0.1837
  144loPI   C6A 2300   9.371  -0.266   8.285  0.0772 -0.0593  0.3152
  144loPI   C1B 2301  10.269   0.136   9.626  0.3852  0.0116 -0.1065
  144loPI   C2B 2302  10.110   0.071   9.327  0.0189  0.2316  0.0847
  144loPI   C3B 2303   9.820   0.074   9.048 -0.2376 -0.0816 -0.1421
  144loPI   C4B 2304   9.713  -0.208   8.733 -0.1267 -0.0376  0.3916
  145loPI    C1 2305   8.962   7.092  10.541  0.1486  0.1472  0.1538
  145loPI    C2 2306   9.012   6.703  10.460  0.0740  0.0905  0.3746
  145loPI    C3 2307   9.226   6.876  10.750  0.0749  0.2042  0.3067
  145loPI   PO4 2308   8.951   7.270  10.341 -0.0922 -0.3088 -0.1848
  145loPI   GL1 2309   8.849   7.259   9.923  0.0499  0.0659 -0.1440
  145loPI   GL2 2310   8.800   7.001   9.758 -0.1694 -0.1140 -0.3590
  145loPI   C1A 2311   8.777   7.385   9.478  0.0677  0.3333  0.1592
  145loPI   C2A 2312   8.764   7.380   9.175 -0.0632 -0.1963 -0.0410
  145loPI   C3A 2313   8.626   7.444   8.714 -0.0312 -0.0046  0.1120
  145loPI   C4A 2314   8.643   7.673   8.375 -0.0039 -0.1564  0.3075
  145loPI   C5A 2315   8.753   7.748   7.890 -0.0330  0.0219 -0.3727
  145loPI   C6A 2316   8.833   7.424   7.567 -0.1000 -0.1743  0.0771
  145loPI   C1B 2317   8.855   6.752   9.304  0.0074 -0.2788 -0.0418
  145loPI   C2B 2318   8.694   6.474   8.889 -0.1804  0.0656  0.3215
  145loPI   C3B 2319   8.525   6.312   8.453  0.1743 -0.1248  0.0961
  145loPI   C4B 2320   8.471   6.290   7.961  0.0747 -0.0799  0.2007
  146loPI    C1 2321  14.383  17.227  10.904 -0.1520  0.0765 -0.1571
  146loPI    C2 2322  14.182  16.973  11.138 -0.1415  0.0498 -0.1770
  146loPI    C3 2323  14.382  17.278  11.301  0.1656 -0.1768 -0.1196
  146loPI   PO4 2324  14.160  17.195  10.623 -0.0119  0.2681 -0.2251
  146loPI   GL1 2325  14.015  17.125  10.287  0.0358  0.0460 -0.4182
  146loPI   GL2 2326  13.738  17.139  10.141 -0.1898  0.1205 -0.0483
  146loPI   C1A 2327  14.151  17.037   9.902  0.3250 -0.3056  0.0470
  146loPI   C2A 2328  14.150  17.047   9.524 -0.1236 -0.0884  0.0977
  146loPI   C3A 2329  14.307  16.986   9.154 -0.3843  0.0741 -0.0304
  146loPI   C4A 2330  14.432  16.682   8.804  0.1334  0.3490 -0.1193
  146loPI   C5A 2331  14.186  16.403   8.522 -0.2333  0.0796  0.2944
  146loPI   C6A 2332  13.886  16.121   8.281 -0.0295  0.0525  0.1446
  146loPI   C1B 2333  13.660  17.071   9.691 -0.0439  0.0704  0.0377
  146loPI   C2B 2334  13.712  17.056   9.304  0.2202 -0.1257  0.2557
  146loPI   C3B 2335  13.492  17.136   8.956  0.2920 -0.0065  0.2923
  146loPI   C4B 2336  13.443  17.000   8.631 -0.1138  0.0017 -0.0503
  147loPI    C1 2337  16.893   7.033  10.835 -0.2501 -0.0534  0.0646
  147loPI    C2 2338  17.080   6.918  11.169 -0.1963  0.1360  0.1010
  147loPI    C3 2339  16.892   7.271  11.157 -0.0026  0.2341 -0.1406
  147loPI   PO4 2340  16.819   6.843  10.705  0.1095  0.0383 -0.2152
  147loPI   GL1 2341  16.952   6.699  10.378  0.0747 -0.2740 -0.1260
  147loPI   GL2 2342  16.829   6.353  10.381 -0.1495 -0.0253 -0.1821
  147loPI   C1A 2343  16.809   6.941   9.914 -0.3051  0.0774 -0.1884
  147loPI   C2A 2344  16.465   6.867   9.671 -0.1351 -0.2565 -0.1216
  147loPI   C3A 2345  16.381   6.840   9.311  0.1691 -0.0530  0.0489
  147loPI   C4A 2346  16.409   6.753   8.922  0.2024 -0.1405  0.0084
  147loPI   C5A 2347  16.576   6.631   8.497 -0.2084  0.0957  0.1316
  147loPI   C6A 2348  16.878   6.676   8.187  0.0963  0.0934 -0.1315
  147loPI   C1B 2349  16.902   6.462   9.894  0.1453  0.0979  0.0406
  147loPI   C2B 2350  16.836   6.594   9.369 -0.1849  0.0819  0.0562
  147loPI   C3B 2351  16.938   6.618   8.803 -0.2154 -0.2679  0.1947
  147loPI   C4B 2352  17.317   6.632   8.375  0.0099 -0.2202 -0.1056
  148loPI    C1 2353  12.484  10.633  10.749  0.2280  0.0539 -0.0305
  148loPI    C2 2354  12.798  10.779  10.949  0.1697 -0.0203  0.1169
  148loPI    C3 2355  12.628  10.437  11.068  0.1805 -0.1040 -0.1051
  148loPI   PO4 2356  12.476  10.645  10.531 -0.0192 -0.1495  0.1816
  148loPI   GL1 2357  12.451  10.514  10.144 -0.1199 -0.0860 -0.1919
  148loPI   GL2 2358  12.150  10.405   9.930 -0.0825  0.1721 -0.1858
  148loPI   C1A 2359  12.677  10.272   9.767 -0.2646 -0.0542  0.3021
  148loPI   C2A 2360  12.668  10.096   9.393 -0.0975  0.1296  0.0287
  148loPI   C3A 2361  12.528  10.082   8.908 -0.0681 -0.2439  0.0992
  148loPI   C4A 2362  12.537  10.210   8.552 -0.0176  0.0212  0.0222
  148loPI   C5A 2363  12.332  10.161   8.111  0.0207  0.1917  0.0411
  148loPI   C6A 2364  12.531   9.928   7.819  0.1238 -0.1430 -0.3565
  148loPI   C1B 2365  12.053  10.369   9.519 -0.2047  0.2136 -0.0221
  148loPI   C2B 2366  12.121  10.321   9.073 -0.0778  0.0432  0.1542
  148loPI   C3B 2367  12.048  10.200   8.719 -0.0638 -0.0059  0.0349
  148loPI   C4B 2368  11.978   9.915   8.342  0.1623 -0.1789  0.1416
  149loPI    C1 2369   5.150   9.346  10.501 -0.0469 -0.0447  0.0033
  149loPI    C2 2370   5.211   8.990  10.328 -0.1885 -0.1601  0.1878
  149loPI    C3 2371   5.358   9.063  10.693  0.0122  0.0428  0.0687
  149loPI   PO4 2372   4.895   9.425  10.519 -0.1209  0.0420 -0.0877
  149loPI   GL1 2373   4.796   9.664  10.215 -0.0267 -0.1393  0.2146
  149loPI   GL2 2374   4.430   9.445  10.237  0.0289  0.0013  0.1533
  149loPI   C1A 2375   4.850   9.508   9.761 -0.1103  0.0009 -0.1050
  149loPI   C2A 2376   4.779   9.578   9.284  0.2645 -0.1516 -0.0970
  149loPI   C3A 2377   4.893   9.554   8.786 -0.0201  0.0858 -0.2637
  149loPI   C4A 2378   4.941   9.902   8.398 -0.0882 -0.1344  0.3105
  149loPI   C5A 2379   5.089  10.307   8.353  0.3066 -0.1093  0.0356
  149loPI   C6A 2380   5.041  10.783   8.128 -0.0836  0.0201 -0.0271
  149loPI   C1B 2381   4.503   9.198   9.839 -0.0006 -0.0699 -0.1053
  149loPI   C2B 2382   4.724   9.121   9.436  0.2503  0.1359  0.0872
  149loPI   C3B 2383   4.809   8.949   8.903 -0.1638 -0.0603  0.0025
  149loPI   C4B 2384   4.875   9.095   8.455  0.2867  0.1100 -0.0362
  150loPI    C1 2385   3.632   4.904  10.900  0.1378 -0.0541  0.1870
  150loPI    C2 2386   3.525   4.520  10.866  0.2046 -0.0603  0.0383
  150loPI    C3 2387   3.707   4.648  11.199 -0.3036 -0.0389  0.3182
  150loPI   PO4 2388   3.549   4.970  10.680  0.0748  0.1266  0.0458
  150loPI   GL1 2389   3.453   4.969  10.258  0.0317 -0.0221  0.1942
  150loPI   GL2 2390   3.352   4.694  10.056 -0.0106  0.0943  0.0332
  150loPI   C1A 2391   3.226   5.190   9.951  0.1103 -0.1746 -0.1217
  150loPI   C2A 2392   2.944   5.338   9.597 -0.3261  0.2676  0.1784
  150loPI   C3A 2393   2.876   5.412   9.155 -0.0209 -0.1024 -0.1561
  150loPI   C4A 2394   2.880   5.594   8.762  0.2158  0.0953  0.1915
  150loPI   C5A 2395   3.283   5.669   8.625 -0.3183  0.0602 -0.0932
  150loPI   C6A 2396   3.393   5.907   8.266  0.0321 -0.1271  0.1027
  150loPI   C1B 2397   3.153   4.578   9.604 -0.0205  0.1910  0.0793
  150loPI   C2B 2398   3.208   4.526   9.210  0.0217  0.5448 -0.1369
  150loPI   C3B 2399   3.353   4.364   8.894 -0.3868 -0.0391  0.1874
  150loPI   C4B 2400   3.537   4.270   8.435  0.0202  0.0424 -0.0765
  151loPI    C1 2401  17.676   0.557  10.662 -0.1200  0.2823 -0.1246
  151loPI    C2 2402  17.493   0.329  10.935  0.1121  0.0248 -0.1791
  151loPI    C3 2403  17.302   0.641  10.774 -0.1216  0.0180  0.0781
  151loPI   PO4 2404  17.779   0.409  10.509 -0.1479  0.2331  0.0289
  151loPI   GL1 2405  18.097   0.557  10.283  0.0542  0.0214  0.2205
  151loPI   GL2 2406  18.238   0.213  10.178  0.1328 -0.0301 -0.0298
  151loPI   C1A 2407  18.160   0.627   9.840  0.0586 -0.2107  0.0956
  151loPI   C2A 2408  18.237   0.578   9.392  0.0883 -0.0098 -0.4352
  151loPI   C3A 2409  18.221   0.493   8.973  0.0962  0.1673 -0.1172
  151loPI   C4A 2410  18.241   0.463   8.608  0.2504  0.1783  0.2825
  151loPI   C5A 2411  17.862   0.308   8.396 -0.0474  0.0369 -0.0718
  151loPI   C6A 2412  17.469   0.163   8.374  0.1286 -0.3271  0.2347
  151loPI   C1B 2413  18.327   0.177   9.687  0.0353 -0.2634 -0.2416
  151loPI   C2B 2414  18.422   0.116   9.271 -0.1565  0.0117 -0.2306
  151loPI   C3B 2415  18.652   0.021   8.863  0.1277 -0.0688  0.1166
  151loPI   C4B 2416  19.096   0.059   9.057  0.1080 -0.0280  0.3098
  152loPI    C1 2417   3.748   3.891  10.807 -0.1599  0.1743  0.0004
  152loPI    C2 2418   3.457   3.877  10.533 -0.2010  0.2077  0.0421
  152loPI    C3 2419   3.477   3.597  10.817 -0.1478  0.1629 -0.0054
  152loPI   PO4 2420   3.854   4.118  10.720  0.1244  0.0816  0.0374
  152loPI   GL1 2421   4.125   4.218  10.370  0.1236  0.0513 -0.2992
  152loPI   GL2 2422   4.439   3.965  10.249  0.3318 -0.3097 -0.0916
  152loPI   C1A 2423   4.098   4.270   9.902 -0.0145 -0.4295  0.1336
  152loPI   C2A 2424   4.252   4.214   9.401  0.0361 -0.0287  0.1414
  152loPI   C3A 2425   4.372   4.158   9.032 -0.2253 -0.1029 -0.0190
  152loPI   C4A 2426   4.405   3.974   8.781  0.0509  0.0399  0.0756
  152loPI   C5A 2427   4.669   3.860   8.501 -0.2729  0.2312 -0.3339
  152loPI   C6A 2428   5.068   3.576   8.439  0.1119 -0.0308 -0.1653
  152loPI   C1B 2429   4.408   3.809   9.803  0.1727 -0.0886  0.1936
  152loPI   C2B 2430   4.377   3.683   9.313  0.1537  0.3828  0.0082
  152loPI   C3B 2431   4.477   3.521   8.875 -0.2409  0.0013  0.1210
  152loPI   C4B 2432   4.627   3.347   8.423 -0.1232  0.0321  0.1471
  153loPI    C1 2433   8.420  15.404  10.937  0.0510 -0.1023  0.0553
  153loPI    C2 2434   8.665  15.382  11.253 -0.0745  0.1922  0.1770
  153loPI    C3 2435   8.296  15.227  11.274  0.0219 -0.0581  0.0677
  153loPI   PO4 2436   8.536  15.312  10.755  0.2210  0.0298  0.1472
  153loPI   GL1 2437   8.663  15.308  10.325  0.1556 -0.1903  0.1591
  153loPI   GL2 2438   8.980  15.127  10.472  0.0004 -0.0798  0.1321
  153loPI   C1A 2439   8.527  15.472  10.022 -0.2400 -0.1362  0.0099
  153loPI   C2A 2440   8.534  15.478   9.572 -0.1618  0.1942  0.0553
  153loPI   C3A 2441   8.437  15.681   9.141  0.2352 -0.2915 -0.1554
  153loPI   C4A 2442   8.629  15.998   8.837  0.3106 -0.1305 -0.0134
  153loPI   C5A 2443   8.777  16.331   8.528  0.0443  0.0410 -0.0051
  153loPI   C6A 2444   9.169  16.675   8.518 -0.1003  0.1352 -0.0356
  153loPI   C1B 2445   9.295  15.101  10.135  0.3480 -0.1212  0.2483
  153loPI   C2B 2446   9.466  14.957   9.802 -0.3150  0.1679 -0.0370
  153loPI   C3B 2447   9.457  14.890   9.405  0.0651  0.0141  0.0281
  153loPI   C4B 2448   9.669  15.126   9.064  0.1769 -0.1553  0.0513
  154loPI    C1 2449   0.048   5.588  10.746 -0.0353  0.1858  0.0219
  154loPI    C2 2450  -0.115   5.545  11.109  0.0683  0.0329  0.0512
  154loPI    C3 2451   0.281   5.508  11.061  0.0824  0.2804 -0.0398
  154loPI   PO4 2452  -0.036   5.853  10.715  0.0167 -0.0642 -0.3194
  154loPI   GL1 2453  -0.282   5.880  10.336  0.2385 -0.2446  0.1043
  154loPI   GL2 2454  -0.023   5.688  10.253 -0.2140 -0.1910  0.0363
  154loPI   C1A 2455  -0.469   5.798   9.932 -0.0074 -0.1063 -0.0299
  154loPI   C2A 2456  -0.369   5.760   9.598  0.0029  0.2788  0.1398
  154loPI   C3A 2457  -0.319   5.741   9.233  0.1543  0.0978  0.0419
  154loPI   C4A 2458  -0.330   5.722   8.865 -0.2221 -0.1052  0.0773
  154loPI   C5A 2459  -0.163   5.668   8.443  0.1959 -0.1291 -0.2897
  154loPI   C6A 2460   0.144   5.704   8.186  0.1429  0.1234  0.1161
  154loPI   C1B 2461   0.036   5.562   9.849  0.3619  0.0215 -0.2028
  154loPI   C2B 2462   0.309   5.499   9.593 -0.0184  0.0772  0.4857
  154loPI   C3B 2463   0.442   5.293   9.245 -0.1740  0.3246  0.1924
  154loPI   C4B 2464   0.630   5.194   8.818 -0.1398  0.0552  0.0230
  155loPI    C1 2465   0.814   2.810  10.846  0.1180 -0.2532  0.0890
  155loPI    C2 2466   0.732   3.184  10.962 -0.1625 -0.3160  0.1004
  155loPI    C3 2467   0.959   2.949  11.193  0.1200 -0.1143  0.0332
  155loPI   PO4 2468   0.883   2.920  10.572 -0.1235 -0.2240 -0.0429
  155loPI   GL1 2469   1.173   3.083  10.292 -0.0041 -0.0528  0.1016
  155loPI   GL2 2470   1.455   3.213  10.382  0.0828 -0.1408 -0.0530
  155loPI   C1A 2471   1.207   3.101   9.867 -0.2147 -0.2029  0.0448
  155loPI   C2A 2472   1.182   3.080   9.423 -0.0180 -0.1231 -0.2028
  155loPI   C3A 2473   1.354   2.772   9.243  0.2357  0.0678 -0.2143
  155loPI   C4A 2474   1.377   2.663   8.879  0.1148  0.1918  0.0211
  155loPI   C5A 2475   1.493   2.572   8.497  0.2248  0.1024  0.1085
  155loPI   C6A 2476   1.349   2.470   8.093  0.1387  0.0891  0.0180
  155loPI   C1B 2477   1.712   3.126  10.035 -0.0455  0.0317 -0.1921
  155loPI   C2B 2478   1.716   3.068   9.571 -0.0844  0.0358  0.0226
  155loPI   C3B 2479   1.720   3.075   9.021 -0.0318 -0.1327 -0.0922
  155loPI   C4B 2480   1.823   2.859   8.643 -0.0142 -0.1669  0.1648
  156loPI    C1 2481   0.768  16.484  10.858 -0.1949  0.0813 -0.0460
  156loPI    C2 2482   0.727  16.643  11.222  0.1097  0.0580  0.0011
  156loPI    C3 2483   0.920  16.296  11.176 -0.0767 -0.0256 -0.1638
  156loPI   PO4 2484   0.913  16.706  10.620  0.1505 -0.2997 -0.0011
  156loPI   GL1 2485   1.193  16.888  10.221  0.0048 -0.0112  0.1715
  156loPI   GL2 2486   0.937  17.060  10.092  0.0791 -0.3828 -0.0547
  156loPI   C1A 2487   1.293  16.708   9.821 -0.1524 -0.2640  0.0619
  156loPI   C2A 2488   1.380  16.755   9.382 -0.0127  0.1601  0.2082
  156loPI   C3A 2489   1.365  16.814   9.003  0.3595  0.1111  0.2362
  156loPI   C4A 2490   1.379  16.939   8.523 -0.0216  0.0243  0.2394
  156loPI   C5A 2491   1.491  17.018   8.084  0.2646 -0.2405  0.0667
  156loPI   C6A 2492   1.625  17.023   7.612 -0.1299 -0.1422  0.4653
  156loPI   C1B 2493   0.938  17.089   9.692  0.0192 -0.0514  0.2861
  156loPI   C2B 2494   0.845  17.048   9.200  0.0250  0.3451  0.1760
  156loPI   C3B 2495   0.876  17.134   8.696  0.2065  0.0303  0.2683
  156loPI   C4B 2496   0.850  16.970   8.251  0.1207 -0.1428 -0.0621
  157loPI    C1 2497  11.127   0.182  10.445 -0.0382  0.2498 -0.1601
  157loPI    C2 2498  11.138  -0.002  10.801  0.1526 -0.0670 -0.3257
  157loPI    C3 2499  10.799   0.004  10.589  0.0680  0.0277 -0.1892
  157loPI   PO4 2500  11.185   0.425  10.513 -0.1702  0.1535  0.1514
  157loPI   GL1 2501  11.374   0.603  10.113  0.0592  0.2332  0.1251
  157loPI   GL2 2502  11.659   0.622   9.977  0.1679  0.2185 -0.0479
  157loPI   C1A 2503  11.246   0.416   9.755 -0.0436  0.3551 -0.1560
  157loPI   C2A 2504  11.343   0.381   9.283 -0.0379 -0.1195  0.1835
  157loPI   C3A 2505  11.455   0.278   8.960 -0.1869 -0.0125  0.3678
  157loPI   C4A 2506  11.218  -0.012   8.638  0.0011 -0.1453  0.1857
  157loPI   C5A 2507  11.028  -0.232   8.316 -0.2921 -0.0686 -0.0606
  157loPI   C6A 2508  10.827  -0.251   7.859  0.2188  0.1089  0.1418
  157loPI   C1B 2509  11.780   0.420   9.588  0.1582 -0.0112 -0.1309
  157loPI   C2B 2510  11.892   0.387   9.208  0.2060 -0.1852 -0.0897
  157loPI   C3B 2511  11.910   0.459   8.770 -0.1790  0.2279 -0.2832
  157loPI   C4B 2512  11.957   0.061   8.651 -0.2705  0.1405 -0.0266
  158loPI    C1 2513  14.343  10.255  10.558  0.0586 -0.0836 -0.0032
  158loPI    C2 2514  14.645  10.043  10.713  0.0724 -0.0605  0.0015
  158loPI    C3 2515  14.362  10.193  10.952  0.1718  0.0977  0.0213
  158loPI   PO4 2516  14.242  10.013  10.303 -0.1339  0.0232  0.1287
  158loPI   GL1 2517  14.350   9.769   9.911  0.0628  0.3367  0.0443
  158loPI   GL2 2518  14.072   9.858   9.883  0.0639 -0.1264  0.2643
  158loPI   C1A 2519  14.425   9.574   9.409 -0.1555 -0.4170 -0.4934
  158loPI   C2A 2520  14.348   9.503   9.007 -0.1850 -0.1066  0.0406
  158loPI   C3A 2521  14.659   9.616   8.564 -0.0829 -0.2677 -0.0321
  158loPI   C4A 2522  14.538   9.625   8.186 -0.3923  0.0449  0.0528
  158loPI   C5A 2523  14.644   9.456   7.793 -0.1853  0.0183 -0.1691
  158loPI   C6A 2524  14.768   9.028   7.761  0.1628 -0.0416 -0.1829
  158loPI   C1B 2525  14.091   9.918   9.487 -0.1435  0.1708  0.0350
  158loPI   C2B 2526  14.013   9.873   9.045  0.1325 -0.0174 -0.0686
  158loPI   C3B 2527  14.018  10.019   8.639 -0.2499  0.0459 -0.1141
  158loPI   C4B 2528  14.017  10.058   8.208 -0.0072  0.0244  0.2429
  159loPI    C1 2529   2.504   3.946  10.527 -0.0906 -0.0903  0.4236
  159loPI    C2 2530   2.127   4.056  10.603 -0.1163  0.0286  0.1394
  159loPI    C3 2531   2.350   4.270  10.350  0.0591 -0.1877  0.1080
  159loPI   PO4 2532   2.564   3.730  10.461 -0.1066  0.0023  0.0048
  159loPI   GL1 2533   2.468   3.755  10.033  0.0287  0.0677 -0.3530
  159loPI   GL2 2534   2.584   4.037  10.004  0.0427  0.0776 -0.2694
  159loPI   C1A 2535   2.332   3.758   9.641 -0.0215  0.0443  0.1089
  159loPI   C2A 2536   2.491   3.803   9.295  0.1364 -0.0496 -0.2119
  159loPI   C3A 2537   2.453   3.710   8.822 -0.0583 -0.1376 -0.3208
  159loPI   C4A 2538   2.603   3.937   8.392 -0.1751 -0.0267  0.0458
  159loPI   C5A 2539   2.285   4.146   8.081 -0.1043  0.0353  0.1698
  159loPI   C6A 2540   1.830   4.284   8.004  0.4892 -0.0761  0.1602
  159loPI   C1B 2541   2.778   4.195   9.629  0.0257  0.1694  0.0443
  159loPI   C2B 2542   2.807   4.175   9.141 -0.1851  0.3029 -0.0273
  159loPI   C3B 2543   2.960   4.023   8.762  0.4515 -0.0493  0.2361
  159loPI   C4B 2544   3.199   3.848   8.421  0.1413  0.1594 -0.0740
  160loPI    C1 2545  13.216   7.632  10.548  0.2647  0.0352  0.1749
  160loPI    C2 2546  12.986   7.807  10.824  0.0064 -0.0705  0.0297
  160loPI    C3 2547  13.054   7.414  10.842  0.0887 -0.0573  0.0109
  160loPI   PO4 2548  13.203   7.700  10.362  0.2659 -0.0556 -0.1137
  160loPI   GL1 2549  13.160   7.873   9.946 -0.1925 -0.3458 -0.2193
  160loPI   GL2 2550  13.519   7.781   9.921 -0.2512 -0.2937  0.0561
  160loPI   C1A 2551  13.012   7.598   9.651 -0.0220  0.0429  0.1045
  160loPI   C2A 2552  13.190   7.525   9.202  0.0136 -0.2812  0.3571
  160loPI   C3A 2553  13.454   7.610   8.910 -0.0009  0.1075 -0.0970
  160loPI   C4A 2554  13.479   7.852   8.490  0.2002 -0.0081 -0.1480
  160loPI   C5A 2555  13.869   7.933   8.244  0.0692  0.2973  0.1567
  160loPI   C6A 2556  14.059   7.744   7.942  0.0123 -0.4036 -0.0416
  160loPI   C1B 2557  13.566   7.652   9.462  0.1907 -0.0862 -0.2450
  160loPI   C2B 2558  13.876   7.791   9.096  0.0395  0.0406 -0.1843
  160loPI   C3B 2559  13.887   7.555   8.655  0.1907 -0.1119  0.1068
  160loPI   C4B 2560  13.732   7.422   8.262  0.0143 -0.2129  0.1155
  161loPI    C1 2561   2.988  11.628  10.302  0.2133  0.0987 -0.1619
  161loPI    C2 2562   2.847  11.351  10.050  0.0257 -0.1140  0.1699
  161loPI    C3 2563   3.054  11.240  10.374 -0.0167  0.1366  0.2849
  161loPI   PO4 2564   3.103  11.759  10.151 -0.1314  0.0836  0.1924
  161loPI   GL1 2565   3.030  11.900   9.793 -0.0921 -0.1842 -0.1752
  161loPI   GL2 2566   3.187  12.128   9.602 -0.0567  0.1721 -0.0812
  161loPI   C1A 2567   2.780  11.608   9.564  0.0283 -0.0639 -0.1605
  161loPI   C2A 2568   2.727  11.596   9.186 -0.0404  0.1155 -0.2047
  161loPI   C3A 2569   2.415  11.515   8.812  0.2636  0.2310 -0.2032
  161loPI   C4A 2570   2.174  11.425   8.349 -0.1065  0.0714 -0.0658
  161loPI   C5A 2571   2.297  11.532   7.945 -0.1427  0.1854  0.3291
  161loPI   C6A 2572   2.790  11.524   7.876  0.0418  0.1954  0.3681
  161loPI   C1B 2573   2.920  12.015   9.270  0.1407  0.3569  0.3980
  161loPI   C2B 2574   2.916  12.038   8.915  0.3633 -0.2563 -0.2537
  161loPI   C3B 2575   2.877  11.775   8.770 -0.0038  0.0102  0.1131
  161loPI   C4B 2576   2.630  11.671   8.351  0.1124 -0.0646  0.1450
  162loPI    C1 2577   6.770   0.090  11.026  0.1560  0.0722 -0.0140
  162loPI    C2 2578   6.735   0.339  11.338  0.1483  0.0236  0.0242
  162loPI    C3 2579   6.408   0.214  11.144  0.1481 -0.0028  0.0415
  162loPI   PO4 2580   7.025   0.190  10.871 -0.1237  0.0534 -0.1154
  162loPI   GL1 2581   7.358   0.208  10.539  0.2890  0.1156 -0.0619
  162loPI   GL2 2582   7.276  -0.140  10.406  0.3554 -0.0271 -0.1323
  162loPI   C1A 2583   6.944   0.180  10.270 -0.1831 -0.1710  0.1119
  162loPI   C2A 2584   6.718   0.082   9.961 -0.1023 -0.1281  0.1801
  162loPI   C3A 2585   6.704   0.047   9.535 -0.2064  0.1239  0.3556
  162loPI   C4A 2586   6.810  -0.161   9.153  0.0646 -0.3997 -0.0859
  162loPI   C5A 2587   6.882  -0.446   8.830  0.3705  0.1082  0.1167
  162loPI   C6A 2588   6.750  -0.452   8.496 -0.4001  0.0522  0.0895
  162loPI   C1B 2589   7.215  -0.138   9.901  0.1932 -0.2839 -0.0611
  162loPI   C2B 2590   7.178  -0.142   9.484  0.1120 -0.2037  0.0256
  162loPI   C3B 2591   7.302  -0.184   9.104  0.1454 -0.1002  0.2572
  162loPI   C4B 2592   7.122  -0.102   8.625 -0.2384 -0.0234 -0.0681
  163loPI    C1 2593   6.283   8.515  10.553  0.0427 -0.0531 -0.0049
  163loPI    C2 2594   6.469   8.336  10.859 -0.0161  0.0872  0.1138
  163loPI    C3 2595   6.661   8.611  10.642  0.0979 -0.1675 -0.1130
  163loPI   PO4 2596   6.141   8.189  10.516 -0.0226  0.0571  0.3202
  163loPI   GL1 2597   5.857   8.006  10.078 -0.1143 -0.0505 -0.0135
  163loPI   GL2 2598   6.163   8.224   9.974  0.3316 -0.0745 -0.2822
  163loPI   C1A 2599   5.788   8.035   9.567  0.4159  0.0169 -0.1893
  163loPI   C2A 2600   5.585   7.900   9.202  0.1035 -0.0302 -0.2055
  163loPI   C3A 2601   5.417   7.964   8.791 -0.0380 -0.1181 -0.0394
  163loPI   C4A 2602   5.555   8.065   8.396 -0.0216  0.0774 -0.2106
  163loPI   C5A 2603   5.920   8.129   8.683 -0.0524 -0.0720 -0.3422
  163loPI   C6A 2604   5.957   8.190   9.161  0.2655 -0.0429 -0.1221
  163loPI   C1B 2605   6.214   8.296   9.582  0.1812 -0.3347 -0.0229
  163loPI   C2B 2606   6.481   8.450   9.231 -0.0710  0.2686 -0.1169
  163loPI   C3B 2607   6.581   8.622   8.896  0.0541 -0.0338 -0.2655
  163loPI   C4B 2608   6.661   8.734   8.497  0.0006  0.0763 -0.1752
  164loPI    C1 2609   9.962   0.636  10.306 -0.3520  0.0569  0.1209
  164loPI    C2 2610   9.937   0.668  10.704  0.1479  0.0741  0.1571
  164loPI    C3 2611   9.839   0.979  10.471  0.0377  0.1279  0.2742
  164loPI   PO4 2612  10.149   0.551  10.247  0.1197 -0.2822 -0.1332
  164loPI   GL1 2613  10.350   0.638   9.875  0.1599  0.1104 -0.0978
  164loPI   GL2 2614  10.535   0.895  10.054  0.1292  0.2452 -0.2386
  164loPI   C1A 2615  10.484   0.530   9.375 -0.0999 -0.0899  0.0121
  164loPI   C2A 2616  10.364   0.457   9.027 -0.0908  0.0754 -0.2587
  164loPI   C3A 2617  10.224   0.546   8.544  0.0129 -0.0461 -0.0944
  164loPI   C4A 2618  10.279   0.527   8.121 -0.4766  0.2159  0.1173
  164loPI   C5A 2619  10.507   0.714   7.756 -0.0882  0.1623 -0.0913
  164loPI   C6A 2620  10.649   0.958   7.487  0.2499  0.1380  0.3466
  164loPI   C1B 2621  10.776   0.437   9.858  0.2549 -0.0032  0.1540
  164loPI   C2B 2622  10.834   0.263   9.514 -0.1365 -0.1869  0.1281
  164loPI   C3B 2623  10.900   0.317   9.071  0.2499 -0.3124 -0.1071
  164loPI   C4B 2624  10.731   0.291   8.745  0.0772  0.1160  0.0828
  165loPI    C1 2625  13.585   4.838  10.488  0.0429 -0.0589 -0.1755
  165loPI    C2 2626  13.596   4.633  10.831 -0.0037  0.1544 -0.0442
  165loPI    C3 2627  13.903   4.612  10.576  0.1402  0.1869  0.1242
  165loPI   PO4 2628  13.534   5.107  10.541  0.2064  0.0378  0.2593
  165loPI   GL1 2629  13.373   5.294  10.171  0.3265  0.1106 -0.0535
  165loPI   GL2 2630  13.496   5.566   9.984 -0.0407 -0.0348  0.0420
  165loPI   C1A 2631  13.337   5.097   9.909  0.1558  0.1002  0.0739
  165loPI   C2A 2632  13.341   4.919   9.479 -0.0876  0.0295  0.1327
  165loPI   C3A 2633  13.499   4.863   9.092 -0.0341  0.1470 -0.1238
  165loPI   C4A 2634  13.752   4.906   8.778  0.2068  0.1548  0.0502
  165loPI   C5A 2635  13.704   4.968   8.311  0.1138  0.4703 -0.0917
  165loPI   C6A 2636  13.809   4.764   7.943  0.5832  0.2238 -0.0418
  165loPI   C1B 2637  13.336   5.445   9.520 -0.1117 -0.1239  0.1281
  165loPI   C2B 2638  13.177   5.242   9.159  0.3398  0.1902 -0.0014
  165loPI   C3B 2639  13.309   5.192   8.680  0.2972 -0.1385  0.0881
  165loPI   C4B 2640  13.407   5.388   8.244 -0.0927  0.0373 -0.1209
  166loPI    C1 2641  14.368  14.540  10.428  0.0932 -0.1740  0.0940
  166loPI    C2 2642  14.601  14.562  10.753  0.0111 -0.1461  0.1514
  166loPI    C3 2643  14.268  14.340  10.760  0.0880 -0.2670  0.0367
  166loPI   PO4 2644  14.598  14.540  10.265  0.4030 -0.2346 -0.1748
  166loPI   GL1 2645  14.571  14.827   9.898 -0.0315 -0.0554 -0.2741
  166loPI   GL2 2646  14.660  15.045   9.816 -0.2832  0.1372 -0.0230
  166loPI   C1A 2647  14.454  14.563   9.652 -0.1615  0.0001  0.1068
  166loPI   C2A 2648  14.330  14.409   9.298  0.1447 -0.0534  0.0488
  166loPI   C3A 2649  14.263  14.677   8.988 -0.0395 -0.3226  0.0560
  166loPI   C4A 2650  14.423  14.669   8.511  0.4190  0.0762  0.3872
  166loPI   C5A 2651  14.476  14.238   8.277 -0.3230  0.2369 -0.1714
  166loPI   C6A 2652  14.802  14.122   8.122 -0.0391 -0.2040  0.1199
  166loPI   C1B 2653  14.850  14.850   9.406  0.1201 -0.2769  0.0024
  166loPI   C2B 2654  15.222  14.665   9.141 -0.1192  0.0183 -0.2054
  166loPI   C3B 2655  15.375  14.613   8.689 -0.2120 -0.0677 -0.1048
  166loPI   C4B 2656  15.117  14.459   8.432  0.0800  0.1490  0.0221
  167loPI    C1 2657   5.247   7.062  10.867  0.0665 -0.1573  0.0915
  167loPI    C2 2658   5.044   7.079  11.212  0.0366  0.0761  0.0644
  167loPI    C3 2659   5.243   7.400  11.081  0.0225 -0.0014 -0.1516
  167loPI   PO4 2660   5.050   7.002  10.653 -0.0698 -0.2163  0.0891
  167loPI   GL1 2661   4.888   7.205  10.288 -0.2633  0.0619  0.0923
  167loPI   GL2 2662   4.596   7.232  10.079  0.1466 -0.1921  0.1647
  167loPI   C1A 2663   4.787   6.811   9.946 -0.2563 -0.1606 -0.0609
  167loPI   C2A 2664   4.794   6.683   9.563  0.2104  0.0676  0.2100
  167loPI   C3A 2665   4.866   6.565   9.199 -0.1225  0.2981  0.0837
  167loPI   C4A 2666   4.990   6.652   8.782  0.0150  0.1634  0.3149
  167loPI   C5A 2667   4.921   6.795   8.289  0.2377  0.0272 -0.3538
  167loPI   C6A 2668   5.134   6.562   7.998  0.1185  0.1011  0.1637
  167loPI   C1B 2669   4.589   7.251   9.627  0.0304 -0.1448  0.3115
  167loPI   C2B 2670   4.437   7.002   9.314  0.1468  0.0635 -0.1978
  167loPI   C3B 2671   4.274   7.090   8.967  0.1959 -0.1412 -0.1256
  167loPI   C4B 2672   3.996   7.228   8.671 -0.3327  0.1392  0.0376
  168loPI    C1 2673   3.171   4.598  10.506 -0.0534 -0.0747 -0.0261
  168loPI    C2 2674   2.800   4.489  10.404 -0.0192 -0.2239  0.0058
  168loPI    C3 2675   2.861   4.705  10.735 -0.0954 -0.0382 -0.0997
  168loPI   PO4 2676   3.290   4.348  10.446  0.1557  0.3400 -0.0976
  168loPI   GL1 2677   3.104   4.056  10.201  0.1629 -0.3035 -0.0033
  168loPI   GL2 2678   3.124   4.258  10.003  0.0557 -0.1029  0.1192
  168loPI   C1A 2679   3.332   3.742  10.016 -0.0022  0.1360 -0.0080
  168loPI   C2A 2680   3.438   3.533   9.617  0.1014 -0.1805  0.0810
  168loPI   C3A 2681   3.480   3.471   9.167  0.4548  0.1247  0.0774
  168loPI   C4A 2682   3.375   3.336   8.718  0.1829  0.2881 -0.1325
  168loPI   C5A 2683   3.244   3.119   8.410  0.1181  0.2308 -0.3690
  168loPI   C6A 2684   3.100   3.058   7.987 -0.1047 -0.0540 -0.1871
  168loPI   C1B 2685   3.234   4.011   9.554  0.0942 -0.2051 -0.0854
  168loPI   C2B 2686   3.227   3.875   9.188  0.2406 -0.0155  0.2051
  168loPI   C3B 2687   3.437   3.866   8.824  0.1905 -0.0692 -0.0588
  168loPI   C4B 2688   3.644   3.700   8.534  0.0597  0.2597 -0.0309
  169loPI    C1 2689   7.941   7.224  10.796  0.1624 -0.0145  0.0228
  169loPI    C2 2690   7.892   7.547  11.026 -0.1003 -0.0574  0.0295
  169loPI    C3 2691   7.843   7.182  11.181  0.0267 -0.0955 -0.0197
  169loPI   PO4 2692   7.792   7.205  10.604 -0.1674  0.0848  0.1916
  169loPI   GL1 2693   7.920   7.159  10.189  0.0314  0.2059 -0.2929
  169loPI   GL2 2694   8.075   7.395  10.229  0.2714  0.2226  0.1042
  169loPI   C1A 2695   8.217   7.090   9.856 -0.0184  0.0697  0.0299
  169loPI   C2A 2696   8.444   7.031   9.436  0.1941  0.2425  0.2228
  169loPI   C3A 2697   8.519   6.991   9.013  0.2429 -0.0969  0.0581
  169loPI   C4A 2698   8.409   6.906   8.610 -0.2802  0.1071 -0.0421
  169loPI   C5A 2699   8.221   6.715   8.185 -0.0253  0.2322 -0.0467
  169loPI   C6A 2700   8.119   6.575   7.732 -0.3668  0.0216  0.1036
  169loPI   C1B 2701   7.854   7.478   9.830 -0.0093 -0.0116 -0.2061
  169loPI   C2B 2702   7.636   7.481   9.451 -0.0448  0.1588  0.0856
  169loPI   C3B 2703   7.231   7.528   9.086 -0.1377 -0.1894 -0.0984
  169loPI   C4B 2704   7.170   7.591   8.668 -0.2271 -0.2854 -0.0806
  170loPI    C1 2705   6.570   1.564  10.991 -0.0761  0.2094  0.1308
  170loPI    C2 2706   6.384   1.211  11.016  0.0251  0.1393 -0.0824
  170loPI    C3 2707   6.611   1.339  11.319  0.1015 -0.0440 -0.0607
  170loPI   PO4 2708   6.637   1.575  10.691 -0.1341 -0.0341  0.1434
  170loPI   GL1 2709   6.515   1.568  10.301  0.2845 -0.1871  0.0004
  170loPI   GL2 2710   6.521   1.778  10.045 -0.0177 -0.1345  0.0735
  170loPI   C1A 2711   6.513   1.217  10.060 -0.0774 -0.0948 -0.1868
  170loPI   C2A 2712   6.502   1.051   9.610 -0.1271 -0.3351  0.1262
  170loPI   C3A 2713   6.328   1.048   9.105 -0.2352  0.3724  0.0664
  170loPI   C4A 2714   6.242   1.167   8.704  0.2989 -0.0896  0.1237
  170loPI   C5A 2715   5.943   1.288   8.447 -0.1319  0.0130  0.2599
  170loPI   C6A 2716   5.487   1.425   8.497  0.2689  0.0062  0.0855
  170loPI   C1B 2717   6.361   1.602   9.574 -0.0878  0.2171 -0.0306
  170loPI   C2B 2718   6.187   1.577   9.108 -0.1319  0.2917 -0.3693
  170loPI   C3B 2719   5.853   1.420   8.913  0.0233 -0.0812  0.1966
  170loPI   C4B 2720   5.738   1.010   8.888  0.2154  0.0665 -0.2065
  171loPI    C1 2721   1.652  12.896  10.656  0.1074 -0.0954  0.0227
  171loPI    C2 2722   1.759  12.642  10.946  0.1624  0.0250  0.1084
  171loPI    C3 2723   2.005  12.938  10.839  0.0746  0.0766  0.0480
  171loPI   PO4 2724   1.516  12.775  10.410  0.1017  0.3120  0.0929
  171loPI   GL1 2725   1.582  13.016  10.044  0.1885 -0.2229 -0.0166
  171loPI   GL2 2726   1.406  12.967   9.841 -0.1389  0.2371 -0.2207
  171loPI   C1A 2727   1.685  13.315   9.682 -0.1189  0.0308  0.0751
  171loPI   C2A 2728   1.705  13.280   9.265  0.0308  0.2161  0.1918
  171loPI   C3A 2729   1.462  13.248   8.930 -0.1067 -0.0232 -0.2285
  171loPI   C4A 2730   1.222  13.184   8.523 -0.0421  0.0832  0.2959
  171loPI   C5A 2731   0.847  13.199   8.277  0.4761  0.0446 -0.2057
  171loPI   C6A 2732   0.824  13.275   7.866 -0.3027 -0.2934 -0.0071
  171loPI   C1B 2733   1.242  13.111   9.415  0.1892  0.2687 -0.0046
  171loPI   C2B 2734   0.962  13.161   9.151 -0.1384 -0.4306 -0.0803
  171loPI   C3B 2735   0.871  12.980   8.734 -0.3273  0.2413  0.2985
  171loPI   C4B 2736   0.813  12.673   8.411 -0.3111  0.2447  0.1502
  172loPI    C1 2737   1.469  14.629  10.518 -0.2926 -0.0965 -0.0149
  172loPI    C2 2738   1.700  14.335  10.374  0.0422  0.1607 -0.0150
  172loPI    C3 2739   1.764  14.479  10.742 -0.0848  0.2709 -0.0349
  172loPI   PO4 2740   1.225  14.648  10.243 -0.1072 -0.1375 -0.0911
  172loPI   GL1 2741   1.161  14.539   9.836 -0.2040 -0.2593  0.0235
  172loPI   GL2 2742   0.847  14.559   9.896  0.3161  0.2312 -0.1787
  172loPI   C1A 2743   1.140  14.633   9.383  0.0034 -0.2142 -0.0648
  172loPI   C2A 2744   1.129  14.539   8.957  0.1141 -0.2269 -0.1544
  172loPI   C3A 2745   1.113  14.474   8.541 -0.1852  0.0853 -0.0397
  172loPI   C4A 2746   1.292  14.604   8.155 -0.1044  0.1056  0.1906
  172loPI   C5A 2747   1.729  14.643   8.105  0.3081  0.1068  0.1114
  172loPI   C6A 2748   2.109  14.711   8.421  0.0392 -0.2715  0.1650
  172loPI   C1B 2749   0.847  14.214   9.665 -0.1851 -0.1044 -0.0543
  172loPI   C2B 2750   1.251  14.099   9.437 -0.0791  0.0502 -0.0214
  172loPI   C3B 2751   1.294  14.063   8.962  0.4453  0.0060 -0.3143
  172loPI   C4B 2752   1.524  14.157   8.603 -0.1061  0.3567  0.1435
  173loPI    C1 2753  15.254  13.410  10.699 -0.0883  0.0205  0.0904
  173loPI    C2 2754  15.429  13.424  11.058  0.2557 -0.1061 -0.0678
  173loPI    C3 2755  15.299  13.075  10.912 -0.0525 -0.0268  0.0089
  173loPI   PO4 2756  15.416  13.603  10.519  0.3518  0.1320  0.0627
  173loPI   GL1 2757  15.618  13.846  10.194 -0.1006 -0.0160 -0.1020
  173loPI   GL2 2758  15.894  13.858   9.948 -0.0695 -0.2059  0.0344
  173loPI   C1A 2759  15.416  13.976   9.780 -0.0112  0.0802 -0.1953
  173loPI   C2A 2760  15.232  13.925   9.370  0.0800  0.2887 -0.0315
  173loPI   C3A 2761  15.163  13.717   9.075  0.0274  0.0994 -0.0934
  173loPI   C4A 2762  15.104  13.580   8.706  0.0836  0.0669 -0.0098
  173loPI   C5A 2763  14.831  13.608   8.366  0.0830 -0.1336 -0.1030
  173loPI   C6A 2764  14.650  13.231   8.110 -0.2253  0.2810  0.3176
  173loPI   C1B 2765  15.918  13.778   9.533 -0.2645 -0.3775  0.0515
  173loPI   C2B 2766  15.913  13.809   9.063 -0.1292 -0.0974  0.2333
  173loPI   C3B 2767  15.573  13.839   8.618 -0.0648  0.2421  0.0848
  173loPI   C4B 2768  15.237  14.005   8.366 -0.2699 -0.0953 -0.0813
  174loPI    C1 2769   0.326   1.567  10.679  0.1502  0.3031  0.0745
  174loPI    C2 2770   0.379   1.908  10.476 -0.1543  0.3614  0.0883
  174loPI    C3 2771   0.180   1.911  10.823 -0.2941  0.1469  0.0121
  174loPI   PO4 2772   0.136   1.457  10.481  0.0916  0.1771 -0.1193
  174loPI   GL1 2773   0.211   1.061  10.147  0.2212 -0.1449  0.0369
  174loPI   GL2 2774   0.459   1.068  10.016  0.4967  0.0345 -0.1410
  174loPI   C1A 2775   0.072   1.143   9.663 -0.2210 -0.0316 -0.3309
  174loPI   C2A 2776  -0.032   1.249   9.237 -0.0278 -0.1527  0.0303
  174loPI   C3A 2777   0.021   1.359   8.846  0.1541 -0.0679 -0.0380
  174loPI   C4A 2778   0.036   1.525   8.356  0.2890 -0.0684  0.2257
  174loPI   C5A 2779  -0.307   1.473   8.079 -0.0228 -0.2476 -0.1435
  174loPI   C6A 2780  -0.600   1.681   7.990  0.0881  0.1295 -0.0427
  174loPI   C1B 2781   0.661   0.996   9.766 -0.5259  0.0542  0.1640
  174loPI   C2B 2782   0.637   1.035   9.383  0.3032  0.2131  0.2163
  174loPI   C3B 2783   0.323   0.956   9.077 -0.1891 -0.0808 -0.0985
  174loPI   C4B 2784   0.000   0.894   8.762 -0.1039 -0.2975 -0.1751
  175loPI    C1 2785  16.419  14.126  10.633 -0.0190  0.0216 -0.0939
  175loPI    C2 2786  16.239  13.913  10.346  0.0107  0.0102 -0.1041
  175loPI    C3 2787  16.332  13.740  10.694  0.0915 -0.0104 -0.1357
  175loPI   PO4 2788  16.609  14.280  10.339  0.0190  0.2486 -0.0083
  175loPI   GL1 2789  17.025  14.230  10.093  0.2003 -0.1418  0.2380
  175loPI   GL2 2790  17.358  14.225   9.898 -0.1760  0.0742  0.0020
  175loPI   C1A 2791  16.911  14.283   9.694 -0.0985  0.1969 -0.0193
  175loPI   C2A 2792  16.883  14.191   9.308 -0.0625 -0.0286 -0.0308
  175loPI   C3A 2793  16.847  14.390   8.929 -0.0188 -0.1247  0.0642
  175loPI   C4A 2794  16.722  14.233   8.513 -0.0591 -0.1414  0.3914
  175loPI   C5A 2795  16.728  14.339   8.073 -0.2142 -0.0206  0.3631
  175loPI   C6A 2796  17.177  14.388   7.871  0.1965  0.0229  0.2515
  175loPI   C1B 2797  17.422  14.112   9.495  0.3229 -0.1079 -0.1573
  175loPI   C2B 2798  17.397  14.119   9.157 -0.1378 -0.1682  0.0525
  175loPI   C3B 2799  17.324  14.183   8.728 -0.4146 -0.0240 -0.0820
  175loPI   C4B 2800  17.163  14.066   8.242  0.0515 -0.0790  0.2012
  176loPI    C1 2801  13.912  12.982  11.061  0.2280 -0.0723  0.0126
  176loPI    C2 2802  13.569  13.161  11.164  0.1727 -0.1203 -0.0864
  176loPI    C3 2803  13.638  12.783  11.275  0.1127 -0.1724 -0.2235
  176loPI   PO4 2804  13.933  12.988  10.741  0.1316  0.1796 -0.1896
  176loPI   GL1 2805  13.919  13.147  10.330  0.1897 -0.1190 -0.2172
  176loPI   GL2 2806  13.656  12.948  10.224 -0.2114 -0.3772  0.2304
  176loPI   C1A 2807  13.711  13.459  10.076 -0.0217 -0.0307  0.3557
  176loPI   C2A 2808  13.677  13.632   9.711 -0.1426  0.2089  0.1326
  176loPI   C3A 2809  13.627  13.487   9.286  0.0133 -0.2745 -0.3005
  176loPI   C4A 2810  13.602  13.429   8.907 -0.1475  0.0251  0.3071
  176loPI   C5A 2811  13.634  13.320   8.529 -0.1652  0.1779 -0.0437
  176loPI   C6A 2812  13.429  12.836   8.292 -0.3133 -0.0543  0.0033
  176loPI   C1B 2813  13.535  12.691   9.895  0.4038 -0.1273  0.0677
  176loPI   C2B 2814  13.403  12.631   9.499  0.0558 -0.2554 -0.0072
  176loPI   C3B 2815  13.372  12.640   9.077  0.1580  0.0268 -0.3400
  176loPI   C4B 2816  13.314  12.519   8.679 -0.1292  0.2073  0.0471
  177loPI    C1 2817  15.666   2.770  10.481 -0.1432 -0.0297 -0.1782
  177loPI    C2 2818  15.593   2.565  10.817 -0.0546 -0.0401 -0.1649
  177loPI    C3 2819  15.296   2.641  10.560 -0.1531  0.0948 -0.0133
  177loPI   PO4 2820  15.892   2.653  10.441  0.0696 -0.1995  0.0487
  177loPI   GL1 2821  16.023   2.509   9.990 -0.0813 -0.0292  0.2365
  177loPI   GL2 2822  16.242   2.289   9.955  0.0595 -0.0130  0.0636
  177loPI   C1A 2823  15.892   2.311   9.508 -0.2644 -0.3027 -0.1945
  177loPI   C2A 2824  15.888   2.283   8.991 -0.1421  0.1035 -0.2143
  177loPI   C3A 2825  16.100   2.132   8.685  0.0277 -0.1034  0.0061
  177loPI   C4A 2826  16.173   2.196   8.205 -0.1605  0.0779  0.0718
  177loPI   C5A 2827  16.326   2.434   7.925 -0.2418 -0.1047  0.2416
  177loPI   C6A 2828  16.627   2.507   7.667  0.0703  0.0051 -0.1026
  177loPI   C1B 2829  16.347   2.111   9.583 -0.0902 -0.1623  0.0888
  177loPI   C2B 2830  16.356   2.083   9.108 -0.1195  0.0673  0.2215
  177loPI   C3B 2831  16.518   1.929   8.794  0.1830  0.2553 -0.0091
  177loPI   C4B 2832  16.802   1.766   8.586  0.0388  0.2686  0.0684
  178loPI    C1 2833   4.953   2.723  10.893  0.1791 -0.1329  0.2820
  178loPI    C2 2834   4.605   2.583  11.030  0.0848 -0.2225 -0.0398
  178loPI    C3 2835   4.746   2.933  11.164 -0.3512  0.0362 -0.2325
  178loPI   PO4 2836   5.004   2.693  10.601 -0.4066  0.3125  0.1334
  178loPI   GL1 2837   5.071   2.526  10.162  0.2305 -0.2836 -0.2559
  178loPI   GL2 2838   4.796   2.707  10.170  0.1468  0.0730  0.0756
  178loPI   C1A 2839   5.089   2.395   9.771  0.0732  0.1166  0.0964
  178loPI   C2A 2840   5.091   2.333   9.421 -0.0309 -0.0223  0.1164
  178loPI   C3A 2841   5.095   2.075   9.043  0.3196 -0.1080 -0.0892
  178loPI   C4A 2842   4.965   2.127   8.647 -0.0974  0.0898  0.1247
  178loPI   C5A 2843   5.195   2.468   8.425 -0.1487  0.0582 -0.1709
  178loPI   C6A 2844   5.295   2.810   8.190 -0.2256  0.0121 -0.3339
  178loPI   C1B 2845   4.615   2.499   9.815 -0.0824 -0.1732  0.1812
  178loPI   C2B 2846   4.527   2.427   9.367  0.0103  0.1512 -0.1670
  178loPI   C3B 2847   4.424   2.605   9.059 -0.2341  0.0953 -0.2459
  178loPI   C4B 2848   4.335   2.941   8.737  0.0853 -0.2210  0.0198
  179loPI    C1 2849   8.488   6.571  10.691 -0.0811  0.0941 -0.1450
  179loPI    C2 2850   8.772   6.626  10.967 -0.3827  0.0450  0.1822
  179loPI    C3 2851   8.552   6.935  10.842 -0.1803  0.0859 -0.0825
  179loPI   PO4 2852   8.632   6.428  10.401 -0.0912  0.1340 -0.4302
  179loPI   GL1 2853   8.746   6.456  10.005 -0.0423 -0.1327  0.1603
  179loPI   GL2 2854   8.691   6.145   9.915  0.1776 -0.0467 -0.0083
  179loPI   C1A 2855   8.425   6.646   9.746  0.1089  0.0911  0.0952
  179loPI   C2A 2856   8.171   6.566   9.449  0.1853  0.0538 -0.2885
  179loPI   C3A 2857   8.103   6.600   9.006 -0.3001 -0.0154 -0.0311
  179loPI   C4A 2858   7.863   6.949   8.603  0.1584 -0.0769  0.0611
  179loPI   C5A 2859   7.387   7.191   8.430 -0.1188  0.0350 -0.1338
  179loPI   C6A 2860   6.866   7.336   8.224 -0.1825 -0.0709  0.1910
  179loPI   C1B 2861   8.790   6.315   9.561  0.0465  0.2935 -0.0208
  179loPI   C2B 2862   8.936   6.148   9.142  0.0822  0.0079  0.1414
  179loPI   C3B 2863   8.879   5.952   8.763  0.0375  0.1691  0.0866
  179loPI   C4B 2864   8.560   5.747   8.490  0.0314  0.0516 -0.3405
  180loPI    C1 2865  10.704   2.717  10.804  0.1490  0.0922 -0.0399
  180loPI    C2 2866  10.572   2.369  10.949  0.0875  0.2125  0.1974
  180loPI    C3 2867  10.892   2.545  11.112  0.1179  0.2681  0.0789
  180loPI   PO4 2868  10.798   2.708  10.561  0.0239 -0.1188  0.1094
  180loPI   GL1 2869  11.079   2.811  10.226  0.0640 -0.1984 -0.0582
  180loPI   GL2 2870  11.390   2.925  10.270  0.2443 -0.0105 -0.1775
  180loPI   C1A 2871  11.290   2.919   9.719 -0.1169  0.0656  0.2562
  180loPI   C2A 2872  11.371   2.829   9.332 -0.0223  0.0266  0.1339
  180loPI   C3A 2873  11.299   2.828   8.848 -0.0984 -0.2282  0.1418
  180loPI   C4A 2874  11.411   2.789   8.414  0.0672  0.1043  0.1074
  180loPI   C5A 2875  11.735   3.068   8.170 -0.1774 -0.0478  0.0322
  180loPI   C6A 2876  11.891   3.343   7.881 -0.1534  0.0610 -0.0862
  180loPI   C1B 2877  11.704   2.808   9.996 -0.3115  0.0363  0.0688
  180loPI   C2B 2878  11.818   2.973   9.619 -0.0582  0.0020 -0.0518
  180loPI   C3B 2879  11.881   2.913   9.279 -0.0534 -0.2173 -0.0002
  180loPI   C4B 2880  12.142   2.794   8.904 -0.2656 -0.0192 -0.0743
  181loPI    C1 2881  10.315   2.662  10.515 -0.0995 -0.3626  0.0440
  181loPI    C2 2882   9.918   2.625  10.553 -0.1113 -0.0813  0.2245
  181loPI    C3 2883  10.150   2.647  10.879  0.0497 -0.2051  0.1198
  181loPI   PO4 2884  10.335   2.707  10.326 -0.0273  0.1643 -0.0014
  181loPI   GL1 2885  10.542   2.804   9.977  0.2271  0.0120 -0.0444
  181loPI   GL2 2886  10.725   2.556  10.034 -0.0994 -0.0110  0.0544
  181loPI   C1A 2887  10.473   3.027   9.575 -0.1825 -0.0240  0.3055
  181loPI   C2A 2888  10.442   2.945   9.124  0.2679  0.1316  0.2361
  181loPI   C3A 2889  10.272   2.790   8.723  0.1059 -0.0217 -0.0059
  181loPI   C4A 2890  10.014   2.758   8.439 -0.3809  0.1579  0.1601
  181loPI   C5A 2891   9.836   2.627   8.019  0.0483  0.2536  0.0038
  181loPI   C6A 2892   9.894   2.731   7.587  0.1938 -0.0520 -0.1541
  181loPI   C1B 2893  10.863   2.721   9.588 -0.1210 -0.2398  0.0781
  181loPI   C2B 2894  10.888   2.764   9.131 -0.0972 -0.2122 -0.3533
  181loPI   C3B 2895  10.805   3.004   8.714  0.2886  0.0226 -0.0290
  181loPI   C4B 2896  10.443   3.185   8.544 -0.2868 -0.3066  0.2074
  182loPI    C1 2897  17.641  11.492  10.339  0.0145  0.1250 -0.1590
  182loPI    C2 2898  17.259  11.523  10.453  0.0446 -0.0927  0.0073
  182loPI    C3 2899  17.547  11.481  10.728  0.1617 -0.1907 -0.1291
  182loPI   PO4 2900  17.700  11.668  10.160  0.1502 -0.3999  0.0162
  182loPI   GL1 2901  17.699  11.586   9.709  0.1260 -0.0487  0.1610
  182loPI   GL2 2902  17.643  11.361   9.773 -0.1235 -0.1398 -0.1456
  182loPI   C1A 2903  17.772  11.672   9.270 -0.1445 -0.2601  0.1318
  182loPI   C2A 2904  17.955  11.708   8.863 -0.2092 -0.1849  0.3164
  182loPI   C3A 2905  17.736  11.702   8.517  0.1847 -0.0204  0.0126
  182loPI   C4A 2906  17.614  11.503   8.097 -0.0213 -0.0720 -0.0649
  182loPI   C5A 2907  17.599  11.256   7.714 -0.0958 -0.1007 -0.0777
  182loPI   C6A 2908  17.599  11.222   7.256 -0.0534  0.0547  0.1577
  182loPI   C1B 2909  17.478  11.273   9.378  0.0975  0.2688  0.1593
  182loPI   C2B 2910  17.529  11.306   8.901 -0.2490  0.0815 -0.0871
  182loPI   C3B 2911  17.498  11.260   8.494 -0.0201  0.2276 -0.2208
  182loPI   C4B 2912  17.312  11.072   8.102  0.1162  0.1128  0.1455
  183loPI    C1 2913   1.224   8.171  10.469 -0.0433  0.0549  0.0058
  183loPI    C2 2914   1.246   8.179  10.868 -0.0818  0.0776  0.0077
  183loPI    C3 2915   1.566   8.074  10.652 -0.1291 -0.1646  0.0523
  183loPI   PO4 2916   0.958   8.047  10.466  0.3175 -0.2511  0.0154
  183loPI   GL1 2917   0.685   7.902  10.220  0.2300 -0.2751 -0.1601
  183loPI   GL2 2918   0.339   7.998  10.094  0.2565  0.0452  0.0839
  183loPI   C1A 2919   0.831   7.761   9.835  0.0659 -0.1186 -0.2674
  183loPI   C2A 2920   0.903   7.775   9.409 -0.0276 -0.1492  0.0813
  183loPI   C3A 2921   0.846   7.711   8.956  0.2516  0.0260  0.1910
  183loPI   C4A 2922   0.591   7.563   8.611 -0.0508  0.2456  0.0003
  183loPI   C5A 2923   0.368   7.557   8.236  0.0264 -0.1324 -0.0488
  183loPI   C6A 2924   0.014   7.406   8.025 -0.0025 -0.1310 -0.3626
  183loPI   C1B 2925   0.436   7.964   9.760 -0.0953 -0.0736 -0.2419
  183loPI   C2B 2926   0.413   7.790   9.252 -0.1579  0.1867  0.0420
  183loPI   C3B 2927   0.269   7.901   8.765 -0.2257  0.2019 -0.0531
  183loPI   C4B 2928   0.401   8.117   8.413 -0.0982  0.2444  0.0272
  184loPI    C1 2929  17.965   5.049  11.055 -0.0899  0.3267  0.0259
  184loPI    C2 2930  18.317   4.969  11.227 -0.1277  0.0158 -0.0361
  184loPI    C3 2931  18.028   5.151  11.436  0.0632  0.2610  0.0187
  184loPI   PO4 2932  18.002   5.091  10.788  0.0148 -0.1516 -0.1571
  184loPI   GL1 2933  18.299   5.261  10.427 -0.1805  0.4068  0.1970
  184loPI   GL2 2934  18.522   5.566  10.454 -0.2886  0.1854 -0.2798
  184loPI   C1A 2935  18.044   5.154  10.153  0.1491 -0.3732 -0.1054
  184loPI   C2A 2936  17.657   5.248   9.899 -0.0449 -0.4052 -0.1614
  184loPI   C3A 2937  17.607   5.237   9.461  0.0921 -0.1434 -0.0663
  184loPI   C4A 2938  17.529   5.341   9.096  0.2274 -0.2384  0.3683
  184loPI   C5A 2939  17.454   5.340   8.710 -0.0283  0.1616 -0.3078
  184loPI   C6A 2940  17.361   5.259   8.224 -0.1587 -0.0855  0.0432
  184loPI   C1B 2941  18.714   5.848  10.120  0.3726 -0.2285 -0.0459
  184loPI   C2B 2942  18.782   5.686   9.752 -0.1409  0.0301 -0.2163
  184loPI   C3B 2943  18.823   5.691   9.282 -0.0686  0.2082 -0.2951
  184loPI   C4B 2944  18.816   5.762   8.867 -0.1867 -0.0728 -0.0247
  185loPI    C1 2945   3.391  16.092  11.107  0.0511 -0.3733  0.0007
  185loPI    C2 2946   3.227  15.924  11.431  0.0245 -0.0081  0.1823
  185loPI    C3 2947   3.615  16.020  11.431 -0.0633  0.3592  0.2605
  185loPI   PO4 2948   3.237  16.068  10.897  0.1081  0.0293 -0.1783
  185loPI   GL1 2949   3.101  15.983  10.420  0.0269 -0.1096  0.2520
  185loPI   GL2 2950   3.130  15.693  10.203  0.1097  0.0384  0.0317
  185loPI   C1A 2951   3.126  16.230  10.068 -0.0065  0.1277 -0.2168
  185loPI   C2A 2952   3.291  16.348   9.661  0.0324 -0.3529  0.1551
  185loPI   C3A 2953   3.114  16.495   9.279  0.0792  0.2253 -0.1914
  185loPI   C4A 2954   3.250  16.350   8.882 -0.0121  0.2626 -0.4065
  185loPI   C5A 2955   3.569  16.098   8.712  0.4884  0.3418 -0.3494
  185loPI   C6A 2956   3.952  15.978   8.760  0.2636  0.1713 -0.2770
  185loPI   C1B 2957   2.961  15.785   9.849 -0.2428 -0.1086  0.1171
  185loPI   C2B 2958   3.029  15.754   9.392  0.1565  0.0487 -0.1502
  185loPI   C3B 2959   3.149  15.833   8.978 -0.0806  0.3152 -0.0630
  185loPI   C4B 2960   3.079  15.904   8.520  0.0056 -0.1992  0.0429
  186loPI    C1 2961  13.060  10.644  10.493  0.0154  0.1948 -0.3159
  186loPI    C2 2962  12.898  10.354  10.270  0.0539 -0.1007  0.0308
  186loPI    C3 2963  13.279  10.326  10.387  0.1232  0.2000 -0.1131
  186loPI   PO4 2964  12.943  10.812  10.378 -0.1379 -0.2691 -0.1750
  186loPI   GL1 2965  12.818  10.780   9.973 -0.1439  0.0007 -0.2411
  186loPI   GL2 2966  13.076  10.643   9.894 -0.2558  0.1019  0.2477
  186loPI   C1A 2967  12.982  11.146   9.693  0.3527  0.1802  0.0977
  186loPI   C2A 2968  13.209  11.082   9.325 -0.2207 -0.2631 -0.0351
  186loPI   C3A 2969  13.345  11.144   8.913  0.0387 -0.1071  0.0852
  186loPI   C4A 2970  13.527  11.277   8.585 -0.3182 -0.1802 -0.1202
  186loPI   C5A 2971  13.774  11.514   8.295 -0.3184  0.2454  0.1657
  186loPI   C6A 2972  14.191  11.545   8.022  0.0043 -0.1572  0.0459
  186loPI   C1B 2973  13.134  10.418   9.524 -0.4378  0.1263  0.1968
  186loPI   C2B 2974  13.071  10.417   9.192  0.0782 -0.0661  0.1862
  186loPI   C3B 2975  12.944  10.410   8.740  0.0322  0.1279 -0.1394
  186loPI   C4B 2976  13.087  10.467   8.346  0.0246  0.2151  0.0284
  187loPI    C1 2977  10.504  11.990  10.865  0.0013  0.0372  0.1781
  187loPI    C2 2978  10.830  11.759  10.894 -0.0254 -0.0302 -0.0394
  187loPI    C3 2979  10.543  11.736  11.172  0.0377 -0.1555  0.0162
  187loPI   PO4 2980  10.550  12.064  10.536  0.2610  0.0104  0.1010
  187loPI   GL1 2981  10.423  12.245  10.284 -0.0975 -0.1123 -0.5219
  187loPI   GL2 2982  10.354  12.571  10.176 -0.0690  0.0897 -0.0609
  187loPI   C1A 2983  10.296  12.172   9.785 -0.0331 -0.0036 -0.0222
  187loPI   C2A 2984  10.188  12.219   9.476 -0.2832 -0.0810 -0.1545
  187loPI   C3A 2985  10.200  12.066   9.105 -0.0265 -0.1588  0.0812
  187loPI   C4A 2986   9.990  12.073   8.604  0.3247 -0.1089 -0.1939
  187loPI   C5A 2987  10.211  12.370   8.284 -0.0496  0.0751  0.1742
  187loPI   C6A 2988  10.473  12.714   8.370  0.2510 -0.0528  0.0714
  187loPI   C1B 2989  10.410  12.659   9.806 -0.0696  0.0630  0.1251
  187loPI   C2B 2990  10.522  12.597   9.414 -0.0630  0.3316 -0.1234
  187loPI   C3B 2991  10.648  12.790   8.923  0.1345 -0.3154  0.2757
  187loPI   C4B 2992  10.752  13.161   8.621  0.1637  0.0660 -0.2270
  188loPI    C1 2993  15.575   8.694  10.445 -0.0847  0.0964  0.0597
  188loPI    C2 2994  15.787   8.675  10.783 -0.2524 -0.0326  0.1589
  188loPI    C3 2995  15.413   8.816  10.789 -0.2899 -0.1256  0.0440
  188loPI   PO4 2996  15.575   8.519  10.314 -0.0500 -0.0317 -0.1461
  188loPI   GL1 2997  15.420   8.253  10.025 -0.1213  0.0753  0.0372
  188loPI   GL2 2998  15.724   8.123  10.088  0.1978  0.0345 -0.0231
  188loPI   C1A 2999  15.396   8.420   9.720 -0.0491 -0.0061  0.0938
  188loPI   C2A 3000  15.406   8.709   9.420 -0.2059 -0.0319  0.4970
  188loPI   C3A 3001  15.699   8.828   9.077 -0.2242 -0.2118  0.0430
  188loPI   C4A 3002  15.703   8.943   8.657 -0.2465 -0.1906 -0.0475
  188loPI   C5A 3003  15.714   8.825   8.108 -0.0770  0.1266 -0.1345
  188loPI   C6A 3004  15.677   8.492   7.717 -0.1686  0.1211 -0.1432
  188loPI   C1B 3005  15.832   8.070   9.703 -0.0663 -0.1455  0.0490
  188loPI   C2B 3006  15.998   8.053   9.311 -0.0740  0.1325 -0.3125
  188loPI   C3B 3007  15.903   7.965   8.973 -0.3110  0.0948 -0.1550
  188loPI   C4B 3008  16.002   8.043   8.535  0.0104 -0.3514  0.1235
  189loPI    C1 3009   9.701   5.666  10.416  0.1143  0.0667  0.1064
  189loPI    C2 3010   9.894   5.440  10.685  0.1002  0.0526  0.1047
  189loPI    C3 3011  10.005   5.820  10.627  0.0333  0.0885  0.2080
  189loPI   PO4 3012   9.716   5.501  10.226  0.2528  0.2164 -0.1634
  189loPI   GL1 3013   9.554   5.223   9.865  0.0726  0.4795  0.1053
  189loPI   GL2 3014   9.309   5.124   9.909 -0.1427 -0.1429  0.1273
  189loPI   C1A 3015   9.411   5.159   9.387 -0.1054 -0.3100 -0.1540
  189loPI   C2A 3016   9.364   5.021   9.018 -0.0742  0.0513 -0.1409
  189loPI   C3A 3017   9.373   4.758   8.660 -0.0443 -0.0484 -0.2742
  189loPI   C4A 3018   9.454   4.678   8.338  0.1509  0.0018  0.2282
  189loPI   C5A 3019   9.469   4.341   8.139  0.1050  0.1125 -0.0127
  189loPI   C6A 3020   9.758   3.944   8.195  0.1164 -0.2091 -0.3163
  189loPI   C1B 3021   9.163   4.830   9.576 -0.2333 -0.2465 -0.0722
  189loPI   C2B 3022   9.046   4.579   9.129  0.0169 -0.1772  0.1050
  189loPI   C3B 3023   8.995   4.423   8.647  0.0302 -0.0736 -0.0904
  189loPI   C4B 3024   9.018   4.414   8.262  0.0907  0.5238 -0.4643
  190loPI    C1 3025   2.238   9.358  10.631 -0.0126  0.2001  0.2079
  190loPI    C2 3026   1.893   9.311  10.827 -0.0529  0.1920  0.1353
  190loPI    C3 3027   2.208   9.084  10.921 -0.0983  0.1266  0.1304
  190loPI   PO4 3028   2.160   9.323  10.350 -0.1027  0.0185 -0.1567
  190loPI   GL1 3029   2.346   9.367   9.946  0.0756  0.1434  0.0588
  190loPI   GL2 3030   2.663   9.194   9.837 -0.2620 -0.0037  0.1201
  190loPI   C1A 3031   2.161   9.348   9.566  0.2614 -0.2137 -0.0474
  190loPI   C2A 3032   2.211   9.240   9.265 -0.0134 -0.0670  0.1356
  190loPI   C3A 3033   2.266   9.354   8.935  0.0314  0.2261 -0.1676
  190loPI   C4A 3034   2.210   9.486   8.507 -0.2308 -0.0218 -0.1494
  190loPI   C5A 3035   2.430   9.564   8.237 -0.0555 -0.0188 -0.1489
  190loPI   C6A 3036   2.582   9.224   8.027  0.1582 -0.0036 -0.0103
  190loPI   C1B 3037   2.732   9.161   9.362 -0.1638 -0.0118 -0.2543
  190loPI   C2B 3038   2.879   9.220   8.996  0.2562 -0.1127  0.1012
  190loPI   C3B 3039   3.077   9.500   8.676  0.0703 -0.2838  0.0009
  190loPI   C4B 3040   3.466   9.650   8.349  0.1774  0.1002  0.1403
  191loPI    C1 3041  15.447  16.151  11.055 -0.1340 -0.1726 -0.0908
  191loPI    C2 3042  15.272  16.507  11.008  0.3235  0.0711 -0.0101
  191loPI    C3 3043  15.071  16.206  11.179 -0.0504  0.3021 -0.0306
  191loPI   PO4 3044  15.540  16.164  10.763 -0.1031 -0.0843  0.3292
  191loPI   GL1 3045  15.584  16.272  10.423 -0.0425 -0.0169  0.0636
  191loPI   GL2 3046  15.844  16.450  10.310  0.3911 -0.2225 -0.0831
  191loPI   C1A 3047  15.693  15.957  10.098  0.1400  0.0997  0.1939
  191loPI   C2A 3048  15.885  15.993   9.663  0.1310  0.0806  0.0597
  191loPI   C3A 3049  15.922  15.909   9.126 -0.0885  0.2590 -0.0443
  191loPI   C4A 3050  16.199  15.729   8.745 -0.0650  0.0193 -0.0246
  191loPI   C5A 3051  16.361  15.564   8.447 -0.1744  0.1987  0.0321
  191loPI   C6A 3052  16.520  15.307   8.098  0.0840  0.5510  0.2425
  191loPI   C1B 3053  16.144  16.323  10.018  0.1035 -0.0572 -0.1005
  191loPI   C2B 3054  16.157  16.434   9.568  0.3436 -0.0914 -0.3436
  191loPI   C3B 3055  16.164  16.358   9.163  0.2096  0.2377  0.2236
  191loPI   C4B 3056  16.353  16.328   8.605  0.0041 -0.2319  0.1758
  192loPI    C1 3057  15.885   7.549  10.581  0.0962 -0.1016  0.2664
  192loPI    C2 3058  16.161   7.531  10.870  0.3166  0.3068  0.0909
  192loPI    C3 3059  16.074   7.882  10.699 -0.0419  0.1208 -0.1205
  192loPI   PO4 3060  15.964   7.316  10.341 -0.2674 -0.2396  0.2633
  192loPI   GL1 3061  16.311   7.227  10.024 -0.2034 -0.0108 -0.1801
  192loPI   GL2 3062  16.677   7.407   9.928 -0.0922 -0.1915  0.3344
  192loPI   C1A 3063  16.009   7.020   9.778  0.3280  0.1143 -0.1137
  192loPI   C2A 3064  15.861   7.143   9.354  0.1486  0.2542  0.2560
  192loPI   C3A 3065  16.110   7.107   8.939  0.0641  0.0702  0.2541
  192loPI   C4A 3066  16.121   7.043   8.541 -0.1578  0.0793  0.1697
  192loPI   C5A 3067  16.441   7.010   8.305 -0.0839 -0.2830 -0.0947
  192loPI   C6A 3068  16.892   7.097   7.985  0.1545  0.1512  0.2717
  192loPI   C1B 3069  16.404   7.382   9.536 -0.0334  0.3144 -0.2175
  192loPI   C2B 3070  16.515   7.321   9.088  0.0240 -0.2832 -0.0706
  192loPI   C3B 3071  16.672   7.140   8.756  0.0890  0.1216 -0.4189
  192loPI   C4B 3072  17.025   7.022   8.460 -0.0668 -0.1745 -0.0042
  193loPI    C1 3073   3.555  12.333  10.722 -0.1195  0.0606 -0.0837
  193loPI    C2 3074   3.843  12.428  10.982  0.0334  0.0646 -0.2524
  193loPI    C3 3075   3.765  12.044  10.903 -0.1452  0.0588 -0.0566
  193loPI   PO4 3076   3.601  12.427  10.548  0.1942  0.1227  0.2980
  193loPI   GL1 3077   3.641  12.725  10.177 -0.0563 -0.0328  0.0938
  193loPI   GL2 3078   3.969  12.555  10.182 -0.0470 -0.0130  0.1951
  193loPI   C1A 3079   3.440  12.581   9.815 -0.1716 -0.2752  0.2992
  193loPI   C2A 3080   3.495  12.416   9.350 -0.1014 -0.3386  0.1724
  193loPI   C3A 3081   3.414  12.239   8.952  0.2730  0.1672 -0.0258
  193loPI   C4A 3082   3.302  11.999   8.588  0.1693  0.0247 -0.0850
  193loPI   C5A 3083   3.344  11.773   8.238 -0.0276  0.0436  0.0339
  193loPI   C6A 3084   3.726  11.756   8.005  0.3249  0.0650  0.1139
  193loPI   C1B 3085   3.918  12.518   9.778  0.0507  0.3016 -0.3487
  193loPI   C2B 3086   3.931  12.569   9.370 -0.6015  0.1408  0.0782
  193loPI   C3B 3087   3.991  12.485   8.986  0.1441  0.1634 -0.2066
  193loPI   C4B 3088   3.824  12.256   8.680  0.1142  0.0884 -0.1374
  194loPI    C1 3089   8.585  13.940  11.274  0.1952 -0.2838  0.0134
  194loPI    C2 3090   8.938  14.102  11.372  0.1063 -0.0097 -0.1090
  194loPI    C3 3091   8.598  14.299  11.449 -0.0142 -0.2131 -0.1119
  194loPI   PO4 3092   8.598  13.892  11.009 -0.0366  0.0399  0.0857
  194loPI   GL1 3093   8.339  14.082  10.614  0.0581  0.1849 -0.2083
  194loPI   GL2 3094   8.405  13.731  10.482  0.0385 -0.1867  0.1485
  194loPI   C1A 3095   8.302  14.390  10.352  0.1295 -0.0851  0.0131
  194loPI   C2A 3096   8.281  14.510   9.922  0.0787  0.0166 -0.2218
  194loPI   C3A 3097   8.086  14.672   9.603  0.0890  0.0424 -0.0251
  194loPI   C4A 3098   7.966  14.647   9.223 -0.1329  0.3235 -0.1371
  194loPI   C5A 3099   7.927  14.756   8.782  0.1131 -0.4519 -0.0039
  194loPI   C6A 3100   7.633  14.795   8.510 -0.3469  0.0052 -0.2008
  194loPI   C1B 3101   8.439  13.903  10.031 -0.1811 -0.3718  0.0656
  194loPI   C2B 3102   8.629  13.907   9.668  0.0968  0.1394  0.3708
  194loPI   C3B 3103   8.562  13.861   9.226 -0.1164  0.2587  0.1803
  194loPI   C4B 3104   8.545  13.946   8.806 -0.2059  0.0875 -0.0478
  195loPI    C1 3105  12.866   7.015  10.612 -0.2980 -0.0611 -0.1118
  195loPI    C2 3106  12.871   6.621  10.679 -0.1874 -0.0011  0.2567
  195loPI    C3 3107  12.968   6.875  10.972  0.4430  0.2765 -0.1705
  195loPI   PO4 3108  12.958   7.054  10.406  0.2606  0.0372 -0.0134
  195loPI   GL1 3109  12.991   6.852  10.062 -0.0588 -0.1141 -0.1279
  195loPI   GL2 3110  13.234   6.778   9.949 -0.0486  0.1806  0.1154
  195loPI   C1A 3111  12.927   7.007   9.591 -0.0952  0.0040  0.2829
  195loPI   C2A 3112  12.890   7.113   9.122 -0.1087  0.1109 -0.1471
  195loPI   C3A 3113  12.962   7.326   8.799 -0.0651  0.2766 -0.0199
  195loPI   C4A 3114  13.135   7.539   8.463  0.0599 -0.0620  0.0519
  195loPI   C5A 3115  13.159   7.841   8.014  0.4616 -0.3763 -0.2154
  195loPI   C6A 3116  13.568   7.780   7.800  0.0016 -0.2436  0.0531
  195loPI   C1B 3117  13.283   6.624   9.610  0.0269  0.0040  0.0821
  195loPI   C2B 3118  13.157   6.667   9.137  0.0156  0.0474 -0.1676
  195loPI   C3B 3119  13.001   6.817   8.632 -0.1677 -0.3046  0.0097
  195loPI   C4B 3120  12.873   7.129   8.320 -0.0651  0.2346  0.0809
  196loPI    C1 3121   4.098  14.398  10.640  0.2616 -0.0734  0.3084
  196loPI    C2 3122   4.415  14.605  10.769  0.1051  0.1062  0.4107
  196loPI    C3 3123   4.158  14.448  11.032  0.1387 -0.0881  0.3295
  196loPI   PO4 3124   4.019  14.573  10.440  0.1057  0.1112  0.0366
  196loPI   GL1 3125   4.020  14.700   9.976  0.1759  0.1854 -0.2794
  196loPI   GL2 3126   3.747  14.465  10.020  0.2972  0.1135  0.2605
  196loPI   C1A 3127   4.154  14.749   9.512 -0.1837 -0.1724  0.0342
  196loPI   C2A 3128   4.265  14.815   9.118 -0.0534 -0.0118  0.0269
  196loPI   C3A 3129   4.189  14.838   8.635  0.3268 -0.1789  0.2827
  196loPI   C4A 3130   3.850  14.846   8.334 -0.3147 -0.0303 -0.1366
  196loPI   C5A 3131   3.631  15.306   8.299  0.0203  0.1852 -0.0226
  196loPI   C6A 3132   3.507  15.734   8.201  0.0603  0.3724  0.2203
  196loPI   C1B 3133   3.827  14.395   9.610  0.1039 -0.0081 -0.3472
  196loPI   C2B 3134   4.028  14.279   9.202 -0.3364 -0.0339 -0.1140
  196loPI   C3B 3135   4.090  14.369   8.746 -0.0787  0.0894 -0.1369
  196loPI   C4B 3136   4.335  14.308   8.353  0.4411  0.1845 -0.0636
  197loPI    C1 3137   7.646   9.707  10.630 -0.1651 -0.0766  0.1092
  197loPI    C2 3138   7.901   9.558  10.900  0.0674  0.0567 -0.0331
  197loPI    C3 3139   7.569   9.746  11.021  0.0134 -0.1539  0.1533
  197loPI   PO4 3140   7.743   9.694  10.379 -0.2251 -0.0917 -0.1324
  197loPI   GL1 3141   7.708   9.504   9.968  0.0045 -0.2223 -0.2597
  197loPI   GL2 3142   7.598   9.509   9.761  0.0220  0.0585  0.0941
  197loPI   C1A 3143   8.194   9.507   9.870  0.1543 -0.3833  0.0721
  197loPI   C2A 3144   8.243   9.622   9.405 -0.1593 -0.3704  0.0202
  197loPI   C3A 3145   8.309   9.560   9.006  0.1551  0.1886 -0.1966
  197loPI   C4A 3146   8.303   9.296   8.701 -0.2642  0.1837  0.2096
  197loPI   C5A 3147   8.628   9.087   8.521 -0.1105  0.1104  0.1638
  197loPI   C6A 3148   8.873   9.057   8.205 -0.1001  0.2793 -0.0324
  197loPI   C1B 3149   7.778   9.433   9.351 -0.3021 -0.0260 -0.2013
  197loPI   C2B 3150   7.863   9.427   8.911  0.0639 -0.0530 -0.0750
  197loPI   C3B 3151   7.716   9.259   8.598 -0.0832 -0.0003 -0.0584
  197loPI   C4B 3152   7.528   9.397   8.174 -0.1647 -0.2385 -0.2100
  198loPI    C1 3153  11.829   9.703  10.429 -0.1601 -0.2217  0.0096
  198loPI    C2 3154  12.190   9.794  10.576 -0.2316  0.1018 -0.0059
  198loPI    C3 3155  11.860   9.902  10.775 -0.3235 -0.2747  0.0559
  198loPI   PO4 3156  11.876   9.839  10.128 -0.3011  0.1226 -0.1994
  198loPI   GL1 3157  11.919   9.907   9.755  0.0923  0.3311  0.1185
  198loPI   GL2 3158  12.209   9.915   9.722 -0.1318 -0.1173 -0.1099
  198loPI   C1A 3159  11.722  10.039   9.382  0.0631 -0.1583 -0.1148
  198loPI   C2A 3160  11.581  10.152   8.990 -0.0629  0.1573 -0.2119
  198loPI   C3A 3161  11.325   9.888   8.840  0.4051  0.2276  0.1107
  198loPI   C4A 3162  11.371   9.848   8.413  0.1232  0.1918  0.3229
  198loPI   C5A 3163  11.445  10.015   7.931  0.0315  0.0167 -0.0751
  198loPI   C6A 3164  11.483  10.110   7.494  0.1207  0.0154 -0.0146
  198loPI   C1B 3165  12.231   9.868   9.274 -0.0622 -0.0088 -0.1431
  198loPI   C2B 3166  12.222   9.698   8.801 -0.1945 -0.2202 -0.2392
  198loPI   C3B 3167  12.220   9.347   8.559  0.1679 -0.1242  0.0866
  198loPI   C4B 3168  12.312   9.062   8.200  0.1676 -0.2491 -0.1272
  199loPI    C1 3169  13.789   6.299  10.791  0.1194 -0.1352  0.1300
  199loPI    C2 3170  13.994   5.957  10.755  0.1820 -0.1089  0.2340
  199loPI    C3 3171  14.155   6.267  10.949  0.2436  0.0777 -0.1079
  199loPI   PO4 3172  13.650   6.301  10.583  0.1925 -0.0260  0.0446
  199loPI   GL1 3173  13.653   6.134  10.197 -0.4809  0.1323 -0.2114
  199loPI   GL2 3174  13.365   6.118  10.137  0.5599  0.0034 -0.2901
  199loPI   C1A 3175  14.025   6.282  10.055  0.2846  0.3677  0.2797
  199loPI   C2A 3176  14.162   6.240   9.598 -0.4373  0.2563 -0.0974
  199loPI   C3A 3177  14.104   6.341   9.187  0.3774 -0.1051  0.1958
  199loPI   C4A 3178  14.053   6.397   8.689 -0.1299  0.1013  0.0487
  199loPI   C5A 3179  14.039   6.248   8.273  0.2417  0.0502  0.1266
  199loPI   C6A 3180  13.810   5.878   8.130  0.1290 -0.0136 -0.1374
  199loPI   C1B 3181  13.535   6.227   9.699 -0.0598 -0.2530  0.0058
  199loPI   C2B 3182  13.750   6.041   9.368  0.0853  0.1051  0.2046
  199loPI   C3B 3183  13.813   5.932   8.938  0.0758 -0.2328  0.1888
  199loPI   C4B 3184  13.513   6.083   8.758  0.3318  0.1532 -0.2303
  200loPI    C1 3185  11.350   2.179  10.544  0.0521 -0.0303 -0.1729
  200loPI    C2 3186  11.053   2.321  10.317 -0.1956 -0.0700  0.1189
  200loPI    C3 3187  10.994   2.262  10.708  0.1556 -0.2129  0.1535
  200loPI   PO4 3188  11.391   1.979  10.395 -0.2055 -0.0822 -0.0518
  200loPI   GL1 3189  11.292   1.880  10.081  0.0950 -0.3512  0.2571
  200loPI   GL2 3190  11.129   1.509  10.086 -0.0427 -0.1260 -0.0319
  200loPI   C1A 3191  11.311   1.808   9.679  0.1862  0.0951  0.1230
  200loPI   C2A 3192  11.172   1.775   9.311 -0.0473  0.0887  0.0001
  200loPI   C3A 3193  11.001   1.670   8.895 -0.0587 -0.1845  0.1065
  200loPI   C4A 3194  10.997   1.743   8.416 -0.1574 -0.3045 -0.1065
  200loPI   C5A 3195  10.739   2.037   8.292  0.0440 -0.0294 -0.1846
  200loPI   C6A 3196  10.313   2.320   8.142  0.1414 -0.1762  0.0774
  200loPI   C1B 3197  10.961   1.404   9.581 -0.0686 -0.0479  0.3715
  200loPI   C2B 3198  10.897   1.238   9.177 -0.0955 -0.2433 -0.1492
  200loPI   C3B 3199  10.560   0.965   9.054 -0.0950  0.0631 -0.1043
  200loPI   C4B 3200  10.621   0.760   8.730  0.0594  0.2289 -0.0079
  201loPI    C1 3201  15.437   1.475  10.665 -0.5141  0.1753  0.0242
  201loPI    C2 3202  15.339   1.313  11.018  0.0363 -0.0504  0.0834
  201loPI    C3 3203  15.344   1.711  10.975 -0.0923 -0.0230  0.3110
  201loPI   PO4 3204  15.373   1.364  10.512  0.1795  0.2006 -0.0260
  201loPI   GL1 3205  15.269   1.401  10.122 -0.2076 -0.1030 -0.0331
  201loPI   GL2 3206  14.957   1.436  10.121  0.2947 -0.0374 -0.0094
  201loPI   C1A 3207  15.177   1.562   9.701 -0.1918 -0.0026  0.0534
  201loPI   C2A 3208  15.119   1.375   9.302 -0.1188  0.0432  0.0343
  201loPI   C3A 3209  14.959   1.221   8.855 -0.3409 -0.0339 -0.2645
  201loPI   C4A 3210  14.874   1.222   8.490  0.2494  0.1881  0.1227
  201loPI   C5A 3211  14.554   1.419   8.341 -0.1676  0.1658  0.0605
  201loPI   C6A 3212  14.298   1.807   8.314  0.0435  0.4774  0.1537
  201loPI   C1B 3213  14.778   1.324   9.721 -0.1447  0.0925 -0.2008
  201loPI   C2B 3214  14.626   1.289   9.210  0.2180  0.2289  0.0061
  201loPI   C3B 3215  14.501   1.402   8.832 -0.1029 -0.0018  0.0501
  201loPI   C4B 3216  14.453   1.746   8.753  0.1655 -0.0697 -0.0358
  202loPI    C1 3217   8.123   4.541  10.639 -0.3298 -0.1551  0.0583
  202loPI    C2 3218   8.121   4.175  10.801  0.1440 -0.1029  0.1974
  202loPI    C3 3219   8.454   4.317  10.631 -0.1158  0.1591 -0.1069
  202loPI   PO4 3220   7.826   4.580  10.610  0.0566 -0.0074 -0.0254
  202loPI   GL1 3221   7.504   4.726  10.357 -0.2454  0.0284  0.1649
  202loPI   GL2 3222   7.363   4.488  10.162 -0.1582 -0.2418  0.0161
  202loPI   C1A 3223   7.314   4.894   9.981 -0.0316 -0.1113  0.2986
  202loPI   C2A 3224   7.194   5.050   9.590  0.2929  0.1155 -0.3120
  202loPI   C3A 3225   7.271   5.209   9.228  0.1210  0.2316 -0.0234
  202loPI   C4A 3226   7.339   5.130   8.839 -0.3494  0.4241 -0.0278
  202loPI   C5A 3227   7.510   4.911   8.452  0.0458 -0.4527 -0.1578
  202loPI   C6A 3228   7.630   4.585   8.273 -0.3358 -0.2336  0.1909
  202loPI   C1B 3229   7.550   4.427   9.778  0.0518 -0.2396 -0.0623
  202loPI   C2B 3230   7.564   4.140   9.318 -0.2079  0.1338  0.1776
  202loPI   C3B 3231   7.646   3.971   8.917 -0.1673  0.1360  0.1490
  202loPI   C4B 3232   7.830   3.836   8.493  0.1408  0.0587 -0.3215
  203loPI    C1 3233   1.562   7.283  10.691  0.0240 -0.0454  0.1175
  203loPI    C2 3234   1.749   7.630  10.760  0.0990 -0.0708  0.0435
  203loPI    C3 3235   1.510   7.473  11.040  0.0577  0.0447  0.0738
  203loPI   PO4 3236   1.520   7.368  10.391  0.2156  0.1885 -0.1216
  203loPI   GL1 3237   1.617   7.332  10.036  0.1811  0.1879 -0.1463
  203loPI   GL2 3238   1.804   7.164   9.893  0.0719 -0.0525  0.0231
  203loPI   C1A 3239   1.278   7.459   9.722 -0.0152  0.0162 -0.0222
  203loPI   C2A 3240   1.240   7.440   9.258 -0.1614 -0.0687 -0.0838
  203loPI   C3A 3241   1.305   7.553   8.924 -0.0183 -0.0972  0.1023
  203loPI   C4A 3242   1.110   7.651   8.555 -0.0305  0.1114  0.0362
  203loPI   C5A 3243   0.802   7.840   8.250  0.0249 -0.0643 -0.0785
  203loPI   C6A 3244   0.661   7.807   7.873  0.0341 -0.1170 -0.2786
  203loPI   C1B 3245   1.583   6.864   9.625  0.1199  0.0284  0.1171
  203loPI   C2B 3246   1.674   6.667   9.298 -0.0539  0.1259  0.1779
  203loPI   C3B 3247   1.679   6.642   8.800 -0.3465 -0.1387 -0.0784
  203loPI   C4B 3248   1.934   6.813   8.379  0.0970  0.2539 -0.3162
  204loPI    C1 3249  13.043   2.210  10.936  0.0196  0.0651 -0.0737
  204loPI    C2 3250  12.815   2.194  11.265  0.0772  0.3737 -0.0158
  204loPI    C3 3251  13.188   2.049  11.273 -0.0999 -0.1041 -0.1018
  204loPI   PO4 3252  12.885   2.107  10.694 -0.0096 -0.0588 -0.0441
  204loPI   GL1 3253  12.906   2.135  10.311 -0.1862  0.1037  0.1352
  204loPI   GL2 3254  12.755   1.864  10.239  0.0702 -0.0107  0.0114
  204loPI   C1A 3255  13.078   2.189   9.905  0.2110 -0.1948  0.1210
  204loPI   C2A 3256  13.067   2.331   9.514  0.0407  0.2677 -0.1150
  204loPI   C3A 3257  13.148   2.281   9.080 -0.1935  0.0768 -0.0730
  204loPI   C4A 3258  13.298   2.289   8.663 -0.0542  0.2388 -0.3194
  204loPI   C5A 3259  13.598   2.487   8.357  0.0314  0.4083  0.0483
  204loPI   C6A 3260  13.688   2.464   7.931 -0.0399  0.4699  0.0444
  204loPI   C1B 3261  12.724   1.828   9.812 -0.4950 -0.0397 -0.1198
  204loPI   C2B 3262  12.761   1.905   9.417 -0.4059  0.1150 -0.0545
  204loPI   C3B 3263  12.706   2.165   9.002  0.1482 -0.1838 -0.0142
  204loPI   C4B 3264  12.778   2.264   8.582 -0.1259 -0.1921 -0.0243
  205loPI    C1 3265   1.888  13.417  10.567  0.0263  0.0894 -0.2807
  205loPI    C2 3266   2.221  13.624  10.649 -0.0399  0.0254  0.1762
  205loPI    C3 3267   2.044  13.408  10.935 -0.2175 -0.3163 -0.1813
  205loPI   PO4 3268   1.919  13.344  10.312 -0.2590 -0.2799  0.0082
  205loPI   GL1 3269   2.014  13.594   9.882 -0.1249 -0.0813 -0.0502
  205loPI   GL2 3270   1.722  13.800   9.826  0.1302  0.2187  0.1055
  205loPI   C1A 3271   2.039  13.583   9.382 -0.1871 -0.2397 -0.1456
  205loPI   C2A 3272   2.106  13.487   8.973  0.0528 -0.1657 -0.2830
  205loPI   C3A 3273   1.910  13.292   8.645 -0.0276  0.0241  0.1595
  205loPI   C4A 3274   1.637  13.373   8.304 -0.3216  0.0196 -0.1575
  205loPI   C5A 3275   1.538  13.829   8.201 -0.0160  0.0400 -0.0645
  205loPI   C6A 3276   1.657  14.159   7.933  0.1551 -0.0896 -0.1779
  205loPI   C1B 3277   1.693  13.909   9.359  0.0810  0.0364 -0.2045
  205loPI   C2B 3278   1.830  14.092   8.991  0.0621  0.2901  0.1506
  205loPI   C3B 3279   2.113  14.276   8.693 -0.0852  0.0494  0.0606
  205loPI   C4B 3280   2.501  14.285   8.530 -0.0119 -0.0694  0.1658
  206loPI    C1 3281  11.296  10.502  10.368 -0.0161  0.2016  0.1194
  206loPI    C2 3282  11.349  10.542  10.762 -0.3025 -0.3716  0.2264
  206loPI    C3 3283  11.553  10.263  10.561  0.0838  0.1292 -0.0999
  206loPI   PO4 3284  11.288  10.739  10.312 -0.1273 -0.0638 -0.0844
  206loPI   GL1 3285  11.161  10.824   9.908 -0.0399  0.0839  0.1744
  206loPI   GL2 3286  10.759  10.839   9.798 -0.2521  0.0878 -0.0314
  206loPI   C1A 3287  11.350  10.634   9.679 -0.1505 -0.2375  0.1114
  206loPI   C2A 3288  11.648  10.590   9.230  0.2052  0.1497 -0.1597
  206loPI   C3A 3289  11.844  10.703   8.780  0.1464 -0.1562 -0.2554
  206loPI   C4A 3290  11.661  10.839   8.443 -0.1753 -0.1377 -0.0772
  206loPI   C5A 3291  11.875  11.003   8.151 -0.1436 -0.0550  0.4121
  206loPI   C6A 3292  12.260  11.064   7.905  0.0386 -0.1935  0.1605
  206loPI   C1B 3293  10.831  10.641   9.553  0.0435 -0.0596 -0.0557
  206loPI   C2B 3294  11.103  10.480   9.193 -0.0106 -0.3055  0.1693
  206loPI   C3B 3295  11.363  10.611   8.848  0.2040 -0.0026  0.1028
  206loPI   C4B 3296  11.450  10.361   8.432 -0.1058  0.0889  0.0681
  207loPI    C1 3297   7.710  14.095  11.039 -0.0419 -0.1273  0.1356
  207loPI    C2 3298   7.766  14.448  11.219 -0.0645 -0.1539  0.1948
  207loPI    C3 3299   7.663  14.127  11.434  0.1202 -0.2349  0.1645
  207loPI   PO4 3300   7.838  14.144  10.834  0.4826 -0.0622  0.2970
  207loPI   GL1 3301   7.850  13.953  10.525  0.1418 -0.0765 -0.0638
  207loPI   GL2 3302   7.898  13.567  10.411  0.1014 -0.2488  0.1066
  207loPI   C1A 3303   7.931  13.983  10.080  0.3677 -0.0471  0.0494
  207loPI   C2A 3304   8.147  14.088   9.670  0.1569 -0.1236  0.0082
  207loPI   C3A 3305   8.245  14.227   9.291  0.1915  0.1493 -0.4784
  207loPI   C4A 3306   8.228  14.302   8.828  0.0446 -0.0771 -0.0246
  207loPI   C5A 3307   8.088  14.066   8.472  0.0721 -0.1658  0.0670
  207loPI   C6A 3308   8.094  13.633   8.285 -0.0851 -0.0104  0.1052
  207loPI   C1B 3309   8.121  13.537   9.982  0.6008 -0.0116 -0.0314
  207loPI   C2B 3310   8.171  13.604   9.583  0.1610 -0.0092  0.2007
  207loPI   C3B 3311   8.063  13.736   9.185  0.0174 -0.1062 -0.0772
  207loPI   C4B 3312   7.955  13.798   8.840  0.0636  0.0908 -0.2481
  208loPI    C1 3313   9.947  13.601  11.096  0.2403  0.1479 -0.2774
  208loPI    C2 3314  10.292  13.596  11.298  0.0027 -0.1687  0.1349
  208loPI    C3 3315   9.972  13.777  11.454 -0.1087 -0.1673 -0.0918
  208loPI   PO4 3316  10.004  13.629  10.863 -0.0667  0.1093 -0.0993
  208loPI   GL1 3317  10.015  13.763  10.559  0.0332 -0.0518 -0.1547
  208loPI   GL2 3318  10.265  14.015  10.404 -0.1517 -0.1701  0.1943
  208loPI   C1A 3319  10.052  13.571  10.126  0.0002 -0.1351  0.0492
  208loPI   C2A 3320   9.710  13.341   9.877  0.0058 -0.0239  0.0911
  208loPI   C3A 3321   9.850  13.187   9.445  0.1288  0.1156  0.0512
  208loPI   C4A 3322  10.012  13.009   9.103 -0.3269 -0.0286 -0.0761
  208loPI   C5A 3323  10.133  12.982   8.700 -0.1703  0.4479 -0.1222
  208loPI   C6A 3324   9.930  12.846   8.244  0.3384  0.4824  0.0277
  208loPI   C1B 3325  10.185  14.082   9.936  0.1239 -0.1923  0.1410
  208loPI   C2B 3326  10.052  14.120   9.470  0.1556 -0.0302 -0.0255
  208loPI   C3B 3327  10.080  14.043   9.013 -0.1212  0.2048 -0.1014
  208loPI   C4B 3328  10.153  14.004   8.522  0.1132 -0.0962 -0.0825
  209loPI    C1 3329   2.865   6.174  10.867  0.1302 -0.0921  0.1199
  209loPI    C2 3330   2.930   6.553  10.757 -0.2570 -0.0637 -0.0265
  209loPI    C3 3331   2.905   6.459  11.145 -0.1463  0.0565  0.0107
  209loPI   PO4 3332   2.988   6.025  10.618  0.0216  0.3947 -0.2263
  209loPI   GL1 3333   2.994   5.974  10.305 -0.3860  0.3633 -0.0823
  209loPI   GL2 3334   3.077   6.411  10.265 -0.1786  0.2258 -0.0679
  209loPI   C1A 3335   3.103   5.733   9.923  0.0049 -0.1531  0.0863
  209loPI   C2A 3336   2.968   5.779   9.429  0.3429  0.0024  0.0121
  209loPI   C3A 3337   3.114   6.026   9.045 -0.3308  0.0256 -0.3182
  209loPI   C4A 3338   3.065   6.161   8.653 -0.1533  0.0582 -0.1092
  209loPI   C5A 3339   2.938   6.238   8.218  0.0854 -0.0489  0.1242
  209loPI   C6A 3340   3.141   5.975   7.799  0.2769 -0.4394 -0.1970
  209loPI   C1B 3341   3.098   6.357   9.826  0.1453 -0.0183 -0.3001
  209loPI   C2B 3342   3.121   6.343   9.427  0.1167  0.2715 -0.1106
  209loPI   C3B 3343   3.023   6.559   9.113 -0.1675 -0.0866  0.2009
  209loPI   C4B 3344   2.990   6.968   8.953 -0.2618 -0.0043  0.1484
  210loPI    C1 3345   7.941   3.534  10.352  0.0029  0.0212 -0.1707
  210loPI    C2 3346   8.182   3.399  10.642  0.0937  0.1562 -0.1825
  210loPI    C3 3347   7.890   3.658  10.729 -0.0261  0.0192 -0.1740
  210loPI   PO4 3348   8.064   3.385  10.161 -0.2636  0.0179 -0.1124
  210loPI   GL1 3349   8.238   3.478   9.833  0.1492 -0.0258  0.0898
  210loPI   GL2 3350   8.421   3.143   9.813 -0.2343  0.0723 -0.0294
  210loPI   C1A 3351   8.181   3.301   9.417 -0.1913 -0.0779 -0.0991
  210loPI   C2A 3352   8.055   3.241   9.056 -0.1686 -0.1167 -0.4118
  210loPI   C3A 3353   7.940   2.911   8.686 -0.0747  0.5481  0.1553
  210loPI   C4A 3354   8.080   2.584   8.417 -0.0800 -0.1571 -0.2295
  210loPI   C5A 3355   8.204   2.261   8.275 -0.1226 -0.0213  0.2607
  210loPI   C6A 3356   8.028   1.848   8.251 -0.2566  0.0117  0.2115
  210loPI   C1B 3357   8.340   2.775   9.477 -0.1736 -0.1592 -0.4262
  210loPI   C2B 3358   8.269   2.790   9.052  0.3029  0.0706 -0.1782
  210loPI   C3B 3359   8.452   2.589   8.797 -0.1693  0.1493 -0.1321
  210loPI   C4B 3360   8.704   2.216   8.667 -0.0856  0.2488  0.2554
  211loPI    C1 3361   3.750  16.707  10.866 -0.0350  0.1699 -0.2741
  211loPI    C2 3362   3.389  16.664  11.032 -0.0280 -0.1274 -0.3295
  211loPI    C3 3363   3.717  16.569  11.239  0.0246  0.1907 -0.2611
  211loPI   PO4 3364   3.675  16.673  10.625 -0.3748  0.1597  0.0364
  211loPI   GL1 3365   3.439  16.619  10.208  0.1285 -0.0742  0.2050
  211loPI   GL2 3366   3.628  16.413  10.023  0.1704  0.1107  0.0039
  211loPI   C1A 3367   3.436  16.799   9.807  0.2764 -0.2118  0.0883
  211loPI   C2A 3368   3.362  17.032   9.380 -0.2124 -0.1653 -0.1331
  211loPI   C3A 3369   3.247  16.896   8.890  0.1060 -0.0079  0.1549
  211loPI   C4A 3370   3.352  16.678   8.539 -0.2569  0.2557 -0.1491
  211loPI   C5A 3371   3.647  16.551   8.205  0.2177 -0.0076  0.1378
  211loPI   C6A 3372   3.888  16.110   8.261  0.2733  0.0991  0.1111
  211loPI   C1B 3373   3.832  16.372   9.705 -0.0014 -0.2681  0.1357
  211loPI   C2B 3374   4.111  16.425   9.308 -0.1832  0.0427  0.0734
  211loPI   C3B 3375   3.853  16.477   8.934  0.2662 -0.4075 -0.0872
  211loPI   C4B 3376   3.760  16.877   8.606 -0.0658  0.0413  0.2380
  212loPI    C1 3377   9.086  13.299  10.999  0.2517 -0.1020 -0.0930
  212loPI    C2 3378   9.156  12.911  10.932  0.1271 -0.1547  0.0762
  212loPI    C3 3379   8.829  13.023  11.133  0.0783  0.0479 -0.1133
  212loPI   PO4 3380   8.931  13.520  10.771 -0.0855  0.1006  0.0267
  212loPI   GL1 3381   8.939  13.767  10.459 -0.1489 -0.1510  0.1731
  212loPI   GL2 3382   8.858  14.114  10.465 -0.1797 -0.1544  0.2541
  212loPI   C1A 3383   8.998  13.661   9.971  0.1232  0.0593 -0.0504
  212loPI   C2A 3384   9.319  13.593   9.682  0.1510  0.2676 -0.0749
  212loPI   C3A 3385   9.370  13.642   9.194 -0.4624  0.2007  0.1414
  212loPI   C4A 3386   9.317  13.589   8.737  0.1486  0.0863  0.0447
  212loPI   C5A 3387   9.088  13.582   8.456 -0.0216  0.4045 -0.1796
  212loPI   C6A 3388   8.906  13.682   8.004  0.1004 -0.3775 -0.0033
  212loPI   C1B 3389   8.719  14.333  10.033  0.3406  0.1088 -0.1474
  212loPI   C2B 3390   8.619  14.423   9.564 -0.1117  0.0701  0.0305
  212loPI   C3B 3391   8.704  14.386   9.145 -0.1042  0.1237  0.2023
  212loPI   C4B 3392   8.696  14.533   8.715  0.0368 -0.4702  0.2838
  213loPI    C1 3393   8.223  15.830  11.075  0.1110  0.0413 -0.3543
  213loPI    C2 3394   8.497  16.104  10.976  0.1327  0.1588  0.0155
  213loPI    C3 3395   8.539  15.892  11.312 -0.1272  0.0335 -0.0290
  213loPI   PO4 3396   8.090  15.844  10.766  0.0912 -0.1156 -0.0379
  213loPI   GL1 3397   7.816  15.953  10.419 -0.1582  0.0562 -0.1214
  213loPI   GL2 3398   7.972  15.975  10.174 -0.1346  0.0238 -0.0323
  213loPI   C1A 3399   7.413  15.706  10.124 -0.2284  0.2847 -0.4506
  213loPI   C2A 3400   7.293  15.665   9.729 -0.0229  0.0565  0.0957
  213loPI   C3A 3401   7.130  15.932   9.479 -0.3719 -0.0070  0.1448
  213loPI   C4A 3402   7.134  16.084   9.094  0.0546  0.1536  0.1762
  213loPI   C5A 3403   7.201  16.152   8.632 -0.1397  0.1852 -0.1619
  213loPI   C6A 3404   7.275  16.406   8.394  0.2612  0.1204  0.0289
  213loPI   C1B 3405   8.003  16.326   9.929 -0.0921 -0.2180  0.0939
  213loPI   C2B 3406   7.961  16.491   9.565 -0.0467  0.0352 -0.2517
  213loPI   C3B 3407   7.995  16.452   9.157  0.0947  0.0628 -0.1596
  213loPI   C4B 3408   8.194  16.428   8.696  0.1336 -0.0541  0.2532
  214loPI    C1 3409  16.685   8.238  10.427  0.0750 -0.0537 -0.2727
  214loPI    C2 3410  16.461   8.560  10.346 -0.1283 -0.1121  0.0361
  214loPI    C3 3411  16.820   8.603  10.517 -0.1013 -0.0438 -0.0373
  214loPI   PO4 3412  16.447   8.025  10.346 -0.0500 -0.1114  0.2556
  214loPI   GL1 3413  16.314   7.840   9.950 -0.2515  0.1275  0.2539
  214loPI   GL2 3414  16.050   7.760  10.061  0.2980 -0.2688 -0.0410
  214loPI   C1A 3415  16.430   7.977   9.663 -0.0170 -0.3591 -0.2669
  214loPI   C2A 3416  16.401   8.058   9.063  0.2460  0.1387 -0.1318
  214loPI   C3A 3417  16.432   8.361   8.730 -0.1105  0.0056 -0.1476
  214loPI   C4A 3418  16.488   8.758   8.429 -0.1761  0.0299  0.1533
  214loPI   C5A 3419  16.673   8.738   7.954  0.4447 -0.3861 -0.1401
  214loPI   C6A 3420  16.924   8.816   7.606  0.2047  0.0471  0.2615
  214loPI   C1B 3421  15.979   7.612   9.663  0.2128  0.0643  0.0220
  214loPI   C2B 3422  16.073   7.541   9.201  0.0286 -0.1527 -0.2336
  214loPI   C3B 3423  16.263   7.594   8.761  0.2836 -0.0858 -0.3620
  214loPI   C4B 3424  16.456   7.480   8.371 -0.0718  0.0243  0.1007
  215loPI    C1 3425  12.838  14.476  10.669  0.0370 -0.0508  0.0452
  215loPI    C2 3426  12.441  14.529  10.681  0.0381 -0.0299 -0.0085
  215loPI    C3 3427  12.624  14.319  10.969 -0.0407 -0.2283 -0.1015
  215loPI   PO4 3428  12.919  14.732  10.620 -0.2738  0.1005 -0.0879
  215loPI   GL1 3429  13.149  14.917  10.266 -0.2183  0.0637  0.1171
  215loPI   GL2 3430  13.058  15.066  10.163 -0.0689  0.2533 -0.2700
  215loPI   C1A 3431  13.242  14.780   9.809  0.1850 -0.1153  0.3663
  215loPI   C2A 3432  13.231  14.618   9.459  0.1495  0.2537 -0.2411
  215loPI   C3A 3433  13.153  14.427   9.119 -0.2756  0.0025 -0.1984
  215loPI   C4A 3434  13.181  14.150   8.754 -0.3401 -0.1081  0.0854
  215loPI   C5A 3435  12.963  14.069   8.466 -0.0792  0.0866 -0.2288
  215loPI   C6A 3436  12.791  13.724   8.288  0.1425  0.0023  0.0691
  215loPI   C1B 3437  12.706  15.049   9.925 -0.0260  0.0367 -0.3624
  215loPI   C2B 3438  12.649  15.005   9.565  0.1043  0.0816  0.2571
  215loPI   C3B 3439  12.611  14.939   9.110 -0.1606  0.0250 -0.1139
  215loPI   C4B 3440  12.489  14.842   8.681 -0.1155  0.1076 -0.0329
  216loPI    C1 3441   4.381  17.534  10.812  0.0425 -0.0068  0.0579
  216loPI    C2 3442   4.262  17.900  10.702  0.0325 -0.0168  0.0358
  216loPI    C3 3443   4.402  17.838  11.072  0.0732  0.0180  0.0264
  216loPI   PO4 3444   4.188  17.396  10.634  0.1333  0.3197 -0.0321
  216loPI   GL1 3445   4.097  16.949  10.420  0.1407 -0.0170 -0.0667
  216loPI   GL2 3446   4.357  16.820  10.304  0.3963  0.2283 -0.1375
  216loPI   C1A 3447   3.904  16.851  10.047 -0.2399 -0.2964  0.0351
  216loPI   C2A 3448   3.962  16.842   9.606 -0.0132 -0.0267 -0.0037
  216loPI   C3A 3449   4.085  16.912   9.205  0.2783 -0.0938  0.2445
  216loPI   C4A 3450   4.145  17.132   8.849 -0.0284 -0.0372 -0.2713
  216loPI   C5A 3451   4.251  17.128   8.379  0.0684  0.1746  0.1010
  216loPI   C6A 3452   4.582  16.916   8.042 -0.1878  0.1886 -0.2922
  216loPI   C1B 3453   4.465  16.922   9.942  0.0773  0.0613 -0.1327
  216loPI   C2B 3454   4.478  16.763   9.532 -0.0246  0.0205 -0.1393
  216loPI   C3B 3455   4.601  16.651   9.127  0.1016 -0.0689  0.1559
  216loPI   C4B 3456   4.488  16.754   8.630  0.1797  0.2061 -0.2148
  217loPI    C1 3457   2.828  13.141  10.610 -0.1408 -0.0029  0.0353
  217loPI    C2 3458   2.456  13.134  10.755 -0.0592  0.4631  0.2871
  217loPI    C3 3459   2.753  12.961  10.959 -0.1354  0.0586  0.0680
  217loPI   PO4 3460   2.825  13.082  10.430 -0.3805 -0.0271  0.2667
  217loPI   GL1 3461   2.855  13.306  10.048  0.0409  0.1859 -0.0469
  217loPI   GL2 3462   3.065  13.653  10.066  0.1896  0.0199  0.1398
  217loPI   C1A 3463   2.719  13.111   9.749  0.1408 -0.0693 -0.0919
  217loPI   C2A 3464   2.771  13.069   9.361 -0.0951  0.0989  0.0652
  217loPI   C3A 3465   2.781  12.963   8.939  0.1563 -0.1126 -0.0207
  217loPI   C4A 3466   2.756  12.904   8.643 -0.0921  0.0091 -0.1500
  217loPI   C5A 3467   2.756  12.619   8.301  0.2435 -0.2131 -0.0309
  217loPI   C6A 3468   3.097  12.648   7.893 -0.0815  0.1701 -0.1687
  217loPI   C1B 3469   3.048  13.518   9.581  0.0818  0.2665  0.1706
  217loPI   C2B 3470   3.157  13.374   9.131 -0.2283  0.0660 -0.1319
  217loPI   C3B 3471   3.175  13.149   8.794 -0.0821 -0.0192  0.2098
  217loPI   C4B 3472   3.173  13.007   8.361  0.1094  0.1138  0.1329
  218loPI    C1 3473  17.339  11.189  10.095  0.0748 -0.1484  0.2026
  218loPI    C2 3474  17.080  11.078  10.379  0.1172 -0.0866  0.2660
  218loPI    C3 3475  17.464  10.972  10.407  0.1995  0.2395  0.4294
  218loPI   PO4 3476  17.154  11.312   9.960  0.0777  0.5193 -0.2273
  218loPI   GL1 3477  17.037  11.271   9.646 -0.1406 -0.0675 -0.1699
  218loPI   GL2 3478  16.689  11.361   9.546 -0.0062 -0.1168 -0.1965
  218loPI   C1A 3479  16.933  11.342   9.135  0.0564  0.0862  0.0791
  218loPI   C2A 3480  17.014  11.335   8.795  0.1020 -0.0056  0.0989
  218loPI   C3A 3481  17.019  11.336   8.388  0.0725 -0.0568  0.0430
  218loPI   C4A 3482  17.104  11.387   7.807  0.3188  0.0384 -0.0096
  218loPI   C5A 3483  17.145  11.040   7.571  0.2424  0.1448  0.1437
  218loPI   C6A 3484  17.067  10.965   7.163  0.1593  0.1904  0.3827
  218loPI   C1B 3485  16.434  11.195   9.197  0.1465  0.0999 -0.1118
  218loPI   C2B 3486  16.159  11.018   8.975  0.1430  0.0167  0.3608
  218loPI   C3B 3487  16.182  10.744   8.576 -0.2225  0.0100 -0.2266
  218loPI   C4B 3488  16.429  10.525   8.390  0.0941 -0.1396  0.1370
  219loPI    C1 3489  12.439  11.553  10.620 -0.1691 -0.1284 -0.0350
  219loPI    C2 3490  12.126  11.797  10.572 -0.1044 -0.0052  0.1586
  219loPI    C3 3491  12.277  11.735  10.937  0.2289  0.1019  0.0423
  219loPI   PO4 3492  12.587  11.620  10.356 -0.1380 -0.1216 -0.0141
  219loPI   GL1 3493  12.760  11.902  10.039  0.1654  0.0812  0.4463
  219loPI   GL2 3494  12.847  12.188  10.151 -0.0562 -0.0050 -0.4198
  219loPI   C1A 3495  12.699  11.941   9.598  0.2807  0.1602 -0.1073
  219loPI   C2A 3496  12.639  11.912   9.144  0.0043  0.0232 -0.1817
  219loPI   C3A 3497  12.643  11.743   8.663  0.1741 -0.0084 -0.1586
  219loPI   C4A 3498  12.572  11.632   8.293  0.3076 -0.3202 -0.0682
  219loPI   C5A 3499  12.715  11.367   7.892  0.0696  0.0805  0.0381
  219loPI   C6A 3500  12.553  11.209   7.508  0.0240  0.1619 -0.1380
  219loPI   C1B 3501  12.587  12.403  10.018 -0.3100 -0.0056  0.2230
  219loPI   C2B 3502  12.590  12.377   9.536  0.0142  0.0497  0.1924
  219loPI   C3B 3503  12.387  12.377   9.120  0.1304  0.2848  0.0530
  219loPI   C4B 3504  12.398  12.170   8.767 -0.1388  0.1875 -0.0703
  220loPI    C1 3505  17.016   9.514  10.532 -0.2641  0.1144 -0.1891
  220loPI    C2 3506  17.046   9.777  10.831 -0.2126 -0.1446  0.0370
  220loPI    C3 3507  16.813   9.454  10.871 -0.4095 -0.0500 -0.3029
  220loPI   PO4 3508  17.140   9.623  10.295  0.0636 -0.0020  0.1065
  220loPI   GL1 3509  16.906   9.651   9.899 -0.1372 -0.0899  0.2251
  220loPI   GL2 3510  16.779   9.855   9.686  0.2208 -0.2017 -0.3291
  220loPI   C1A 3511  17.138   9.458   9.612  0.0915 -0.3909 -0.0133
  220loPI   C2A 3512  17.298   9.432   9.176 -0.0803  0.4076 -0.0815
  220loPI   C3A 3513  17.448   9.412   8.715  0.3671 -0.0909 -0.1131
  220loPI   C4A 3514  17.483   9.151   8.341  0.2056  0.0889 -0.0445
  220loPI   C5A 3515  17.631   8.972   7.970 -0.0221  0.2880  0.2260
  220loPI   C6A 3516  17.927   8.817   7.963 -0.2753  0.0651 -0.0518
  220loPI   C1B 3517  17.028   9.900   9.336 -0.1693 -0.2368 -0.2446
  220loPI   C2B 3518  17.173   9.927   8.923 -0.1471  0.1342 -0.0785
  220loPI   C3B 3519  17.072   9.990   8.584  0.0792  0.1144 -0.2732
  220loPI   C4B 3520  17.229  10.011   8.070  0.0392  0.2297  0.0386
  221loPI    C1 3521   8.549   5.052  10.536  0.1726  0.1358  0.1507
  221loPI    C2 3522   8.546   4.782  10.831 -0.0690  0.0792  0.0987
  221loPI    C3 3523   8.549   5.173  10.917  0.1124  0.0622  0.1744
  221loPI   PO4 3524   8.310   4.896  10.339  0.3324  0.1566 -0.0125
  221loPI   GL1 3525   7.976   4.861  10.188 -0.3616  0.3885  0.1482
  221loPI   GL2 3526   7.942   4.704   9.868  0.1022 -0.1472 -0.0083
  221loPI   C1A 3527   7.795   5.207   9.897 -0.1222  0.0461 -0.0413
  221loPI   C2A 3528   7.663   5.234   9.516 -0.1901 -0.0826 -0.3109
  221loPI   C3A 3529   7.627   5.521   9.104  0.0703  0.1457 -0.2258
  221loPI   C4A 3530   7.564   5.706   8.792  0.0790 -0.0859 -0.0145
  221loPI   C5A 3531   7.683   5.943   8.428 -0.1459 -0.0890  0.0352
  221loPI   C6A 3532   7.374   6.088   8.009  0.3272  0.0318 -0.0494
  221loPI   C1B 3533   7.744   4.717   9.400 -0.1722  0.1285  0.0698
  221loPI   C2B 3534   7.770   5.030   9.090  0.2183  0.3313  0.1425
  221loPI   C3B 3535   7.858   5.230   8.724  0.0065  0.4620  0.0487
  221loPI   C4B 3536   8.077   5.644   8.630  0.0912 -0.1903  0.0418
  222loPI    C1 3537  10.590  11.408  10.462  0.0018 -0.1625  0.3267
  222loPI    C2 3538  10.372  11.463  10.793 -0.1751 -0.1164  0.2036
  222loPI    C3 3539  10.246  11.210  10.510  0.0078 -0.2044  0.1996
  222loPI   PO4 3540  10.597  11.628  10.390 -0.3688  0.0756  0.1621
  222loPI   GL1 3541  10.687  11.786  10.013 -0.1550 -0.2145  0.0734
  222loPI   GL2 3542  10.411  11.614   9.947  0.1929 -0.3246 -0.0284
  222loPI   C1A 3543  10.987  11.808   9.705  0.1896  0.2946 -0.0287
  222loPI   C2A 3544  11.173  11.643   9.324 -0.3834 -0.1925  0.0981
  222loPI   C3A 3545  11.203  11.667   8.942 -0.0261  0.0496  0.1096
  222loPI   C4A 3546  11.262  11.788   8.515 -0.1726 -0.0225 -0.3243
  222loPI   C5A 3547  11.333  12.081   8.183 -0.2640 -0.0201  0.0990
  222loPI   C6A 3548  11.714  12.312   8.068  0.1544 -0.1281  0.1745
  222loPI   C1B 3549  10.358  11.693   9.425  0.2815  0.1063 -0.1384
  222loPI   C2B 3550  10.406  11.583   9.034 -0.2274 -0.0233 -0.3435
  222loPI   C3B 3551  10.397  11.499   8.613 -0.0912 -0.0648 -0.2091
  222loPI   C4B 3552  10.240  11.337   8.274  0.1225  0.0624 -0.2187
  223loPI    C1 3553   0.263   0.573  10.724  0.1961 -0.1435 -0.0492
  223loPI    C2 3554  -0.027   0.644  10.991  0.1325  0.0529 -0.1685
  223loPI    C3 3555   0.345   0.772  11.062  0.1762 -0.1367 -0.0484
  223loPI   PO4 3556   0.342   0.213  10.647  0.1390  0.2025  0.1171
  223loPI   GL1 3557   0.671   0.010  10.377 -0.5456 -0.0686  0.4066
  223loPI   GL2 3558   1.035   0.129  10.297 -0.1609 -0.1813  0.2352
  223loPI   C1A 3559   0.607  -0.088   9.993 -0.2490 -0.1942  0.1180
  223loPI   C2A 3560   0.630  -0.179   9.658  0.0576  0.2579  0.0254
  223loPI   C3A 3561   0.766  -0.184   9.319  0.4095  0.2120 -0.0489
  223loPI   C4A 3562   0.938  -0.442   8.907  0.4375 -0.2983  0.0857
  223loPI   C5A 3563   1.125  -0.282   8.543  0.0305  0.0162  0.0887
  223loPI   C6A 3564   1.491  -0.204   8.230  0.3989  0.2877 -0.1099
  223loPI   C1B 3565   1.091  -0.064   9.861  0.2038 -0.0074 -0.2528
  223loPI   C2B 3566   1.298  -0.110   9.468  0.2155  0.2652  0.4052
  223loPI   C3B 3567   1.480  -0.143   9.143 -0.0810 -0.1501 -0.0801
  223loPI   C4B 3568   1.660  -0.296   8.710  0.2000  0.2171  0.5748
  224loPI    C1 3569   6.397  17.273  10.945 -0.1995 -0.1646 -0.2664
  224loPI    C2 3570   6.491  17.164  11.318 -0.1041  0.0234 -0.2347
  224loPI    C3 3571   6.164  17.384  11.251 -0.0538  0.0945 -0.2472
  224loPI   PO4 3572   6.390  17.104  10.789 -0.1533  0.0230  0.0037
  224loPI   GL1 3573   6.377  17.085  10.398  0.0382 -0.0368 -0.1076
  224loPI   GL2 3574   6.116  17.251  10.399 -0.3418  0.2882  0.1709
  224loPI   C1A 3575   6.506  17.416  10.111  0.0758 -0.1704 -0.1706
  224loPI   C2A 3576   6.311  17.799   9.892  0.2811  0.1550 -0.1297
  224loPI   C3A 3577   6.088  17.772   9.518 -0.1638  0.0168  0.1452
  224loPI   C4A 3578   6.359  17.731   9.205  0.1622 -0.0484 -0.1341
  224loPI   C5A 3579   6.390  17.779   8.791 -0.0923 -0.1127  0.0676
  224loPI   C6A 3580   6.300  17.820   8.416 -0.0461 -0.0496 -0.0982
  224loPI   C1B 3581   5.950  17.299   9.979  0.1431 -0.1696 -0.0099
  224loPI   C2B 3582   5.925  17.270   9.500  0.1585 -0.0143 -0.0202
  224loPI   C3B 3583   5.896  17.568   9.063  0.1371  0.1230 -0.1125
  224loPI   C4B 3584   5.734  17.571   8.581 -0.2401 -0.2246 -0.3609
  225loPI    C1 3585   1.830  14.959  10.865  0.1576 -0.1053  0.0393
  225loPI    C2 3586   1.470  14.867  11.012  0.0568 -0.1836 -0.2493
  225loPI    C3 3587   1.801  14.747  11.203 -0.0670 -0.0714  0.0422
  225loPI   PO4 3588   1.794  15.015  10.624  0.1702  0.0278 -0.0327
  225loPI   GL1 3589   2.029  15.196  10.278  0.0753  0.0633  0.0159
  225loPI   GL2 3590   2.239  15.483  10.434 -0.3094  0.0935 -0.0150
  225loPI   C1A 3591   2.178  15.307   9.848  0.2543 -0.0132  0.0205
  225loPI   C2A 3592   2.302  15.326   9.425  0.1165  0.0876  0.3216
  225loPI   C3A 3593   2.320  15.270   8.979 -0.0510 -0.1015 -0.1439
  225loPI   C4A 3594   2.304  15.203   8.520 -0.1181 -0.2474 -0.2353
  225loPI   C5A 3595   1.817  15.124   8.347  0.3219 -0.3173  0.4084
  225loPI   C6A 3596   1.512  15.324   8.149  0.0797  0.0572 -0.0043
  225loPI   C1B 3597   2.340  15.725  10.079  0.3253 -0.2020  0.0076
  225loPI   C2B 3598   2.446  15.726   9.701  0.0201 -0.1182  0.0118
  225loPI   C3B 3599   2.592  15.721   9.226  0.1951 -0.0825  0.3236
  225loPI   C4B 3600   2.732  15.550   8.783 -0.3925  0.0047 -0.0745
  226loPI    C1 3601   8.015   1.774  11.058 -0.0962 -0.0416  0.0394
  226loPI    C2 3602   7.839   1.673  11.403  0.0901  0.0434  0.1605
  226loPI    C3 3603   8.004   2.035  11.362  0.1311  0.0077  0.0064
  226loPI   PO4 3604   8.020   1.439  10.959  0.1737 -0.2862 -0.0894
  226loPI   GL1 3605   7.653   1.435  10.751 -0.0434 -0.3507 -0.0760
  226loPI   GL2 3606   7.712   1.705  10.664  0.0547  0.0499 -0.1488
  226loPI   C1A 3607   7.351   1.282  10.472  0.0568 -0.0806 -0.0224
  226loPI   C2A 3608   7.538   1.207  10.098  0.1919  0.1255  0.0013
  226loPI   C3A 3609   7.380   1.174   9.669  0.1173 -0.1672 -0.0349
  226loPI   C4A 3610   7.239   1.267   9.194 -0.3204  0.0133 -0.1683
  226loPI   C5A 3611   7.125   1.368   8.893 -0.0715 -0.4238  0.0872
  226loPI   C6A 3612   7.270   1.272   8.601 -0.0511 -0.2390 -0.0897
  226loPI   C1B 3613   7.785   1.657  10.241 -0.0480 -0.0650  0.1543
  226loPI   C2B 3614   7.653   1.563   9.817 -0.3667 -0.1573  0.1793
  226loPI   C3B 3615   7.684   1.504   9.376  0.1802 -0.0244 -0.0097
  226loPI   C4B 3616   7.698   1.460   8.961  0.0512 -0.0929 -0.1796
  227loPI    C1 3617  13.482   5.809  10.530  0.0772 -0.0734  0.0079
  227loPI    C2 3618  13.643   5.538  10.776  0.0354 -0.0357  0.0770
  227loPI    C3 3619  13.530   5.895  10.917  0.0771  0.0128 -0.0110
  227loPI   PO4 3620  13.234   5.685  10.401 -0.2316  0.0713  0.1517
  227loPI   GL1 3621  13.052   5.747  10.067 -0.4680  0.0074  0.2055
  227loPI   GL2 3622  12.857   5.511   9.958  0.1718  0.0174  0.1707
  227loPI   C1A 3623  13.142   5.919   9.587 -0.0670 -0.1136  0.0122
  227loPI   C2A 3624  13.252   6.118   9.307  0.3114 -0.1002 -0.0012
  227loPI   C3A 3625  13.102   6.261   8.890  0.3437 -0.0913  0.1304
  227loPI   C4A 3626  13.159   6.324   8.476 -0.0012  0.4260  0.0787
  227loPI   C5A 3627  13.439   6.355   8.140  0.1482 -0.2079  0.1880
  227loPI   C6A 3628  13.377   6.579   7.831 -0.1793  0.1795  0.3301
  227loPI   C1B 3629  12.838   5.074   9.767 -0.1762  0.0376 -0.1263
  227loPI   C2B 3630  12.871   4.873   9.406  0.1651  0.0625 -0.0474
  227loPI   C3B 3631  12.955   4.792   8.901 -0.2657  0.0770 -0.1360
  227loPI   C4B 3632  12.767   4.960   8.561  0.0388  0.0642 -0.0731
  228loPI    C1 3633  17.593   7.049  11.109  0.0599  0.0471  0.2215
  228loPI    C2 3634  17.911   7.281  11.181  0.2093 -0.0400 -0.1346
  228loPI    C3 3635  17.946   6.883  11.198  0.0551 -0.0465  0.0690
  228loPI   PO4 3636  17.505   7.103  10.873 -0.3981 -0.0830  0.3031
  228loPI   GL1 3637  17.623   7.012  10.436 -0.1376  0.0182 -0.0077
  228loPI   GL2 3638  17.345   6.994  10.424 -0.0263 -0.1500 -0.0897
  228loPI   C1A 3639  17.788   6.788  10.160  0.0312 -0.1018 -0.0515
  228loPI   C2A 3640  17.808   6.837   9.673 -0.0338  0.0253 -0.0007
  228loPI   C3A 3641  17.770   6.768   9.210 -0.1566  0.0501 -0.0827
  228loPI   C4A 3642  17.908   6.973   8.804  0.0309 -0.0556  0.0592
  228loPI   C5A 3643  17.741   7.004   8.431  0.0549  0.1734  0.1351
  228loPI   C6A 3644  17.456   7.172   8.198  0.0360 -0.1843  0.1519
  228loPI   C1B 3645  17.258   7.041  10.067 -0.4383 -0.2486  0.3797
  228loPI   C2B 3646  17.178   7.180   9.778 -0.0452  0.0919 -0.0001
  228loPI   C3B 3647  16.899   7.111   9.437  0.0268 -0.1108  0.0215
  228loPI   C4B 3648  17.086   7.395   9.026 -0.0776 -0.2042 -0.0685
  229loPI    C1 3649  15.902   6.119  11.017 -0.1183  0.0627  0.0436
  229loPI    C2 3650  15.654   6.386  11.181  0.0055  0.1563  0.0800
  229loPI    C3 3651  15.902   6.173  11.413 -0.1104 -0.0098  0.0538
  229loPI   PO4 3652  16.012   6.217  10.803  0.0475 -0.1039  0.0552
  229loPI   GL1 3653  16.058   6.327  10.445 -0.0875  0.2930  0.3502
  229loPI   GL2 3654  16.358   6.135  10.392  0.0623 -0.1148 -0.3342
  229loPI   C1A 3655  16.309   6.537  10.107  0.0490 -0.1551  0.0987
  229loPI   C2A 3656  16.452   6.388   9.638 -0.4559 -0.1791 -0.0971
  229loPI   C3A 3657  16.415   6.348   9.234 -0.0547  0.4009  0.2165
  229loPI   C4A 3658  16.420   6.167   8.825 -0.0336 -0.0195  0.0443
  229loPI   C5A 3659  16.295   6.156   8.409 -0.1925  0.3196 -0.5106
  229loPI   C6A 3660  15.960   6.085   8.072 -0.0663  0.0438  0.0762
  229loPI   C1B 3661  16.430   6.032  10.022 -0.0956 -0.0360 -0.0094
  229loPI   C2B 3662  16.824   5.837   9.822  0.0191 -0.2159  0.0271
  229loPI   C3B 3663  16.822   6.009   9.403 -0.0623 -0.3257 -0.1516
  229loPI   C4B 3664  16.865   6.173   8.999  0.0732  0.0916 -0.2095
  230loPI    C1 3665   0.499   2.275  10.892  0.1073  0.1829 -0.0433
  230loPI    C2 3666   0.474   2.573  11.158 -0.1309 -0.0926  0.2516
  230loPI    C3 3667   0.205   2.277  11.164 -0.0704 -0.1652 -0.2260
  230loPI   PO4 3668   0.752   2.303  10.794  0.3539  0.1802 -0.0949
  230loPI   GL1 3669   0.808   2.149  10.352 -0.0484 -0.1267 -0.1083
  230loPI   GL2 3670   0.567   2.303  10.171  0.1560 -0.0786  0.1050
  230loPI   C1A 3671   1.046   2.237   9.993 -0.0073  0.2035 -0.3078
  230loPI   C2A 3672   1.276   2.198   9.592 -0.1065 -0.1760  0.0134
  230loPI   C3A 3673   1.444   2.286   9.203 -0.2085 -0.0134 -0.1782
  230loPI   C4A 3674   1.563   2.206   8.814  0.0146 -0.0597 -0.0233
  230loPI   C5A 3675   1.694   2.146   8.454  0.4036  0.2494 -0.0874
  230loPI   C6A 3676   2.094   2.118   8.238 -0.2015  0.0744  0.1034
  230loPI   C1B 3677   0.534   2.202   9.794  0.1572 -0.4794  0.2273
  230loPI   C2B 3678   0.393   2.189   9.475 -0.0611  0.1982 -0.2348
  230loPI   C3B 3679   0.447   2.180   9.064 -0.2182 -0.4000 -0.2904
  230loPI   C4B 3680   0.555   2.326   8.684  0.1123 -0.2269 -0.2102
  231loPI    C1 3681  11.681   2.592  10.551  0.1351  0.0695 -0.0734
  231loPI    C2 3682  11.685   2.819  10.880 -0.2287 -0.0953  0.0504
  231loPI    C3 3683  11.337   2.697  10.726 -0.0491 -0.2966 -0.2051
  231loPI   PO4 3684  11.867   2.245  10.648  0.2267  0.0828 -0.0874
  231loPI   GL1 3685  11.964   1.941  10.399  0.1187  0.0964  0.1537
  231loPI   GL2 3686  11.791   1.849  10.139 -0.2747 -0.2076 -0.1880
  231loPI   C1A 3687  12.280   1.918  10.004  0.1548  0.1828 -0.0451
  231loPI   C2A 3688  12.297   2.027   9.557  0.2263  0.1926 -0.1210
  231loPI   C3A 3689  12.206   1.991   9.178 -0.1260  0.1276 -0.1355
  231loPI   C4A 3690  12.053   1.788   8.774  0.1426 -0.2567  0.5514
  231loPI   C5A 3691  11.831   1.420   8.700  0.2693  0.1624  0.2167
  231loPI   C6A 3692  11.823   1.210   8.530  0.3456 -0.0433 -0.1501
  231loPI   C1B 3693  11.819   1.869   9.737  0.0441 -0.3153  0.1245
  231loPI   C2B 3694  11.735   1.941   9.373  0.1056 -0.0092  0.2156
  231loPI   C3B 3695  11.593   1.960   8.961  0.1255 -0.1233  0.2595
  231loPI   C4B 3696  11.494   1.873   8.581 -0.0238 -0.2603  0.1981
  232loPI    C1 3697  12.372   4.061  10.717 -0.3877 -0.0089 -0.0811
  232loPI    C2 3698  12.383   4.455  10.785 -0.2474 -0.0402  0.0858
  232loPI    C3 3699  12.305   4.203  11.085 -0.1740 -0.1495  0.0141
  232loPI   PO4 3700  12.330   3.959  10.495  0.0650 -0.0202 -0.1885
  232loPI   GL1 3701  12.237   3.864  10.158 -0.0790 -0.1919 -0.0028
  232loPI   GL2 3702  12.398   4.153   9.952  0.0729 -0.1104  0.3402
  232loPI   C1A 3703  12.442   3.601   9.786  0.0011  0.0189  0.2676
  232loPI   C2A 3704  12.620   3.486   9.392 -0.1096  0.2445 -0.0879
  232loPI   C3A 3705  12.700   3.683   8.980 -0.0950 -0.0647 -0.3031
  232loPI   C4A 3706  12.531   3.554   8.571  0.0415 -0.2317  0.0006
  232loPI   C5A 3707  12.368   3.501   8.056 -0.1617 -0.0896 -0.2217
  232loPI   C6A 3708  12.313   3.477   7.607 -0.1347 -0.1483  0.0663
  232loPI   C1B 3709  12.678   4.198   9.612 -0.0156 -0.0994  0.0497
  232loPI   C2B 3710  12.698   4.165   9.172 -0.2184 -0.1407 -0.1663
  232loPI   C3B 3711  12.468   4.292   8.900 -0.2712 -0.1092 -0.1492
  232loPI   C4B 3712  12.418   4.634   8.558 -0.0755  0.0693 -0.0700
  233loPI    C1 3713   1.047  12.768  10.682  0.1170 -0.1631 -0.1474
  233loPI    C2 3714   0.989  12.547  11.010  0.0206  0.0279 -0.0342
  233loPI    C3 3715   1.312  12.781  10.981  0.0308  0.0087 -0.0772
  233loPI   PO4 3716   0.967  12.982  10.602  0.2033 -0.2731  0.2091
  233loPI   GL1 3717   1.033  13.238  10.127  0.5266 -0.1199  0.0979
  233loPI   GL2 3718   0.893  13.504   9.926 -0.1980  0.1516 -0.0971
  233loPI   C1A 3719   0.712  13.056   9.822  0.2127 -0.2050 -0.1322
  233loPI   C2A 3720   0.631  13.254   9.541  0.0316  0.0460  0.4074
  233loPI   C3A 3721   0.384  13.068   9.158 -0.0349 -0.0114 -0.1331
  233loPI   C4A 3722   0.301  13.135   8.747  0.0578  0.0996 -0.0430
  233loPI   C5A 3723   0.368  13.400   8.522 -0.1753 -0.0704  0.0837
  233loPI   C6A 3724   0.533  13.633   8.111 -0.3155 -0.2915  0.0666
  233loPI   C1B 3725   0.711  13.744   9.638 -0.1678 -0.2492  0.2730
  233loPI   C2B 3726   0.282  14.116   9.459 -0.3139 -0.3241  0.2063
  233loPI   C3B 3727   0.256  14.407   9.117  0.0097 -0.1210  0.0295
  233loPI   C4B 3728   0.438  14.407   8.686  0.0270  0.2072 -0.0943
  234loPI    C1 3729   1.380  12.344  10.705 -0.1514 -0.0638 -0.0508
  234loPI    C2 3730   1.758  12.229  10.646 -0.0522  0.1168  0.2123
  234loPI    C3 3731   1.556  12.094  10.963 -0.2043  0.0336  0.0811
  234loPI   PO4 3732   1.276  12.307  10.466 -0.2618  0.0390 -0.2728
  234loPI   GL1 3733   1.320  12.311  10.021 -0.1429  0.1366  0.0111
  234loPI   GL2 3734   1.685  12.390  10.156  0.0532 -0.1720 -0.0280
  234loPI   C1A 3735   1.553  12.342   9.561  0.1791 -0.0641 -0.0931
  234loPI   C2A 3736   1.548  12.340   9.107 -0.1494  0.2498 -0.1796
  234loPI   C3A 3737   1.712  12.311   8.676  0.0639 -0.2236 -0.3692
  234loPI   C4A 3738   1.714  12.072   8.288 -0.1114 -0.0769 -0.0149
  234loPI   C5A 3739   2.002  12.105   7.923 -0.2288 -0.0738  0.4237
  234loPI   C6A 3740   2.186  12.075   7.554 -0.0520 -0.1684 -0.0858
  234loPI   C1B 3741   1.873  12.631   9.824  0.1553 -0.0439 -0.2666
  234loPI   C2B 3742   1.677  12.776   9.352  0.2093  0.0804  0.0088
  234loPI   C3B 3743   1.675  12.807   8.925 -0.0832  0.1440  0.0202
  234loPI   C4B 3744   1.639  12.858   8.427  0.1748 -0.2296  0.1050
  235loPI    C1 3745   7.154   1.122  11.055 -0.1204  0.1731 -0.0109
  235loPI    C2 3746   7.134   1.147  11.454  0.3128  0.0956  0.0203
  235loPI    C3 3747   7.388   1.381  11.252  0.2504 -0.0164 -0.1908
  235loPI   PO4 3748   6.888   1.140  10.947  0.3874  0.2517  0.0435
  235loPI   GL1 3749   6.862   1.169  10.503 -0.2675  0.0317  0.2656
  235loPI   GL2 3750   6.592   0.977  10.564 -0.1004 -0.1218 -0.0031
  235loPI   C1A 3751   7.048   1.101  10.065  0.0982 -0.1158 -0.0306
  235loPI   C2A 3752   6.989   0.925   9.641  0.2464 -0.1022  0.0424
  235loPI   C3A 3753   6.837   0.939   9.234 -0.2645  0.0292 -0.0304
  235loPI   C4A 3754   6.810   1.006   8.833  0.0682  0.1655  0.1431
  235loPI   C5A 3755   6.638   1.429   8.583  0.1744  0.3908  0.2206
  235loPI   C6A 3756   6.219   1.698   8.644 -0.0041  0.0055 -0.2145
  235loPI   C1B 3757   6.672   0.636  10.323 -0.0906 -0.0201 -0.1961
  235loPI   C2B 3758   6.630   0.563   9.905  0.1185 -0.1271 -0.0561
  235loPI   C3B 3759   6.557   0.551   9.467  0.2415  0.1939  0.1765
  235loPI   C4B 3760   6.570   0.463   9.094 -0.0632  0.1038  0.2109
  236loPI    C1 3761   5.709   5.465  11.113 -0.0406 -0.1395  0.0240
  236loPI    C2 3762   5.600   5.849  11.116  0.1949 -0.0715  0.1033
  236loPI    C3 3763   5.620   5.645  11.459  0.2615 -0.0989  0.0832
  236loPI   PO4 3764   5.808   5.466  10.828 -0.0458 -0.2566 -0.2459
  236loPI   GL1 3765   5.905   5.440  10.399  0.1302 -0.1076  0.2297
  236loPI   GL2 3766   5.946   5.136  10.363 -0.2057  0.0389  0.0992
  236loPI   C1A 3767   5.834   5.392   9.953  0.0715 -0.0715  0.2061
  236loPI   C2A 3768   5.940   5.305   9.587 -0.2537 -0.0692  0.0277
  236loPI   C3A 3769   5.816   5.197   9.134  0.1670 -0.2465  0.0409
  236loPI   C4A 3770   5.887   5.188   8.628  0.1896 -0.1342  0.1155
  236loPI   C5A 3771   5.586   5.235   8.348 -0.1809  0.3178  0.0872
  236loPI   C6A 3772   5.601   5.479   8.052  0.1517  0.0277  0.3453
  236loPI   C1B 3773   5.835   4.878  10.057 -0.0409  0.0317 -0.2534
  236loPI   C2B 3774   5.673   4.695   9.697  0.2049  0.2778 -0.4077
  236loPI   C3B 3775   5.942   4.745   9.414  0.0575  0.0629  0.0258
  236loPI   C4B 3776   6.256   4.714   9.201 -0.1049 -0.1030  0.1427
  237loPI    C1 3777  11.979   3.773  10.865  0.0577  0.1237  0.1798
  237loPI    C2 3778  11.763   3.653  11.179 -0.0008  0.0876  0.1258
  237loPI    C3 3779  11.834   4.043  11.123 -0.0535  0.0997  0.1425
  237loPI   PO4 3780  11.882   3.697  10.534  0.0639  0.0829 -0.0423
  237loPI   GL1 3781  11.493   3.609  10.307 -0.2598 -0.0900 -0.0410
  237loPI   GL2 3782  11.735   3.789   9.986  0.1622  0.1396 -0.1053
  237loPI   C1A 3783  11.551   3.312   9.912  0.0010 -0.1118  0.3795
  237loPI   C2A 3784  11.395   3.354   9.494 -0.0941  0.1972  0.0247
  237loPI   C3A 3785  11.544   3.246   9.083  0.0112 -0.3070 -0.3528
  237loPI   C4A 3786  11.714   3.008   8.738 -0.1265 -0.0199 -0.0694
  237loPI   C5A 3787  12.092   3.165   8.468 -0.0815 -0.2691  0.2544
  237loPI   C6A 3788  12.209   2.933   8.031  0.2883 -0.1027  0.0026
  237loPI   C1B 3789  12.015   3.855   9.642 -0.1768  0.0519 -0.2996
  237loPI   C2B 3790  12.287   3.844   9.247 -0.2561 -0.0035  0.0783
  237loPI   C3B 3791  12.174   3.873   8.847  0.2567 -0.2337  0.0097
  237loPI   C4B 3792  12.339   4.013   8.395 -0.1195 -0.0725 -0.1747
  238loPI    C1 3793   3.598   8.194  10.459 -0.1357 -0.0888 -0.0770
  238loPI    C2 3794   3.798   8.213  10.804  0.0345  0.0478 -0.1813
  238loPI    C3 3795   3.404   8.145  10.805  0.0088  0.1893  0.0464
  238loPI   PO4 3796   3.689   8.185  10.219  0.0766 -0.1034  0.1158
  238loPI   GL1 3797   3.836   8.092   9.803  0.3058 -0.2147  0.2584
  238loPI   GL2 3798   4.118   8.354   9.913 -0.2031 -0.3624  0.2857
  238loPI   C1A 3799   3.803   7.975   9.403 -0.1182 -0.0856  0.1457
  238loPI   C2A 3800   3.694   7.910   8.957  0.0722  0.2039 -0.1687
  238loPI   C3A 3801   3.893   7.743   8.593  0.0466 -0.0925  0.0640
  238loPI   C4A 3802   4.089   7.488   8.288  0.1724  0.0464  0.1147
  238loPI   C5A 3803   4.019   7.193   7.953 -0.1219 -0.1242  0.2931
  238loPI   C6A 3804   4.014   6.754   7.946 -0.0363 -0.0654 -0.0962
  238loPI   C1B 3805   4.052   8.486   9.418  0.0220 -0.0299 -0.2527
  238loPI   C2B 3806   3.946   8.358   9.021 -0.0217  0.1007  0.1172
  238loPI   C3B 3807   3.993   8.395   8.604 -0.0189 -0.0482 -0.1742
  238loPI   C4B 3808   4.009   8.583   8.170 -0.0367 -0.2193  0.0039
  239loPI    C1 3809  10.853   9.777  10.663  0.1801  0.1221  0.1614
  239loPI    C2 3810  10.583   9.600  10.899 -0.0557  0.0421 -0.1615
  239loPI    C3 3811  10.952   9.670  11.036 -0.1721 -0.0476  0.2105
  239loPI   PO4 3812  10.686   9.789  10.447 -0.0145  0.0920  0.2707
  239loPI   GL1 3813  10.898   9.670  10.037 -0.0969  0.1439 -0.1888
  239loPI   GL2 3814  11.126   9.531  10.185 -0.2392 -0.0360  0.1413
  239loPI   C1A 3815  10.731   9.799   9.661 -0.1421  0.0407 -0.3289
  239loPI   C2A 3816  10.707  10.166   9.386  0.0390 -0.0547 -0.1428
  239loPI   C3A 3817  10.536  10.252   9.044  0.0558  0.0423  0.1627
  239loPI   C4A 3818  10.580  10.487   8.561 -0.0230 -0.0024 -0.3681
  239loPI   C5A 3819  10.602  10.664   8.183 -0.1293 -0.2718  0.1929
  239loPI   C6A 3820  10.410  11.011   7.940 -0.2175  0.0685 -0.0679
  239loPI   C1B 3821  11.206   9.575   9.677  0.3218  0.1497  0.2574
  239loPI   C2B 3822  11.555   9.524   9.295 -0.2183  0.2137 -0.3626
  239loPI   C3B 3823  11.786   9.608   9.051  0.0371 -0.3615 -0.0622
  239loPI   C4B 3824  11.738   9.556   8.600 -0.1881 -0.2585 -0.3734
  240loPI    C1 3825  12.597  17.621  10.772 -0.1018 -0.1682  0.1735
  240loPI    C2 3826  12.408  17.918  10.963 -0.0658 -0.2046  0.2657
  240loPI    C3 3827  12.677  17.694  11.157  0.2513  0.0008  0.0718
  240loPI   PO4 3828  12.640  17.766  10.510 -0.2664 -0.0031 -0.0178
  240loPI   GL1 3829  12.901  17.797  10.121 -0.1266  0.1290  0.1492
  240loPI   GL2 3830  12.830  17.453  10.161  0.0073 -0.0662  0.2039
  240loPI   C1A 3831  12.729  17.849   9.755 -0.1506 -0.0049  0.0157
  240loPI   C2A 3832  12.763  17.838   9.357 -0.0988 -0.0126  0.0716
  240loPI   C3A 3833  12.698  17.943   8.930 -0.0614  0.1706  0.2019
  240loPI   C4A 3834  12.459  17.908   8.628  0.1173  0.0087  0.3478
  240loPI   C5A 3835  12.195  17.836   8.274 -0.2599  0.2062 -0.1252
  240loPI   C6A 3836  11.918  17.718   7.939 -0.0610  0.1056 -0.1160
  240loPI   C1B 3837  12.832  17.357   9.761  0.2425 -0.0016  0.0697
  240loPI   C2B 3838  12.869  17.351   9.328  0.0159 -0.2107  0.1855
  240loPI   C3B 3839  12.972  17.401   8.926 -0.0303  0.0677 -0.0403
  240loPI   C4B 3840  13.056  17.717   8.680 -0.0433  0.3735 -0.3189
  241loPI    C1 3841  10.750   8.576  10.257  0.0393  0.1688 -0.0483
  241loPI    C2 3842  10.841   8.809  10.568 -0.1327  0.2385 -0.0490
  241loPI    C3 3843  10.617   8.482  10.623 -0.0204  0.1569 -0.0729
  241loPI   PO4 3844  10.686   8.734  10.050 -0.0116  0.0566  0.2415
  241loPI   GL1 3845  10.821   8.856   9.702  0.2454 -0.2439  0.3397
  241loPI   GL2 3846  11.180   8.929   9.640 -0.0093 -0.1810  0.0289
  241loPI   C1A 3847  10.719   8.798   9.273  0.0209  0.0443 -0.0952
  241loPI   C2A 3848  10.600   8.880   8.882  0.1144  0.2741 -0.0645
  241loPI   C3A 3849  10.455   9.013   8.513 -0.0839  0.1737  0.0568
  241loPI   C4A 3850  10.528   9.120   8.108  0.2830  0.0937 -0.0366
  241loPI   C5A 3851  10.782   9.545   8.103  0.1524 -0.0961  0.0862
  241loPI   C6A 3852  11.070   9.729   8.030 -0.3933  0.0372  0.1560
  241loPI   C1B 3853  11.193   8.922   9.205  0.0038 -0.1960  0.0360
  241loPI   C2B 3854  11.202   8.858   8.684  0.0007 -0.3217  0.3615
  241loPI   C3B 3855  10.895   8.846   8.334 -0.0863 -0.1778 -0.2964
  241loPI   C4B 3856  10.943   8.821   7.832  0.0827  0.1101 -0.2521
  242loPI    C1 3857   5.023  13.052  10.855 -0.0066  0.1194  0.1019
  242loPI    C2 3858   4.734  13.328  10.831 -0.1876 -0.0759 -0.0046
  242loPI    C3 3859   4.645  12.955  10.945 -0.0032 -0.1764 -0.1831
  242loPI   PO4 3860   5.111  13.034  10.613 -0.3269  0.2721  0.1642
  242loPI   GL1 3861   5.019  13.436  10.379 -0.2903  0.0181  0.2382
  242loPI   GL2 3862   5.255  13.520  10.333  0.0769  0.0663 -0.1786
  242loPI   C1A 3863   4.845  13.253  10.002 -0.2230 -0.1364  0.0272
  242loPI   C2A 3864   4.628  13.179   9.512 -0.0045  0.1094 -0.4109
  242loPI   C3A 3865   5.120  13.104   9.392  0.0221  0.1749  0.3457
  242loPI   C4A 3866   5.294  13.110   8.943 -0.0359 -0.0643  0.0148
  242loPI   C5A 3867   5.442  13.055   8.463 -0.4354  0.0025  0.1558
  242loPI   C6A 3868   5.177  13.090   8.032 -0.1590 -0.2352 -0.1174
  242loPI   C1B 3869   5.378  13.492   9.902 -0.1781  0.0235 -0.1700
  242loPI   C2B 3870   5.420  13.472   9.423 -0.0730 -0.1116  0.0172
  242loPI   C3B 3871   5.446  13.557   8.925 -0.0111  0.2039  0.0231
  242loPI   C4B 3872   5.505  13.606   8.433 -0.4733  0.1709 -0.2149
  243loPI    C1 3873   5.890  13.152  11.228 -0.1377  0.0337  0.1584
  243loPI    C2 3874   5.881  12.830  11.465  0.0579 -0.1110 -0.0274
  243loPI    C3 3875   5.999  13.183  11.612  0.1847 -0.2010  0.0891
  243loPI   PO4 3876   6.036  12.950  10.992 -0.2334 -0.2737  0.1302
  243loPI   GL1 3877   6.178  13.033  10.517 -0.0264  0.1417 -0.1954
  243loPI   GL2 3878   6.036  13.367  10.364 -0.1843  0.0102  0.3199
  243loPI   C1A 3879   6.582  13.115  10.273 -0.1399  0.1757  0.2370
  243loPI   C2A 3880   6.750  13.256   9.862 -0.1861  0.0407  0.0284
  243loPI   C3A 3881   6.703  13.317   9.480 -0.0801  0.2399 -0.2060
  243loPI   C4A 3882   6.612  13.231   9.077  0.2565  0.0958  0.0519
  243loPI   C5A 3883   6.562  13.221   8.629  0.1067 -0.1827  0.3606
  243loPI   C6A 3884   6.513  13.460   8.281  0.0737  0.0545  0.0241
  243loPI   C1B 3885   6.143  13.136   9.993  0.0610  0.0253 -0.0399
  243loPI   C2B 3886   6.246  13.192   9.669  0.1710  0.0382  0.0714
  243loPI   C3B 3887   6.207  13.186   9.347  0.1994 -0.0148 -0.0029
  243loPI   C4B 3888   6.158  12.974   8.901 -0.1931 -0.0173  0.3622
  244loPI    C1 3889   1.730   2.544  11.055 -0.0783 -0.1541  0.0146
  244loPI    C2 3890   1.397   2.677  11.233  0.1195  0.0735  0.2228
  244loPI    C3 3891   1.521   2.302  11.295 -0.0569  0.0115  0.2033
  244loPI   PO4 3892   1.710   2.519  10.792 -0.2572 -0.2953  0.0156
  244loPI   GL1 3893   1.538   2.574  10.432 -0.0272 -0.1634  0.2803
  244loPI   GL2 3894   1.286   2.485  10.347  0.2900 -0.1143 -0.2557
  244loPI   C1A 3895   1.768   2.613  10.098  0.0640 -0.2478 -0.0134
  244loPI   C2A 3896   2.056   2.817   9.816 -0.3395 -0.0300  0.0570
  244loPI   C3A 3897   2.101   2.888   9.298 -0.0989 -0.3152  0.1379
  244loPI   C4A 3898   2.256   2.813   8.863 -0.0574 -0.2312  0.0617
  244loPI   C5A 3899   2.403   2.664   8.379 -0.1699  0.0463 -0.0129
  244loPI   C6A 3900   2.708   2.742   8.061 -0.0275  0.1127  0.1595
  244loPI   C1B 3901   1.329   2.597   9.891 -0.4756  0.0761  0.2588
  244loPI   C2B 3902   1.690   2.571   9.540  0.1326 -0.0301 -0.1121
  244loPI   C3B 3903   1.853   2.553   9.094 -0.1535  0.1258  0.1197
  244loPI   C4B 3904   2.046   2.404   8.670 -0.1899 -0.2314 -0.2387
  245loPI    C1 3905   1.835   8.454  10.373 -0.0511  0.0496 -0.0422
  245loPI    C2 3906   1.616   8.603  10.672  0.0976 -0.0397  0.1128
  245loPI    C3 3907   1.969   8.432  10.749  0.1655 -0.0074 -0.1213
  245loPI   PO4 3908   1.598   8.336  10.225 -0.0836 -0.1498 -0.2781
  245loPI   GL1 3909   1.470   8.033   9.875  0.0644  0.0422  0.1530
  245loPI   GL2 3910   1.165   8.228  10.001 -0.0429  0.1115  0.3157
  245loPI   C1A 3911   1.388   7.915   9.463  0.3029  0.0674 -0.1041
  245loPI   C2A 3912   1.193   8.078   9.104  0.1233 -0.0128  0.1003
  245loPI   C3A 3913   1.307   8.186   8.650  0.2469 -0.1565 -0.1922
  245loPI   C4A 3914   1.148   8.226   8.265  0.3581 -0.0122  0.0724
  245loPI   C5A 3915   1.231   8.627   8.032 -0.1983  0.0655 -0.1982
  245loPI   C6A 3916   1.257   9.061   8.033  0.1979 -0.2003 -0.0677
  245loPI   C1B 3917   0.946   8.258   9.519  0.1077  0.3152  0.0871
  245loPI   C2B 3918   0.899   8.551   9.269 -0.1692 -0.3917  0.0340
  245loPI   C3B 3919   0.967   8.620   8.875 -0.0363  0.1328 -0.4621
  245loPI   C4B 3920   1.165   8.635   8.567 -0.0474  0.1423  0.1889
  246loPI    C1 3921  11.261  12.706  10.983 -0.0945  0.0197 -0.0171
  246loPI    C2 3922  11.650  12.614  11.000 -0.1276 -0.1179  0.0096
  246loPI    C3 3923  11.488  12.850  11.279 -0.0422  0.0237 -0.0590
  246loPI   PO4 3924  11.143  12.846  10.779 -0.1151 -0.0561 -0.0302
  246loPI   GL1 3925  11.290  12.878  10.371 -0.1476  0.2454  0.0273
  246loPI   GL2 3926  11.029  12.829  10.156 -0.1077 -0.1329  0.0769
  246loPI   C1A 3927  11.400  13.161  10.056  0.2453 -0.2531  0.0804
  246loPI   C2A 3928  11.346  13.248   9.605 -0.2774 -0.4451  0.1368
  246loPI   C3A 3929  11.336  13.260   9.226  0.0281  0.1586 -0.2369
  246loPI   C4A 3930  11.478  13.457   8.761  0.2003  0.0917  0.1159
  246loPI   C5A 3931  11.197  13.448   8.407  0.2197 -0.0735 -0.0598
  246loPI   C6A 3932  10.922  13.236   8.122  0.3006 -0.2773  0.0820
  246loPI   C1B 3933  10.941  12.662   9.706  0.0877  0.0040  0.2928
  246loPI   C2B 3934  11.002  12.525   9.315 -0.1869 -0.2092 -0.0025
  246loPI   C3B 3935  10.808  12.345   9.019 -0.0273  0.3124  0.0049
  246loPI   C4B 3936  10.423  12.376   8.752  0.1617  0.3247 -0.0629
  247loPI    C1 3937   7.451  11.958  10.734  0.0784  0.0654 -0.0362
  247loPI    C2 3938   7.221  11.724  10.963  0.0531 -0.0418 -0.1700
  247loPI    C3 3939   7.236  12.118  11.031 -0.0935 -0.0478 -0.0983
  247loPI   PO4 3940   7.348  11.849  10.499 -0.0447  0.3191 -0.2371
  247loPI   GL1 3941   7.108  11.896  10.159  0.1626 -0.2787  0.0419
  247loPI   GL2 3942   7.271  12.256  10.092  0.2961 -0.0751  0.0738
  247loPI   C1A 3943   6.916  11.909   9.815 -0.1517 -0.0869  0.2666
  247loPI   C2A 3944   7.012  11.748   9.469 -0.0031 -0.3002  0.0364
  247loPI   C3A 3945   6.877  11.699   9.057 -0.2590  0.2085 -0.2126
  247loPI   C4A 3946   6.912  11.734   8.667  0.3472 -0.1276  0.0436
  247loPI   C5A 3947   6.809  11.933   8.303  0.1165 -0.1297  0.1291
  247loPI   C6A 3948   6.596  12.312   8.164  0.1446 -0.0626  0.1591
  247loPI   C1B 3949   7.300  12.301   9.679  0.1371 -0.0672  0.0610
  247loPI   C2B 3950   7.467  12.499   9.262  0.0291 -0.0535  0.0337
  247loPI   C3B 3951   7.642  12.415   8.850  0.0470  0.1088 -0.0228
  247loPI   C4B 3952   7.645  12.098   8.553 -0.0639  0.0730 -0.4613
  248loPI    C1 3953   0.365  17.232  10.831 -0.0118  0.1069 -0.0582
  248loPI    C2 3954   0.606  17.142  11.138 -0.0242  0.0121 -0.0761
  248loPI    C3 3955   0.252  17.315  11.206 -0.0424 -0.0411 -0.0340
  248loPI   PO4 3956   0.419  17.059  10.661  0.1208  0.0081  0.3159
  248loPI   GL1 3957   0.233  16.985  10.343 -0.1902 -0.0775 -0.0661
  248loPI   GL2 3958  -0.030  16.795  10.261  0.1060 -0.0843  0.4269
  248loPI   C1A 3959   0.453  17.018   9.943 -0.0382  0.0239  0.0175
  248loPI   C2A 3960   0.483  16.855   9.507 -0.1787  0.3577 -0.0617
  248loPI   C3A 3961   0.501  16.773   8.949 -0.1402  0.1689 -0.1988
  248loPI   C4A 3962   0.551  16.650   8.525  0.0908 -0.1762  0.1212
  248loPI   C5A 3963   0.215  16.357   8.474 -0.0172  0.0356 -0.0144
  248loPI   C6A 3964   0.137  16.139   8.753 -0.1166  0.1413  0.3658
  248loPI   C1B 3965  -0.054  16.791   9.897 -0.0979  0.0819  0.0259
  248loPI   C2B 3966   0.032  16.629   9.666  0.0550  0.0999 -0.2221
  248loPI   C3B 3967   0.134  16.623   9.274 -0.0113 -0.2768  0.4241
  248loPI   C4B 3968  -0.131  16.547   8.822 -0.0606 -0.0461 -0.3079
  249loPI    C1 3969   6.130   4.366  10.603  0.3393  0.3976 -0.1006
  249loPI    C2 3970   5.928   4.565  10.885  0.1201  0.0303  0.0088
  249loPI    C3 3971   5.863   4.644  10.499  0.0633  0.1948  0.0512
  249loPI   PO4 3972   6.049   4.074  10.608  0.0786 -0.2457 -0.1113
  249loPI   GL1 3973   6.192   4.001  10.233  0.2168 -0.0363  0.2255
  249loPI   GL2 3974   5.883   4.180  10.054  0.2694 -0.0953  0.0254
  249loPI   C1A 3975   6.482   4.069   9.961  0.3026  0.2143 -0.0593
  249loPI   C2A 3976   6.770   3.937   9.646  0.3767  0.0514  0.0252
  249loPI   C3A 3977   7.016   4.075   9.347  0.0972  0.0661 -0.0407
  249loPI   C4A 3978   7.094   4.220   8.995  0.1584 -0.0738 -0.1410
  249loPI   C5A 3979   7.109   4.531   8.724 -0.1448 -0.1006  0.1195
  249loPI   C6A 3980   7.078   4.621   8.261  0.0984  0.1280 -0.2597
  249loPI   C1B 3981   5.580   4.120   9.774 -0.2527 -0.0893 -0.0987
  249loPI   C2B 3982   5.333   3.872   9.553  0.0956  0.0850  0.1180
  249loPI   C3B 3983   5.282   3.697   9.154 -0.1490  0.1445  0.1125
  249loPI   C4B 3984   4.976   3.460   8.917 -0.1934 -0.0794  0.0455
  250loPI    C1 3985   0.639   9.946  10.327  0.0346 -0.1668  0.1375
  250loPI    C2 3986   0.866  10.265  10.409 -0.0604 -0.1219  0.2268
  250loPI    C3 3987   0.602  10.133  10.679 -0.3639  0.0165  0.0038
  250loPI   PO4 3988   0.921   9.837  10.171 -0.2633 -0.2520 -0.1218
  250loPI   GL1 3989   1.127   9.535  10.050  0.1355  0.1486  0.0492
  250loPI   GL2 3990   1.181   9.284   9.941 -0.1193  0.1273 -0.0385
  250loPI   C1A 3991   1.221   9.699   9.626  0.2655  0.1042  0.1321
  250loPI   C2A 3992   1.216   9.497   9.249 -0.1414  0.1467 -0.2708
  250loPI   C3A 3993   1.212   9.497   8.796  0.0172  0.3720 -0.0262
  250loPI   C4A 3994   1.267   9.553   8.237  0.5702 -0.1527 -0.0532
  250loPI   C5A 3995   1.290   9.922   8.124 -0.0079 -0.0949  0.1194
  250loPI   C6A 3996   1.136  10.385   8.068 -0.2910  0.1531 -0.2145
  250loPI   C1B 3997   1.369   9.159   9.587  0.2749 -0.2352 -0.4443
  250loPI   C2B 3998   1.373   8.967   9.210 -0.0621 -0.2774  0.0530
  250loPI   C3B 3999   1.332   9.009   8.858 -0.0851  0.2010 -0.2830
  250loPI   C4B 4000   1.466   8.969   8.468 -0.0712 -0.0099  0.2516
  251loPI    C1 4001  11.596   1.525  10.473  0.2231 -0.1161  0.0618
  251loPI    C2 4002  11.646   1.775  10.782  0.1181 -0.1907  0.1397
  251loPI    C3 4003  11.287   1.611  10.712  0.0248  0.1772 -0.2892
  251loPI   PO4 4004  11.744   1.407  10.481 -0.1863 -0.1612  0.3120
  251loPI   GL1 4005  11.805   1.222  10.141 -0.0102  0.4682  0.2099
  251loPI   GL2 4006  11.574   1.411   9.919 -0.1168 -0.2064 -0.1121
  251loPI   C1A 4007  11.904   1.042   9.752  0.1262 -0.1164  0.2583
  251loPI   C2A 4008  12.094   0.942   9.379 -0.0219 -0.1401 -0.0162
  251loPI   C3A 4009  12.138   1.225   9.028  0.0157 -0.1480 -0.1234
  251loPI   C4A 4010  12.312   1.281   8.616  0.2137 -0.0297 -0.3404
  251loPI   C5A 4011  12.372   1.533   8.346 -0.3642 -0.0829  0.2872
  251loPI   C6A 4012  12.567   1.584   7.938 -0.1860  0.0377 -0.0593
  251loPI   C1B 4013  11.706   1.440   9.492  0.2452 -0.2412  0.3063
  251loPI   C2B 4014  11.616   1.504   9.151 -0.0381 -0.2152  0.3292
  251loPI   C3B 4015  11.337   1.306   8.754  0.2389  0.0617 -0.0422
  251loPI   C4B 4016  11.206   1.328   8.305 -0.0372  0.0750  0.0148
  252loPI    C1 4017  10.958  16.361  10.804 -0.1277  0.2483 -0.1820
  252loPI    C2 4018  10.664  16.438  11.064  0.1187 -0.0448  0.1954
  252loPI    C3 4019  11.031  16.351  11.197  0.3276  0.1010 -0.2642
  252loPI   PO4 4020  10.937  16.528  10.561 -0.0742 -0.3796  0.0307
  252loPI   GL1 4021  10.675  16.737  10.316  0.0578 -0.1582  0.0599
  252loPI   GL2 4022  10.955  16.873  10.116  0.0523  0.0409  0.1001
  252loPI   C1A 4023  10.495  16.628   9.952 -0.0116 -0.1693  0.1211
  252loPI   C2A 4024  10.551  16.392   9.548 -0.1795  0.0113 -0.1413
  252loPI   C3A 4025  10.524  16.160   9.238  0.2040  0.1877  0.1299
  252loPI   C4A 4026  10.573  16.178   8.775 -0.0973  0.3050 -0.1459
  252loPI   C5A 4027  10.832  16.002   8.447 -0.5449  0.0976 -0.1638
  252loPI   C6A 4028  11.190  16.083   8.112 -0.1772  0.1963 -0.0432
  252loPI   C1B 4029  10.868  16.776   9.654 -0.3342  0.1992 -0.0765
  252loPI   C2B 4030  10.714  16.804   9.173  0.1666  0.2215 -0.0823
  252loPI   C3B 4031  10.542  16.642   8.821  0.1565 -0.2130 -0.1453
  252loPI   C4B 4032  10.656  16.488   8.411 -0.0440  0.0095  0.0746
  253loPI    C1 4033   1.125  10.711  10.488 -0.0654  0.0258  0.1078
  253loPI    C2 4034   1.272  10.443  10.747 -0.0307  0.0268  0.0893
  253loPI    C3 4035   0.969  10.681  10.855 -0.0426 -0.0002  0.1154
  253loPI   PO4 4036   1.234  10.502  10.237  0.0226 -0.0545 -0.0084
  253loPI   GL1 4037   1.282  10.535   9.789 -0.0396 -0.0634  0.2122
  253loPI   GL2 4038   1.056  10.744   9.847  0.2285 -0.0671 -0.0214
  253loPI   C1A 4039   1.144  10.230   9.526 -0.5854  0.1970 -0.2419
  253loPI   C2A 4040   0.951  10.086   9.251 -0.1644  0.3116  0.0324
  253loPI   C3A 4041   1.016  10.343   9.042  0.0863 -0.3872 -0.0651
  253loPI   C4A 4042   1.298  10.497   8.726  0.3701 -0.1330  0.0491
  253loPI   C5A 4043   1.453  10.691   8.398  0.0303 -0.1937  0.0731
  253loPI   C6A 4044   1.636  10.743   8.073 -0.0065 -0.0050 -0.0476
  253loPI   C1B 4045   0.829  10.656   9.577 -0.2445  0.4509  0.0834
  253loPI   C2B 4046   0.807  10.738   9.233 -0.1491  0.1410 -0.1837
  253loPI   C3B 4047   0.767  10.698   8.808 -0.2254 -0.1609 -0.3423
  253loPI   C4B 4048   0.905  10.680   8.428 -0.3134 -0.0687  0.2270
  254loPI    C1 4049   2.105  10.855  10.420 -0.2643 -0.1059  0.0143
  254loPI    C2 4050   2.331  10.709  10.716 -0.2606  0.1069  0.1188
  254loPI    C3 4051   2.032  10.962  10.799 -0.0951  0.3731 -0.0803
  254loPI   PO4 4052   2.194  10.748  10.115 -0.0990  0.3786  0.1700
  254loPI   GL1 4053   2.378  10.902   9.833 -0.0689 -0.1942  0.1376
  254loPI   GL2 4054   2.536  10.658   9.721  0.1339  0.1340  0.0168
  254loPI   C1A 4055   2.417  11.273   9.599  0.0621 -0.1571  0.0856
  254loPI   C2A 4056   2.227  11.440   9.359  0.1306  0.1319  0.1818
  254loPI   C3A 4057   1.974  11.475   9.135  0.0535  0.1765  0.0002
  254loPI   C4A 4058   1.700  11.155   9.045  0.0421  0.1143  0.2550
  254loPI   C5A 4059   1.628  10.843   8.906  0.0091  0.1485 -0.0817
  254loPI   C6A 4060   1.791  10.441   8.983 -0.1523  0.0008 -0.0475
  254loPI   C1B 4061   2.709  10.639   9.343 -0.1769 -0.1782  0.1798
  254loPI   C2B 4062   2.778  10.731   8.929 -0.1261 -0.0876 -0.0856
  254loPI   C3B 4063   2.942  10.841   8.459  0.3641 -0.1957 -0.3047
  254loPI   C4B 4064   2.912  10.671   8.058  0.0175  0.1280  0.0860
  255loPI    C1 4065   4.567   5.940  10.866 -0.1532  0.0033 -0.0741
  255loPI    C2 4066   4.735   6.293  10.783  0.1643 -0.0077  0.4713
  255loPI    C3 4067   4.364   6.278  10.933 -0.0836  0.0521 -0.1095
  255loPI   PO4 4068   4.585   5.834  10.629  0.0014 -0.1452 -0.1439
  255loPI   GL1 4069   4.648   5.755  10.179  0.2263  0.1519 -0.0595
  255loPI   GL2 4070   4.377   5.860  10.075 -0.2775 -0.2564 -0.0283
  255loPI   C1A 4071   4.816   5.883   9.804  0.0071 -0.0764 -0.0145
  255loPI   C2A 4072   5.083   6.223   9.430  0.0491  0.1575  0.0885
  255loPI   C3A 4073   5.142   6.232   9.055  0.0730  0.1322 -0.0529
  255loPI   C4A 4074   5.223   6.165   8.636  0.0631  0.0992 -0.0583
  255loPI   C5A 4075   5.541   6.331   8.384  0.4766 -0.1934 -0.1748
  255loPI   C6A 4076   5.754   6.663   8.026 -0.2539  0.2016  0.0591
  255loPI   C1B 4077   4.475   5.733   9.578  0.1863 -0.0975 -0.0700
  255loPI   C2B 4078   4.277   5.756   9.114  0.2411 -0.0950  0.0019
  255loPI   C3B 4079   4.595   5.591   8.796 -0.0027 -0.1143  0.0770
  255loPI   C4B 4080   4.857   5.632   8.454  0.2731 -0.1271 -0.0547
  256loPI    C1 4081   9.426   7.884  10.854  0.0642 -0.2281  0.0483
  256loPI    C2 4082   9.189   8.126  11.067  0.1485 -0.0588 -0.0477
  256loPI    C3 4083   9.197   7.734  11.145  0.3753  0.0357  0.4404
  256loPI   PO4 4084   9.416   8.018  10.600  0.4474  0.2123 -0.1283
  256loPI   GL1 4085   9.215   8.015  10.179 -0.0246  0.0835 -0.0047
  256loPI   GL2 4086   9.203   8.328  10.232  0.0510  0.3332  0.2611
  256loPI   C1A 4087   9.168   7.699   9.805 -0.0347  0.2545  0.1870
  256loPI   C2A 4088   9.328   7.507   9.524 -0.1775  0.1781  0.0042
  256loPI   C3A 4089   9.274   7.201   9.237 -0.0476 -0.2256 -0.1325
  256loPI   C4A 4090   9.123   7.048   8.880  0.1038 -0.1659  0.1703
  256loPI   C5A 4091   8.908   6.823   8.611 -0.0325  0.1420 -0.2055
  256loPI   C6A 4092   8.722   6.770   8.185  0.1645  0.1078  0.1036
  256loPI   C1B 4093   9.039   8.357   9.796 -0.2144 -0.1811  0.0382
  256loPI   C2B 4094   8.860   8.390   9.427 -0.2250 -0.1536  0.3334
  256loPI   C3B 4095   8.802   8.229   9.002  0.2071  0.4781 -0.0782
  256loPI   C4B 4096   8.981   7.885   8.718  0.0557 -0.1713 -0.2307
  257loPI    C1 4097  13.459   2.038  10.682  0.1926 -0.2366 -0.1425
  257loPI    C2 4098  13.836   2.072  10.810  0.0981  0.0103  0.0806
  257loPI    C3 4099  13.603   1.778  10.949  0.0931  0.0866  0.2354
  257loPI   PO4 4100  13.464   2.073  10.383 -0.2302 -0.3257  0.1680
  257loPI   GL1 4101  13.340   1.747  10.060  0.0715 -0.1414 -0.1329
  257loPI   GL2 4102  13.610   2.047   9.871 -0.0193 -0.0405 -0.1322
  257loPI   C1A 4103  13.260   1.844   9.590  0.1497  0.2526 -0.0562
  257loPI   C2A 4104  13.557   1.922   9.269 -0.0979  0.0732  0.0386
  257loPI   C3A 4105  13.669   1.857   8.840  0.1341 -0.1065  0.1640
  257loPI   C4A 4106  13.765   1.615   8.537  0.0149 -0.0955  0.0366
  257loPI   C5A 4107  13.687   1.432   8.102  0.2016 -0.3408  0.1067
  257loPI   C6A 4108  13.811   1.345   7.809  0.0678 -0.0360  0.0050
  257loPI   C1B 4109  13.993   2.131   9.569 -0.3986 -0.1022 -0.2071
  257loPI   C2B 4110  14.059   2.056   9.157  0.0907 -0.0327 -0.0417
  257loPI   C3B 4111  14.079   2.116   8.699  0.3536 -0.2890 -0.2150
  257loPI   C4B 4112  13.966   2.159   8.362 -0.3626 -0.1236 -0.2601
  258loPI    C1 4113   2.574  12.058  10.354 -0.4979 -0.0896  0.1626
  258loPI    C2 4114   2.551  11.802  10.048 -0.0277  0.0648 -0.0106
  258loPI    C3 4115   2.474  11.677  10.420 -0.2292 -0.2177 -0.1435
  258loPI   PO4 4116   2.808  12.257  10.294  0.0297 -0.3854 -0.0854
  258loPI   GL1 4117   2.876  12.608  10.000  0.1774  0.0794 -0.1100
  258loPI   GL2 4118   2.579  12.817  10.120 -0.2315  0.2076 -0.1633
  258loPI   C1A 4119   2.943  12.548   9.553  0.1180 -0.1855 -0.1810
  258loPI   C2A 4120   3.028  12.490   9.125 -0.1831 -0.1291  0.0834
  258loPI   C3A 4121   3.139  12.534   8.685  0.0880  0.0913 -0.0916
  258loPI   C4A 4122   3.304  12.432   8.273 -0.0746 -0.3479  0.0137
  258loPI   C5A 4123   3.651  12.284   8.152  0.1957 -0.0331  0.3061
  258loPI   C6A 4124   4.018  12.065   8.185 -0.1869  0.1795 -0.0154
  258loPI   C1B 4125   2.448  12.692   9.706 -0.3943  0.0737 -0.0143
  258loPI   C2B 4126   2.547  12.607   9.223 -0.0605 -0.0987  0.0632
  258loPI   C3B 4127   2.606  12.446   8.836  0.2093  0.2055  0.0576
  258loPI   C4B 4128   2.631  12.187   8.533  0.0306 -0.0155 -0.0331
  259loPI    C1 4129   6.835  11.655  10.634 -0.2385 -0.3512 -0.1827
  259loPI    C2 4130   6.531  11.901  10.719 -0.0831 -0.1640 -0.1614
  259loPI    C3 4131   6.685  11.666  11.005  0.1083  0.0963 -0.0467
  259loPI   PO4 4132   6.723  11.582  10.308 -0.3068 -0.0031 -0.2238
  259loPI   GL1 4133   6.983  11.458   9.939  0.1621 -0.0139  0.0926
  259loPI   GL2 4134   6.945  11.054   9.985 -0.3863 -0.0342 -0.1999
  259loPI   C1A 4135   7.396  11.776   9.758  0.0207 -0.0289  0.2168
  259loPI   C2A 4136   7.458  11.965   9.337 -0.0203  0.0890  0.0632
  259loPI   C3A 4137   7.359  12.043   8.937 -0.1225  0.3252 -0.3126
  259loPI   C4A 4138   7.110  12.262   8.563 -0.0253  0.3281 -0.0220
  259loPI   C5A 4139   6.810  12.630   8.465 -0.0917  0.2001  0.0998
  259loPI   C6A 4140   6.920  13.049   8.328 -0.0846 -0.3408 -0.2328
  259loPI   C1B 4141   6.988  10.960   9.612 -0.0527  0.0019  0.2169
  259loPI   C2B 4142   7.128  10.931   9.234  0.0992 -0.3272 -0.0206
  259loPI   C3B 4143   7.220  10.787   8.828 -0.1697  0.0783 -0.0395
  259loPI   C4B 4144   7.237  10.539   8.430  0.0363  0.0477 -0.5889
  260loPI    C1 4145   3.614  14.326  10.565  0.1643 -0.0048 -0.0389
  260loPI    C2 4146   3.669  14.258  10.956 -0.0610 -0.3723 -0.0666
  260loPI    C3 4147   3.613  14.632  10.823 -0.0250 -0.2493  0.2568
  260loPI   PO4 4148   3.452  14.213  10.421  0.0267  0.0840  0.0842
  260loPI   GL1 4149   3.180  14.215  10.157  0.3981 -0.4882 -0.0983
  260loPI   GL2 4150   3.149  14.433   9.890  0.2295  0.1973  0.0904
  260loPI   C1A 4151   3.242  13.922   9.708  0.0544  0.0909 -0.0805
  260loPI   C2A 4152   3.384  13.843   9.274 -0.0040  0.2316 -0.1638
  260loPI   C3A 4153   3.350  13.796   8.856  0.2112 -0.0182  0.0141
  260loPI   C4A 4154   2.974  13.564   8.628 -0.1638  0.0385  0.2222
  260loPI   C5A 4155   2.822  13.398   8.361 -0.0723 -0.0070  0.3398
  260loPI   C6A 4156   2.666  13.069   8.168  0.0963 -0.1959 -0.1161
  260loPI   C1B 4157   3.233  14.407   9.493 -0.1637  0.1040 -0.3493
  260loPI   C2B 4158   3.467  14.315   9.173  0.2540 -0.3293  0.1703
  260loPI   C3B 4159   3.458  14.272   8.739  0.1075 -0.1361 -0.3541
  260loPI   C4B 4160   3.487  14.530   8.354  0.0668  0.1261  0.3699
  261loPI    C1 4161  16.851   5.259  11.054 -0.2301 -0.0486 -0.0491
  261loPI    C2 4162  16.531   5.348  10.831  0.0894  0.3558 -0.3626
  261loPI    C3 4163  16.649   5.597  11.122 -0.1055  0.0128  0.0207
  261loPI   PO4 4164  17.038   5.150  10.869  0.1145 -0.1865 -0.0286
  261loPI   GL1 4165  17.129   5.163  10.513 -0.4225  0.1230 -0.1415
  261loPI   GL2 4166  17.357   4.974  10.306  0.1773 -0.2904  0.3186
  261loPI   C1A 4167  17.271   5.498  10.215 -0.1538  0.0727 -0.0751
  261loPI   C2A 4168  17.224   5.463   9.813  0.4429  0.0557 -0.0790
  261loPI   C3A 4169  17.222   5.610   9.423 -0.2571 -0.0273 -0.2636
  261loPI   C4A 4170  17.117   5.733   8.936  0.2116 -0.1034 -0.1502
  261loPI   C5A 4171  17.133   5.743   8.519  0.0823 -0.1342 -0.0578
  261loPI   C6A 4172  17.029   6.181   8.382 -0.1086  0.0973 -0.1366
  261loPI   C1B 4173  17.234   4.965   9.832  0.2161  0.0758  0.0534
  261loPI   C2B 4174  17.208   4.944   9.403 -0.0097 -0.0136 -0.2310
  261loPI   C3B 4175  17.235   4.919   8.951 -0.0717 -0.0280 -0.5500
  261loPI   C4B 4176  17.056   5.072   8.638 -0.0494  0.0687 -0.2596
  262loPI    C1 4177   0.909   1.827  10.681  0.0392 -0.1272 -0.0001
  262loPI    C2 4178   0.705   1.847  11.024  0.0827  0.0182  0.0182
  262loPI    C3 4179   1.088   1.961  11.012  0.1179 -0.1049 -0.0514
  262loPI   PO4 4180   0.868   1.625  10.507  0.1361 -0.0456  0.2084
  262loPI   GL1 4181   0.622   1.489  10.190 -0.2466 -0.1861  0.2401
  262loPI   GL2 4182   0.629   1.788  10.071 -0.2426 -0.1515  0.2032
  262loPI   C1A 4183   0.868   1.428   9.820  0.1165  0.0967  0.1014
  262loPI   C2A 4184   1.016   1.472   9.322 -0.0932  0.1423 -0.0637
  262loPI   C3A 4185   1.062   1.506   8.892 -0.0251 -0.3837 -0.2518
  262loPI   C4A 4186   1.161   1.308   8.528  0.0875  0.1349  0.2023
  262loPI   C5A 4187   1.002   1.074   8.247  0.2018 -0.2651 -0.1340
  262loPI   C6A 4188   0.992   0.720   8.311 -0.0888 -0.0370 -0.2564
  262loPI   C1B 4189   0.905   1.912   9.630  0.5205 -0.3376 -0.2282
  262loPI   C2B 4190   0.994   1.990   9.258 -0.1178  0.1369  0.0983
  262loPI   C3B 4191   0.816   1.926   8.874 -0.1945  0.2742  0.1862
  262loPI   C4B 4192   1.172   1.857   8.604 -0.4738  0.2131 -0.1000
  263loPI    C1 4193  13.171  16.543  10.780  0.0185 -0.1421 -0.0701
  263loPI    C2 4194  13.523  16.520  10.969 -0.0106 -0.1061 -0.0114
  263loPI    C3 4195  13.183  16.457  11.170 -0.0619  0.2729  0.0286
  263loPI   PO4 4196  13.215  16.392  10.512  0.0950 -0.2001 -0.2267
  263loPI   GL1 4197  13.371  16.460  10.097 -0.0934  0.3602  0.1678
  263loPI   GL2 4198  13.471  16.649   9.934 -0.0469 -0.0403  0.2216
  263loPI   C1A 4199  13.273  16.126   9.798 -0.1391  0.2319  0.1076
  263loPI   C2A 4200  13.121  15.879   9.443 -0.2082 -0.2269  0.2211
  263loPI   C3A 4201  13.119  15.776   8.965  0.1954  0.0942 -0.1140
  263loPI   C4A 4202  13.171  15.557   8.656 -0.3176 -0.1505 -0.0315
  263loPI   C5A 4203  12.904  15.693   8.301  0.2167 -0.1777  0.0789
  263loPI   C6A 4204  12.897  15.930   7.915 -0.0840 -0.0213 -0.3537
  263loPI   C1B 4205  13.516  16.585   9.477  0.1553  0.0117  0.1157
  263loPI   C2B 4206  13.577  16.643   8.990 -0.1536  0.1819  0.1324
  263loPI   C3B 4207  13.683  16.431   8.608 -0.1027  0.2514  0.1656
  263loPI   C4B 4208  13.501  16.421   8.190 -0.1543 -0.1800 -0.1884
  264loPI    C1 4209   5.848   7.513  10.777  0.1836  0.1218 -0.1989
  264loPI    C2 4210   5.619   7.789  10.954 -0.2223 -0.2380 -0.1467
  264loPI    C3 4211   5.758   7.480  11.165  0.3071 -0.0351 -0.1828
  264loPI   PO4 4212   6.008   7.657  10.634  0.2315  0.0183 -0.2484
  264loPI   GL1 4213   6.200   7.644  10.242  0.3018  0.3044 -0.3185
  264loPI   GL2 4214   6.484   7.500  10.392  0.3155  0.1699 -0.2801
  264loPI   C1A 4215   6.176   7.723   9.828 -0.0243  0.1895  0.0388
  264loPI   C2A 4216   6.038   7.661   9.399 -0.0439  0.1105  0.0412
  264loPI   C3A 4217   5.977   7.707   9.007 -0.3073 -0.3811 -0.1880
  264loPI   C4A 4218   6.082   7.356   8.605  0.2628 -0.1648 -0.1588
  264loPI   C5A 4219   6.349   7.383   8.298 -0.0333  0.2823  0.2444
  264loPI   C6A 4220   6.544   7.161   7.924 -0.1666 -0.2671 -0.0736
  264loPI   C1B 4221   6.667   7.769  10.131 -0.1121  0.0611  0.1289
  264loPI   C2B 4222   6.607   7.945   9.717 -0.0075  0.1252  0.0875
  264loPI   C3B 4223   6.424   7.930   9.280 -0.0470  0.0639  0.0610
  264loPI   C4B 4224   6.465   8.173   8.833 -0.3880 -0.2213 -0.0045
  265loPI    C1 4225  16.405   4.195  10.367 -0.1568  0.1026 -0.2171
  265loPI    C2 4226  16.379   4.375  10.723 -0.2894  0.0409 -0.1949
  265loPI    C3 4227  16.723   4.385  10.518 -0.0968 -0.2406  0.1034
  265loPI   PO4 4228  16.312   3.975  10.399 -0.0157 -0.0265  0.2179
  265loPI   GL1 4229  16.300   3.763  10.111 -0.0533  0.0362 -0.1538
  265loPI   GL2 4230  15.984   3.797   9.966 -0.1629 -0.1923  0.0078
  265loPI   C1A 4231  16.617   3.839   9.736  0.1652  0.4981  0.1299
  265loPI   C2A 4232  16.669   3.926   9.376 -0.2430  0.0102  0.3024
  265loPI   C3A 4233  16.847   3.949   8.833 -0.0314 -0.1972 -0.0259
  265loPI   C4A 4234  16.828   3.999   8.275 -0.0097 -0.0996 -0.2004
  265loPI   C5A 4235  16.948   4.368   8.056  0.1574  0.0250 -0.0797
  265loPI   C6A 4236  17.216   4.761   8.188  0.0289 -0.1648  0.1202
  265loPI   C1B 4237  16.146   3.930   9.552 -0.1359  0.2597  0.2521
  265loPI   C2B 4238  16.245   3.940   9.092  0.0056 -0.1587  0.1818
  265loPI   C3B 4239  16.165   3.895   8.620 -0.0582  0.0589  0.1106
  265loPI   C4B 4240  15.995   3.616   8.440  0.0540 -0.0090  0.1496
  266loPI    C1 4241   0.525  15.790  11.069  0.0579 -0.0644  0.0285
  266loPI    C2 4242   0.624  15.992  11.400  0.0967 -0.0452  0.0052
  266loPI    C3 4243   0.366  15.687  11.421 -0.0021  0.0396  0.0321
  266loPI   PO4 4244   0.677  15.918  10.802  0.1168  0.0943 -0.0049
  266loPI   GL1 4245   0.865  15.793  10.451 -0.1872  0.0384  0.0639
  266loPI   GL2 4246   1.231  15.801  10.406 -0.1374 -0.1178 -0.0168
  266loPI   C1A 4247   0.642  16.038  10.194 -0.1536  0.0965 -0.0810
  266loPI   C2A 4248   0.440  16.345   9.737  0.1875  0.3945 -0.0489
  266loPI   C3A 4249   0.439  16.237   9.208 -0.1312 -0.0659 -0.1818
  266loPI   C4A 4250   0.591  16.223   8.802  0.2490  0.1324  0.0278
  266loPI   C5A 4251   0.795  16.236   8.402  0.2302  0.0568 -0.0023
  266loPI   C6A 4252   0.728  16.551   7.994  0.1414  0.2595  0.0841
  266loPI   C1B 4253   1.274  15.703   9.945  0.3642 -0.2262  0.1257
  266loPI   C2B 4254   1.161  15.795   9.612 -0.2225  0.1999 -0.0615
  266loPI   C3B 4255   1.027  16.000   9.225 -0.1735 -0.2741 -0.0617
  266loPI   C4B 4256   1.232  16.121   8.819 -0.2945 -0.1254  0.1117
  267loPI    C1 4257  17.441  17.460  10.736 -0.1725  0.0854 -0.1191
  267loPI    C2 4258  17.118  17.241  10.647 -0.2196  0.0747  0.0736
  267loPI    C3 4259  17.389  17.101  10.905  0.0536 -0.0130 -0.2538
  267loPI   PO4 4260  17.560  17.559  10.458  0.0550 -0.0334  0.0793
  267loPI   GL1 4261  17.485  17.888  10.110 -0.0114 -0.0291 -0.1694
  267loPI   GL2 4262  17.238  18.123  10.016 -0.0590  0.1047  0.0378
  267loPI   C1A 4263  17.563  17.605   9.851 -0.3479 -0.3579 -0.1279
  267loPI   C2A 4264  17.606  17.593   9.420  0.1182  0.1760 -0.2492
  267loPI   C3A 4265  17.734  17.554   8.944 -0.4462  0.1081 -0.2611
  267loPI   C4A 4266  17.635  17.530   8.527  0.4706  0.1951  0.2112
  267loPI   C5A 4267  17.367  17.679   8.200 -0.3620  0.3027  0.0631
  267loPI   C6A 4268  17.312  17.676   7.718  0.0830 -0.0417  0.0717
  267loPI   C1B 4269  17.298  17.984   9.500 -0.0552 -0.0627 -0.0293
  267loPI   C2B 4270  17.403  17.949   9.114 -0.0934 -0.1075  0.0297
  267loPI   C3B 4271  17.305  17.859   8.679  0.0860  0.0869  0.0659
  267loPI   C4B 4272  16.976  18.110   8.380  0.1121  0.1733 -0.1918
  268loPI    C1 4273  16.226  12.517  10.307  0.0093 -0.1570  0.0060
  268loPI    C2 4274  16.297  12.820  10.558  0.0992 -0.1994  0.0324
  268loPI    C3 4275  16.061  12.517  10.671 -0.2009 -0.0149 -0.0875
  268loPI   PO4 4276  16.141  12.561  10.097  0.1582 -0.0102 -0.1861
  268loPI   GL1 4277  16.270  12.725   9.737  0.0660  0.0610  0.1157
  268loPI   GL2 4278  16.038  12.701   9.493 -0.0770 -0.1949 -0.0637
  268loPI   C1A 4279  16.551  12.435   9.493  0.1721  0.0077 -0.2906
  268loPI   C2A 4280  16.626  12.496   9.054 -0.3303  0.2686 -0.0443
  268loPI   C3A 4281  16.603  12.212   8.656  0.3145 -0.1414  0.0514
  268loPI   C4A 4282  16.303  12.126   8.369 -0.4797 -0.0299 -0.1464
  268loPI   C5A 4283  16.238  11.655   8.249 -0.1492  0.2409 -0.1625
  268loPI   C6A 4284  16.666  11.434   8.045  0.1001 -0.1586 -0.4339
  268loPI   C1B 4285  16.159  12.679   8.997  0.2724 -0.2072  0.0333
  268loPI   C2B 4286  16.058  12.442   8.653  0.0933  0.1027  0.0583
  268loPI   C3B 4287  15.845  12.309   8.257 -0.0589 -0.1146 -0.3044
  268loPI   C4B 4288  15.727  12.472   7.925 -0.0129  0.1720 -0.0664
  269loPI    C1 4289  17.177   1.390  10.476 -0.0195  0.2622  0.2373
  269loPI    C2 4290  16.859   1.242  10.669  0.0966 -0.1872  0.0943
  269loPI    C3 4291  17.225   1.198  10.824  0.1393 -0.1082  0.0166
  269loPI   PO4 4292  17.136   1.313  10.266 -0.2376 -0.1232  0.0546
  269loPI   GL1 4293  17.333   1.378   9.921 -0.0797 -0.1511 -0.1784
  269loPI   GL2 4294  17.298   1.621   9.745 -0.0899 -0.1437 -0.3797
  269loPI   C1A 4295  17.521   1.216   9.491 -0.4729 -0.4219  0.0806
  269loPI   C2A 4296  17.600   1.084   9.027  0.2919  0.0366  0.2079
  269loPI   C3A 4297  17.588   1.200   8.623 -0.0347  0.2339  0.3118
  269loPI   C4A 4298  17.874   1.008   8.262 -0.2148 -0.0340  0.3248
  269loPI   C5A 4299  18.186   0.703   8.179 -0.1537  0.1247 -0.1537
  269loPI   C6A 4300  18.612   0.434   8.251 -0.2178 -0.0234  0.0760
  269loPI   C1B 4301  17.312   1.914   9.359 -0.0402  0.0607  0.0831
  269loPI   C2B 4302  17.601   2.030   9.038  0.0580 -0.1640 -0.1843
  269loPI   C3B 4303  17.658   2.187   8.728 -0.2005  0.0718  0.2875
  269loPI   C4B 4304  17.577   2.418   8.258  0.1121 -0.1615  0.1544
  270loPI    C1 4305   8.467   7.746  10.852  0.1164 -0.1588 -0.0550
  270loPI    C2 4306   8.702   8.022  11.021 -0.1377 -0.0325  0.0976
  270loPI    C3 4307   8.612   7.688  11.221 -0.1547 -0.0430  0.0725
  270loPI   PO4 4308   8.511   7.893  10.562  0.1374  0.1175  0.0537
  270loPI   GL1 4309   8.376   7.766  10.200 -0.0708  0.1559  0.1113
  270loPI   GL2 4310   8.720   7.708  10.093 -0.0259  0.0893  0.2562
  270loPI   C1A 4311   8.423   7.537   9.757  0.0646 -0.0871  0.1608
  270loPI   C2A 4312   8.133   7.408   9.395 -0.2246 -0.0274 -0.1638
  270loPI   C3A 4313   8.176   7.425   8.909 -0.0594 -0.2167 -0.1041
  270loPI   C4A 4314   8.137   7.484   8.421  0.0606 -0.1076 -0.1065
  270loPI   C5A 4315   7.890   7.456   8.001  0.1630  0.1410  0.3113
  270loPI   C6A 4316   7.769   7.659   7.677  0.0565  0.0157 -0.0483
  270loPI   C1B 4317   8.719   7.947   9.701 -0.0939  0.0354  0.2693
  270loPI   C2B 4318   8.982   7.841   9.327  0.2605  0.0416  0.0061
  270loPI   C3B 4319   9.291   7.616   9.002 -0.0352 -0.2593  0.0428
  270loPI   C4B 4320   9.107   7.413   8.547  0.2557  0.0705 -0.0310
  271loPI    C1 4321   0.143   9.979  10.442 -0.1850  0.0148  0.0070
  271loPI    C2 4322   0.144  10.191  10.781 -0.1528 -0.1383  0.1040
  271loPI    C3 4323   0.212   9.797  10.791 -0.1933 -0.1510 -0.0764
  271loPI   PO4 4324  -0.076  10.155  10.275  0.0677  0.1838  0.5245
  271loPI   GL1 4325   0.042  10.465   9.937 -0.0426 -0.0648  0.0760
  271loPI   GL2 4326   0.280  10.164   9.830 -0.1273 -0.0076  0.0212
  271loPI   C1A 4327   0.327  10.649   9.580 -0.1220 -0.0640  0.0387
  271loPI   C2A 4328   0.249  10.731   9.260  0.0534  0.2872 -0.1136
  271loPI   C3A 4329   0.190  10.697   8.902 -0.2685 -0.3589  0.4275
  271loPI   C4A 4330   0.196  10.836   8.512 -0.1225 -0.2306 -0.1311
  271loPI   C5A 4331   0.375  11.153   8.171  0.0235 -0.1576 -0.0510
  271loPI   C6A 4332   0.560  11.192   7.770  0.1236 -0.3823  0.0331
  271loPI   C1B 4333   0.526  10.256   9.424 -0.3178 -0.1237  0.0238
  271loPI   C2B 4334   0.546  10.273   9.006 -0.0554 -0.3589 -0.2589
  271loPI   C3B 4335   0.435  10.390   8.547 -0.3033  0.0213 -0.2069
  271loPI   C4B 4336   0.520  10.596   8.176  0.0149  0.0789  0.0484
  272loPI    C1 4337  10.324   1.358  10.610 -0.1853  0.1490 -0.1736
  272loPI    C2 4338  10.110   1.123  10.853 -0.1220 -0.0506 -0.3079
  272loPI    C3 4339  10.208   1.494  10.968 -0.4309 -0.0015 -0.1941
  272loPI   PO4 4340  10.220   1.273  10.303 -0.1487 -0.2389  0.0562
  272loPI   GL1 4341  10.091   1.079   9.915 -0.0566  0.1911 -0.2591
  272loPI   GL2 4342   9.790   0.956   9.881  0.1496 -0.2891  0.1584
  272loPI   C1A 4343  10.157   0.932   9.452  0.0781  0.2391  0.1593
  272loPI   C2A 4344  10.093   0.998   8.987  0.1482  0.2382 -0.2315
  272loPI   C3A 4345  10.194   1.102   8.654  0.1054 -0.0042  0.1136
  272loPI   C4A 4346  10.388   1.143   8.325 -0.2409 -0.4152  0.0027
  272loPI   C5A 4347  10.300   1.292   7.907 -0.0688  0.0186 -0.1906
  272loPI   C6A 4348  10.348   1.363   7.534  0.2177  0.1446  0.2730
  272loPI   C1B 4349   9.655   1.133   9.439  0.1926 -0.1163 -0.0942
  272loPI   C2B 4350   9.559   1.321   9.055 -0.1044  0.0856 -0.0645
  272loPI   C3B 4351   9.492   1.502   8.740  0.1934  0.1453  0.1157
  272loPI   C4B 4352   9.593   1.827   8.550 -0.0453  0.1786  0.2774
  273loPI    C1 4353   0.037  15.224  10.353  0.0666  0.0109 -0.0075
  273loPI    C2 4354   0.319  15.104  10.610 -0.0167 -0.2899 -0.0527
  273loPI    C3 4355   0.424  15.260  10.257  0.0987  0.1502  0.1693
  273loPI   PO4 4356  -0.163  15.016  10.306 -0.0064 -0.0137  0.1231
  273loPI   GL1 4357  -0.441  15.026   9.956  0.1160  0.1805  0.0849
  273loPI   GL2 4358  -0.030  15.097   9.835 -0.2008  0.0949 -0.1827
  273loPI   C1A 4359  -0.435  15.073   9.565  0.0305  0.2887  0.0285
  273loPI   C2A 4360  -0.260  15.186   9.114  0.1463  0.0619  0.0344
  273loPI   C3A 4361  -0.215  15.229   8.694 -0.1200  0.0905  0.0169
  273loPI   C4A 4362  -0.388  15.336   8.200  0.2713  0.1945 -0.1454
  273loPI   C5A 4363  -0.536  15.378   7.822  0.0963  0.0909 -0.1177
  273loPI   C6A 4364  -0.733  15.623   7.435 -0.2001 -0.0983 -0.2181
  273loPI   C1B 4365   0.254  15.409   9.811  0.1352  0.0511 -0.0595
  273loPI   C2B 4366   0.395  15.764   9.815  0.1738  0.2091  0.0595
  273loPI   C3B 4367   0.803  16.037   9.701 -0.0028 -0.1410 -0.0037
  273loPI   C4B 4368   1.082  16.156   9.978 -0.0212  0.3669 -0.0748
  274loPI    C1 4369  14.632  10.602  10.775 -0.1635  0.1102  0.1845
  274loPI    C2 4370  14.991  10.427  10.795 -0.3509 -0.3244 -0.1059
  274loPI    C3 4371  14.813  10.556  11.129  0.0775 -0.0875  0.0387
  274loPI   PO4 4372  14.522  10.791  10.530 -0.1160 -0.0152  0.0893
  274loPI   GL1 4373  14.364  11.073  10.122  0.3019 -0.0623  0.0153
  274loPI   GL2 4374  14.284  11.425  10.024 -0.1863 -0.2654  0.1019
  274loPI   C1A 4375  14.440  10.785   9.769 -0.2920 -0.0761  0.1714
  274loPI   C2A 4376  14.402  10.734   9.319  0.0691  0.0394 -0.0134
  274loPI   C3A 4377  14.410  10.715   8.849 -0.2378 -0.0702  0.2635
  274loPI   C4A 4378  14.305  10.721   8.496 -0.1891 -0.0595  0.0442
  274loPI   C5A 4379  14.185  10.524   8.073  0.1082  0.2643 -0.1888
  274loPI   C6A 4380  14.511  10.189   7.854 -0.0972 -0.2759 -0.3081
  274loPI   C1B 4381  14.389  11.354   9.665  0.2059 -0.1808 -0.1347
  274loPI   C2B 4382  14.521  11.241   9.259  0.1604 -0.0615 -0.3098
  274loPI   C3B 4383  14.453  11.282   8.759  0.0546 -0.0201  0.0235
  274loPI   C4B 4384  14.284  11.205   8.383  0.0304  0.1065  0.1308
  275loPI    C1 4385  17.450  16.676  10.703 -0.1057  0.1077 -0.0048
  275loPI    C2 4386  17.312  16.301  10.692  0.1499  0.0079  0.1106
  275loPI    C3 4387  17.351  16.488  11.043 -0.0247  0.1620  0.0491
  275loPI   PO4 4388  17.231  16.814  10.440  0.0708  0.0952  0.5304
  275loPI   GL1 4389  17.151  16.627  10.085  0.0405  0.0103 -0.0348
  275loPI   GL2 4390  17.249  16.346  10.101 -0.2666  0.0226  0.0965
  275loPI   C1A 4391  17.108  16.681   9.583 -0.0779  0.0394  0.0003
  275loPI   C2A 4392  17.202  16.535   9.135 -0.0819 -0.0679  0.0512
  275loPI   C3A 4393  17.388  16.532   8.685 -0.2526  0.4082  0.2365
  275loPI   C4A 4394  17.289  16.537   8.251  0.0914 -0.0766 -0.1737
  275loPI   C5A 4395  16.875  16.654   8.075  0.2748  0.1662  0.0048
  275loPI   C6A 4396  16.492  16.558   8.114  0.2969 -0.2616  0.2175
  275loPI   C1B 4397  17.574  16.380   9.770 -0.3332  0.2419  0.1481
  275loPI   C2B 4398  17.627  16.343   9.264  0.4311  0.0781  0.0894
  275loPI   C3B 4399  17.684  16.078   8.827 -0.0539  0.0467  0.1365
  275loPI   C4B 4400  17.909  15.737   8.595 -0.0551  0.0339  0.0179
  276loPI    C1 4401   0.329  14.153  10.833  0.1663 -0.0833  0.2749
  276loPI    C2 4402   0.570  14.471  10.864  0.0090  0.0535  0.1158
  276loPI    C3 4403   0.352  14.353  11.179  0.2402 -0.0381  0.2440
  276loPI   PO4 4404   0.153  14.166  10.599  0.2450 -0.1074  0.2828
  276loPI   GL1 4405  -0.085  14.249  10.188  0.2480 -0.0168  0.0008
  276loPI   GL2 4406  -0.127  14.595   9.976 -0.1413  0.0158  0.2174
  276loPI   C1A 4407  -0.170  14.143   9.705 -0.1920 -0.2986 -0.1670
  276loPI   C2A 4408  -0.148  13.861   9.274 -0.1464  0.0110  0.1643
  276loPI   C3A 4409  -0.019  13.688   8.877  0.0606  0.1871 -0.0282
  276loPI   C4A 4410   0.068  13.943   8.505 -0.1635  0.1459  0.1876
  276loPI   C5A 4411   0.009  13.848   8.115  0.0297  0.1585 -0.0898
  276loPI   C6A 4412  -0.169  13.937   7.753 -0.0438 -0.0090  0.1214
  276loPI   C1B 4413  -0.399  14.565   9.581  0.0720 -0.1104 -0.1818
  276loPI   C2B 4414  -0.216  14.395   9.302 -0.0477  0.3566 -0.1429
  276loPI   C3B 4415  -0.168  14.185   8.874  0.1920  0.1156 -0.5117
  276loPI   C4B 4416   0.011  14.454   8.421  0.0804 -0.1106 -0.0118
  277loPI    C1 4417   6.092  15.471  10.498  0.3090 -0.2934  0.1621
  277loPI    C2 4418   5.893  15.365  10.828  0.0489  0.0178  0.1100
  277loPI    C3 4419   5.921  15.751  10.727  0.2139 -0.0670 -0.1785
  277loPI   PO4 4420   6.371  15.368  10.574 -0.1869 -0.0331  0.1959
  277loPI   GL1 4421   6.597  15.466  10.287 -0.0678  0.2722 -0.0997
  277loPI   GL2 4422   6.944  15.555  10.233  0.0856 -0.2461 -0.0750
  277loPI   C1A 4423   6.452  15.162   9.962  0.0644 -0.1820 -0.1008
  277loPI   C2A 4424   6.277  15.091   9.596 -0.2124  0.2499 -0.0647
  277loPI   C3A 4425   6.314  15.226   9.181 -0.2423  0.1767  0.1500
  277loPI   C4A 4426   6.525  15.333   8.883  0.2031 -0.1249 -0.0201
  277loPI   C5A 4427   6.437  15.666   8.568 -0.2292  0.0428 -0.1755
  277loPI   C6A 4428   6.402  15.920   8.261 -0.0855  0.0411  0.0379
  277loPI   C1B 4429   6.835  15.728   9.969  0.3649  0.0380 -0.1702
  277loPI   C2B 4430   6.700  15.957   9.664  0.2724 -0.0044 -0.0178
  277loPI   C3B 4431   6.604  16.157   9.352 -0.4322  0.0141 -0.2317
  277loPI   C4B 4432   6.624  16.135   8.959  0.0119  0.3658  0.0363
  278loPI    C1 4433  15.212   9.585  10.295  0.0934  0.2562 -0.0108
  278loPI    C2 4434  15.393   9.412  10.606  0.0364 -0.0539 -0.1467
  278loPI    C3 4435  15.610   9.608  10.333  0.1143 -0.0066 -0.0515
  278loPI   PO4 4436  15.010   9.364  10.139  0.1410 -0.3462 -0.0058
  278loPI   GL1 4437  14.955   9.423   9.634  0.1086 -0.1615 -0.0227
  278loPI   GL2 4438  14.851   9.779   9.840 -0.3628 -0.0810 -0.1756
  278loPI   C1A 4439  14.909   9.383   9.217  0.0694  0.0494  0.0848
  278loPI   C2A 4440  14.729   9.159   8.772 -0.0765 -0.1541 -0.0539
  278loPI   C3A 4441  14.922   8.836   8.535 -0.1126 -0.1256 -0.0646
  278loPI   C4A 4442  14.883   8.653   8.158 -0.0205  0.2061 -0.0574
  278loPI   C5A 4443  14.553   8.548   7.923 -0.1006  0.1300  0.0144
  278loPI   C6A 4444  14.312   8.205   8.121 -0.0371 -0.0709 -0.2591
  278loPI   C1B 4445  14.668   9.960   9.549  0.1386 -0.0302 -0.4033
  278loPI   C2B 4446  14.427  10.199   9.299  0.0467  0.0680 -0.0131
  278loPI   C3B 4447  14.438  10.213   8.896  0.0631 -0.0716  0.0539
  278loPI   C4B 4448  14.430  10.189   8.484 -0.2861  0.2208 -0.1779
  279loPI    C1 4449  10.734  13.332  11.205 -0.0415 -0.0908  0.3208
  279loPI    C2 4450  11.076  13.124  11.209 -0.0265 -0.0801 -0.0345
  279loPI    C3 4451  11.083  13.522  11.251 -0.0090 -0.0934  0.0950
  279loPI   PO4 4452  10.639  13.409  10.945  0.2472 -0.0707  0.2631
  279loPI   GL1 4453  10.717  13.530  10.486  0.0285 -0.0362 -0.0948
  279loPI   GL2 4454  10.385  13.453  10.477 -0.0764  0.0987  0.0771
  279loPI   C1A 4455  10.859  13.928  10.343 -0.3089  0.3568  0.0860
  279loPI   C2A 4456  10.761  14.137   9.900 -0.0497 -0.0340  0.0445
  279loPI   C3A 4457  10.654  14.093   9.508  0.1186  0.0488 -0.1316
  279loPI   C4A 4458  10.491  14.020   9.222 -0.1332 -0.0424 -0.0410
  279loPI   C5A 4459  10.543  13.852   8.846 -0.1076  0.0126  0.1639
  279loPI   C6A 4460  10.676  13.653   8.473  0.2492  0.2022 -0.0400
  279loPI   C1B 4461  10.513  13.668  10.086  0.1760  0.1041  0.3668
  279loPI   C2B 4462  10.390  13.690   9.660  0.3962  0.1954 -0.0107
  279loPI   C3B 4463  10.200  13.655   9.350 -0.0987  0.0697  0.0083
  279loPI   C4B 4464   9.888  13.552   9.145 -0.0738 -0.0690  0.1738
  280loPI    C1 4465   4.204  13.920  10.691  0.0100  0.0224 -0.0323
  280loPI    C2 4466   4.303  13.641  10.961  0.1038  0.0294 -0.0592
  280loPI    C3 4467   4.019  13.910  11.045  0.2688  0.1535  0.1096
  280loPI   PO4 4468   4.426  14.003  10.664 -0.1409  0.3311  0.1447
  280loPI   GL1 4469   4.523  14.295  10.364 -0.1116 -0.1329  0.1311
  280loPI   GL2 4470   4.592  14.517  10.310  0.1474  0.1740  0.4906
  280loPI   C1A 4471   4.297  14.356   9.935 -0.5006  0.0968  0.0380
  280loPI   C2A 4472   4.409  14.348   9.512 -0.0276 -0.3407  0.1231
  280loPI   C3A 4473   4.504  14.313   9.042  0.1133  0.0827 -0.1168
  280loPI   C4A 4474   4.616  14.551   8.707  0.0495  0.0456 -0.2900
  280loPI   C5A 4475   5.120  14.721   8.658  0.1464 -0.2044  0.2945
  280loPI   C6A 4476   5.491  14.545   8.545 -0.2625  0.1916 -0.0325
  280loPI   C1B 4477   4.820  14.234   9.931 -0.0324 -0.0255  0.1595
  280loPI   C2B 4478   4.877  14.135   9.597  0.0239 -0.4159 -0.0002
  280loPI   C3B 4479   4.893  13.998   9.142 -0.1039 -0.0136 -0.0407
  280loPI   C4B 4480   4.907  13.849   8.776  0.2204  0.1495 -0.0681
  281loPI    C1 4481   5.635   1.992  10.721  0.0359 -0.0056 -0.0026
  281loPI    C2 4482   5.771   1.886  11.082  0.0016  0.3825  0.1294
  281loPI    C3 4483   5.384   1.974  11.032 -0.0316  0.1466 -0.0470
  281loPI   PO4 4484   5.788   1.779  10.542  0.0561  0.1380 -0.0158
  281loPI   GL1 4485   5.834   1.567  10.145 -0.0645 -0.0795 -0.0557
  281loPI   GL2 4486   6.076   1.362  10.227  0.2916 -0.0716 -0.0313
  281loPI   C1A 4487   5.586   1.457   9.815 -0.1976  0.4519  0.1504
  281loPI   C2A 4488   5.156   1.428   9.633  0.3211 -0.0059 -0.1971
  281loPI   C3A 4489   4.749   1.422   9.552 -0.1113 -0.2723  0.0869
  281loPI   C4A 4490   4.518   1.425   9.118  0.2606 -0.0944  0.0053
  281loPI   C5A 4491   4.533   1.584   8.741  0.0673  0.4148  0.1861
  281loPI   C6A 4492   4.644   1.780   8.362  0.1368  0.2436 -0.0193
  281loPI   C1B 4493   6.012   1.197   9.784 -0.0715  0.0690 -0.0409
  281loPI   C2B 4494   5.814   1.261   9.412  0.2112  0.0957 -0.2901
  281loPI   C3B 4495   5.443   1.252   9.219 -0.0644 -0.7655  0.1947
  281loPI   C4B 4496   5.223   1.162   8.858  0.0723  0.0908  0.1182
  282loPI    C1 4497  17.670   1.446  10.595 -0.0071  0.2020 -0.1209
  282loPI    C2 4498  17.595   1.831  10.673  0.0275  0.1518  0.1714
  282loPI    C3 4499  17.860   1.629  10.896 -0.2521 -0.1356  0.2509
  282loPI   PO4 4500  17.669   1.438  10.290  0.2233 -0.2082 -0.0401
  282loPI   GL1 4501  17.791   1.103  10.065 -0.0090 -0.2166  0.1032
  282loPI   GL2 4502  17.696   0.771  10.017 -0.0554  0.0891 -0.1949
  282loPI   C1A 4503  17.757   0.823   9.547 -0.0212 -0.0730  0.0639
  282loPI   C2A 4504  17.743   0.622   9.196  0.0725 -0.1853  0.2423
  282loPI   C3A 4505  17.651   0.524   8.861 -0.1437  0.0245  0.1643
  282loPI   C4A 4506  17.564   0.641   8.516 -0.4758 -0.0145 -0.2171
  282loPI   C5A 4507  17.344   0.758   8.250 -0.1083 -0.1347  0.0531
  282loPI   C6A 4508  16.838   0.808   8.206  0.0725 -0.0748  0.0322
  282loPI   C1B 4509  17.458   0.477   9.694  0.1748  0.2272 -0.1575
  282loPI   C2B 4510  17.313   0.388   9.287  0.2390  0.2290 -0.1849
  282loPI   C3B 4511  17.260   0.280   8.797 -0.0164  0.0037 -0.1702
  282loPI   C4B 4512  16.894   0.517   8.652 -0.0778 -0.1727  0.1211
  283loPI    C1 4513  15.426  10.610  10.317  0.2570 -0.0347 -0.1709
  283loPI    C2 4514  15.574  10.811  10.629 -0.2514  0.1521 -0.0395
  283loPI    C3 4515  15.451  10.433  10.675 -0.3846  0.2003  0.0045
  283loPI   PO4 4516  15.340  10.791  10.132  0.0464  0.2953 -0.1586
  283loPI   GL1 4517  15.493  10.999   9.818  0.1989 -0.1476 -0.0347
  283loPI   GL2 4518  15.286  10.814   9.628 -0.4064 -0.0590 -0.0064
  283loPI   C1A 4519  15.717  11.258   9.489 -0.2154  0.1625 -0.2186
  283loPI   C2A 4520  15.699  11.172   9.063 -0.2143 -0.1237  0.0833
  283loPI   C3A 4521  15.763  10.997   8.644  0.1338 -0.0254 -0.2163
  283loPI   C4A 4522  15.667  10.750   8.275 -0.3290 -0.0976 -0.0071
  283loPI   C5A 4523  16.024  10.613   8.074 -0.2013 -0.0228  0.0908
  283loPI   C6A 4524  16.200  10.792   7.670  0.0180  0.0658  0.0149
  283loPI   C1B 4525  15.386  10.799   9.190  0.2442  0.1150 -0.0150
  283loPI   C2B 4526  15.412  10.693   8.764  0.0212  0.0918 -0.0140
  283loPI   C3B 4527  15.209  10.738   8.427  0.1184 -0.3760  0.3137
  283loPI   C4B 4528  15.127  11.093   8.138  0.0345 -0.0214 -0.0191
  284loPI    C1 4529   7.344   5.727  10.907 -0.0254 -0.1256  0.0955
  284loPI    C2 4530   7.333   5.535  11.258 -0.1090  0.0838  0.2092
  284loPI    C3 4531   7.619   5.806  11.187  0.0422 -0.1197  0.0278
  284loPI   PO4 4532   7.059   5.807  10.834 -0.2460  0.0835  0.1088
  284loPI   GL1 4533   6.849   5.666  10.438  0.3364 -0.1092  0.0241
  284loPI   GL2 4534   7.216   5.648  10.387 -0.1278 -0.2405  0.1617
  284loPI   C1A 4535   6.804   5.525   9.908  0.2097  0.0013 -0.7532
  284loPI   C2A 4536   6.783   5.361   9.559  0.2182  0.2243 -0.2273
  284loPI   C3A 4537   6.798   5.351   9.151  0.2672 -0.2224 -0.1669
  284loPI   C4A 4538   6.755   5.191   8.780 -0.2484  0.0063  0.2349
  284loPI   C5A 4539   7.013   5.232   8.435 -0.4167 -0.0669  0.4723
  284loPI   C6A 4540   6.759   5.469   8.136  0.0317 -0.0905 -0.2737
  284loPI   C1B 4541   7.274   6.006  10.038  0.3031  0.1433  0.0254
  284loPI   C2B 4542   7.267   6.152   9.583 -0.0261 -0.0815 -0.1107
  284loPI   C3B 4543   7.293   6.248   9.154 -0.2524  0.3311 -0.0791
  284loPI   C4B 4544   7.383   6.237   8.628  0.0653  0.1172  0.0751
  285loPI    C1 4545   5.726   6.969  10.983  0.0597 -0.0020 -0.0950
  285loPI    C2 4546   5.599   6.665  11.211  0.1810  0.1496  0.1793
  285loPI    C3 4547   5.504   7.041  11.308 -0.0339  0.1981 -0.2020
  285loPI   PO4 4548   5.979   6.985  11.015  0.1702 -0.0009  0.4392
  285loPI   GL1 4549   6.192   6.932  10.577  0.1279 -0.1634  0.0627
  285loPI   GL2 4550   5.917   6.715  10.430  0.0259  0.2608  0.1275
  285loPI   C1A 4551   6.346   6.914  10.129 -0.1439  0.0235 -0.4612
  285loPI   C2A 4552   6.360   6.761   9.695  0.1699  0.0150  0.1427
  285loPI   C3A 4553   6.401   6.712   9.240  0.0972  0.3816 -0.0576
  285loPI   C4A 4554   6.481   6.599   8.821  0.2065  0.2428  0.1618
  285loPI   C5A 4555   6.609   6.537   8.445 -0.2060 -0.0168 -0.2625
  285loPI   C6A 4556   6.961   6.434   8.411  0.2432 -0.2284 -0.2003
  285loPI   C1B 4557   5.870   6.713   9.898 -0.2113 -0.0239 -0.3740
  285loPI   C2B 4558   5.850   6.743   9.534  0.0487 -0.2712  0.0455
  285loPI   C3B 4559   5.887   6.624   9.003 -0.0086  0.1916  0.0115
  285loPI   C4B 4560   5.921   6.598   8.543 -0.0186 -0.1769 -0.2722
  286loPI    C1 4561   5.412  11.307  10.837 -0.4034  0.0650 -0.0434
  286loPI    C2 4562   5.402  11.704  10.791 -0.1744  0.0685 -0.0764
  286loPI    C3 4563   5.301  11.540  11.142  0.1818  0.1889  0.0869
  286loPI   PO4 4564   5.562  11.199  10.502  0.2534 -0.0876 -0.2067
  286loPI   GL1 4565   5.717  11.485  10.203  0.1006 -0.0517  0.0563
  286loPI   GL2 4566   5.664  11.723  10.294  0.2567  0.1708 -0.2292
  286loPI   C1A 4567   5.787  11.591   9.811  0.0320  0.2139 -0.0998
  286loPI   C2A 4568   5.737  11.582   9.435  0.2314 -0.0001  0.0498
  286loPI   C3A 4569   5.889  11.367   9.023  0.2473 -0.0502  0.0599
  286loPI   C4A 4570   6.002  11.118   8.607  0.3893  0.1106  0.2039
  286loPI   C5A 4571   5.886  10.918   8.194  0.1519 -0.3984 -0.1218
  286loPI   C6A 4572   5.905  10.467   8.303  0.0465  0.2625  0.1504
  286loPI   C1B 4573   5.358  11.888  10.105  0.2187  0.5289 -0.3421
  286loPI   C2B 4574   5.348  11.880   9.658 -0.1359  0.2705 -0.1500
  286loPI   C3B 4575   5.289  11.741   9.140 -0.2027 -0.0182 -0.0676
  286loPI   C4B 4576   5.533  11.600   8.802  0.2149 -0.0677 -0.0601
  287loPI    C1 4577   6.443  14.123  10.934  0.1250  0.1707  0.2834
  287loPI    C2 4578   6.792  13.937  10.878  0.0518  0.1495 -0.1331
  287loPI    C3 4579   6.665  14.209  10.613 -0.2766  0.1123 -0.0186
  287loPI   PO4 4580   6.228  13.974  10.875  0.2210  0.1248 -0.1049
  287loPI   GL1 4581   6.154  13.810  10.442 -0.0032 -0.1070  0.0494
  287loPI   GL2 4582   6.464  13.669  10.521  0.0663 -0.1583  0.2984
  287loPI   C1A 4583   6.341  14.104  10.188  0.2921 -0.1883  0.3371
  287loPI   C2A 4584   6.259  14.181   9.826  0.1460 -0.0180 -0.0549
  287loPI   C3A 4585   6.335  14.130   9.303 -0.2502  0.1779 -0.1577
  287loPI   C4A 4586   6.313  14.037   8.875 -0.3207 -0.2912  0.2934
  287loPI   C5A 4587   6.306  13.995   8.490 -0.4003 -0.2061  0.4663
  287loPI   C6A 4588   6.039  13.640   8.328  0.0853  0.1792  0.5297
  287loPI   C1B 4589   6.406  13.621  10.031  0.1178  0.2307 -0.0150
  287loPI   C2B 4590   6.485  13.709   9.665  0.0625 -0.1539  0.0267
  287loPI   C3B 4591   6.429  13.650   9.233  0.1286 -0.2623 -0.0073
  287loPI   C4B 4592   6.232  13.536   8.777  0.1472 -0.0901 -0.3049
  288loPI    C1 4593  11.909   5.043  10.656 -0.0338 -0.0911 -0.0908
  288loPI    C2 4594  11.736   5.390  10.556  0.0661 -0.0236 -0.0312
  288loPI    C3 4595  11.556   5.143  10.814 -0.0307 -0.0412 -0.1151
  288loPI   PO4 4596  12.081   4.855  10.426 -0.3875 -0.0972 -0.2125
  288loPI   GL1 4597  12.124   4.843  10.019  0.0454 -0.1619  0.0398
  288loPI   GL2 4598  12.357   4.690   9.831  0.4006 -0.0044 -0.0027
  288loPI   C1A 4599  11.949   4.967   9.657 -0.1314  0.1925 -0.0535
  288loPI   C2A 4600  11.975   4.877   9.244 -0.3249  0.1034 -0.0163
  288loPI   C3A 4601  11.823   4.799   8.891 -0.1217  0.1555 -0.1600
  288loPI   C4A 4602  11.890   4.827   8.438 -0.3656 -0.0845 -0.1839
  288loPI   C5A 4603  12.182   4.939   7.975 -0.0016 -0.3330 -0.1595
  288loPI   C6A 4604  12.613   4.996   7.763 -0.1502 -0.0274 -0.1594
  288loPI   C1B 4605  12.390   4.616   9.451 -0.0804 -0.0833  0.0457
  288loPI   C2B 4606  12.435   4.774   9.062  0.1937  0.3673  0.2148
  288loPI   C3B 4607  12.270   5.125   8.758 -0.1468  0.1883  0.1231
  288loPI   C4B 4608  12.213   5.252   8.348 -0.0157 -0.1628 -0.0015
  289loPI    C1 4609   6.384  10.462  10.391  0.0322 -0.0202  0.1809
  289loPI    C2 4610   6.720  10.432  10.606  0.0530  0.0899  0.1645
  289loPI    C3 4611   6.418  10.659  10.737  0.0942  0.2162  0.0421
  289loPI   PO4 4612   6.297  10.141  10.463 -0.0832  0.4145 -0.1066
  289loPI   GL1 4613   6.224   9.853  10.231  0.0286 -0.1392 -0.0365
  289loPI   GL2 4614   6.330  10.213   9.978  0.0410 -0.2845  0.3123
  289loPI   C1A 4615   6.548   9.825   9.816 -0.1304  0.3161 -0.0636
  289loPI   C2A 4616   6.659   9.721   9.427  0.0704 -0.1753 -0.2487
  289loPI   C3A 4617   6.742   9.726   9.046  0.3333  0.0862  0.1139
  289loPI   C4A 4618   6.829   9.685   8.664  0.0934 -0.1499 -0.0075
  289loPI   C5A 4619   6.741   9.851   8.368  0.0608  0.1705  0.2039
  289loPI   C6A 4620   6.889  10.194   8.232  0.1816  0.1888  0.0346
  289loPI   C1B 4621   6.225  10.074   9.574  0.0174  0.1994  0.3144
  289loPI   C2B 4622   6.341  10.040   9.105 -0.0682  0.1568  0.0428
  289loPI   C3B 4623   6.483  10.107   8.755 -0.3346 -0.0844  0.0476
  289loPI   C4B 4624   6.374  10.271   8.305  0.0604 -0.0313 -0.1487
  290loPI    C1 4625  10.477  17.068  10.661 -0.0913 -0.2936  0.0269
  290loPI    C2 4626  10.361  16.909  11.010  0.0731 -0.1445  0.1513
  290loPI    C3 4627  10.558  17.257  11.004 -0.1189 -0.0364 -0.1063
  290loPI   PO4 4628  10.254  17.205  10.489 -0.0641 -0.1483 -0.5513
  290loPI   GL1 4629  10.112  17.153  10.146  0.1052  0.0104 -0.0871
  290loPI   GL2 4630  10.439  17.106  10.036  0.2258 -0.0016  0.1642
  290loPI   C1A 4631   9.981  17.082   9.683 -0.0805 -0.0881 -0.0589
  290loPI   C2A 4632   9.701  16.894   9.436  0.0475  0.0684 -0.1590
  290loPI   C3A 4633   9.494  16.570   9.130 -0.3369 -0.1743 -0.0427
  290loPI   C4A 4634   9.520  16.364   8.830 -0.2014 -0.0096  0.1413
  290loPI   C5A 4635   9.694  16.170   8.471  0.1932 -0.1737  0.0737
  290loPI   C6A 4636   9.821  15.877   8.305 -0.1583  0.0787  0.4209
  290loPI   C1B 4637  10.381  16.869   9.535  0.1135 -0.1790 -0.4034
  290loPI   C2B 4638  10.193  16.961   9.093 -0.2942 -0.0960  0.0296
  290loPI   C3B 4639  10.084  16.934   8.699  0.0433 -0.3094  0.2733
  290loPI   C4B 4640   9.978  17.106   8.272 -0.2284  0.1918 -0.2796
  291loPI    C1 4641   5.001   7.707  10.591 -0.0839 -0.1208  0.0791
  291loPI    C2 4642   4.819   7.426  10.810 -0.2511 -0.0891 -0.0178
  291loPI    C3 4643   4.656   7.790  10.775 -0.0852 -0.0097  0.0274
  291loPI   PO4 4644   5.271   7.589  10.575  0.0375 -0.0566 -0.2190
  291loPI   GL1 4645   5.408   7.257  10.363  0.0583 -0.2114 -0.0151
  291loPI   GL2 4646   5.608   7.124  10.529 -0.2455 -0.2504  0.1403
  291loPI   C1A 4647   5.397   7.039  10.067  0.1266  0.0670  0.0218
  291loPI   C2A 4648   5.293   6.787   9.720 -0.0558  0.0381  0.0143
  291loPI   C3A 4649   5.416   6.727   9.249 -0.0821  0.4606  0.3844
  291loPI   C4A 4650   5.479   6.618   8.825 -0.0314  0.0185  0.0437
  291loPI   C5A 4651   5.396   6.797   8.395 -0.1908 -0.0582  0.1760
  291loPI   C6A 4652   5.349   7.172   8.159  0.1312 -0.4048 -0.0327
  291loPI   C1B 4653   5.902   7.149  10.160  0.0944  0.2266  0.1401
  291loPI   C2B 4654   6.085   7.212   9.843 -0.0371  0.0361  0.0071
  291loPI   C3B 4655   6.069   7.170   9.372 -0.0682 -0.1053  0.0276
  291loPI   C4B 4656   6.217   7.001   8.923  0.4266 -0.0748  0.0775
  292loPI    C1 4657   9.088   1.628  10.932  0.0580  0.0907 -0.0857
  292loPI    C2 4658   9.324   1.666  11.252 -0.0563  0.2789 -0.0217
  292loPI    C3 4659   8.928   1.700  11.291 -0.0797  0.1809 -0.1643
  292loPI   PO4 4660   9.294   1.783  10.663 -0.2752  0.2613 -0.3591
  292loPI   GL1 4661   9.228   1.681  10.316  0.2853 -0.1411 -0.2605
  292loPI   GL2 4662   9.498   1.881  10.230  0.0192  0.0588  0.1838
  292loPI   C1A 4663   9.080   1.633   9.923 -0.2374  0.1655  0.1453
  292loPI   C2A 4664   9.138   1.456   9.467 -0.0620 -0.4252 -0.1284
  292loPI   C3A 4665   9.053   1.408   9.057  0.3899  0.0508 -0.1690
  292loPI   C4A 4666   9.007   1.526   8.783  0.0155  0.2370 -0.2201
  292loPI   C5A 4667   9.062   1.415   8.358  0.0532 -0.0121 -0.0840
  292loPI   C6A 4668   9.381   1.207   8.199 -0.4177 -0.1791  0.3246
  292loPI   C1B 4669   9.555   2.112   9.915  0.0778 -0.0863 -0.1637
  292loPI   C2B 4670   9.433   2.496   9.874  0.1720 -0.0670  0.0830
  292loPI   C3B 4671   9.383   2.789   9.548  0.2419 -0.1770  0.0019
  292loPI   C4B 4672   9.250   2.997   9.233  0.0026  0.1588  0.0674
  293loPI    C1 4673  14.843   5.408  10.651 -0.2798  0.0524 -0.0866
  293loPI    C2 4674  14.686   5.541  10.995 -0.1125  0.0043  0.0097
  293loPI    C3 4675  14.818   5.164  10.967 -0.0231  0.0413 -0.0730
  293loPI   PO4 4676  15.055   5.678  10.639  0.3363 -0.0587  0.3332
  293loPI   GL1 4677  15.369   5.758  10.316  0.2078 -0.2799 -0.1495
  293loPI   GL2 4678  15.488   5.788  10.084  0.0900 -0.1062 -0.1018
  293loPI   C1A 4679  15.006   5.989  10.013 -0.1184 -0.0449 -0.1417
  293loPI   C2A 4680  15.017   6.110   9.567  0.0180 -0.0605 -0.1218
  293loPI   C3A 4681  15.057   6.106   9.133  0.0607 -0.0890 -0.2395
  293loPI   C4A 4682  15.042   6.151   8.709  0.0475 -0.2224  0.1191
  293loPI   C5A 4683  15.008   6.461   8.341 -0.0585  0.2284  0.1587
  293loPI   C6A 4684  15.093   6.678   7.998 -0.1242  0.1695  0.0879
  293loPI   C1B 4685  15.506   5.931   9.662 -0.1127  0.1510 -0.5268
  293loPI   C2B 4686  15.524   5.882   9.202  0.0343 -0.0469  0.1816
  293loPI   C3B 4687  15.341   5.765   8.823 -0.1370 -0.1451  0.0105
  293loPI   C4B 4688  15.166   5.794   8.362  0.1502  0.1425  0.1496
  294loPI    C1 4689  14.407   5.316  10.515  0.0144  0.1269  0.0029
  294loPI    C2 4690  14.060   5.142  10.614  0.1220 -0.1283 -0.0607
  294loPI    C3 4691  14.162   5.493  10.778 -0.0849 -0.1375  0.0913
  294loPI   PO4 4692  14.388   5.306  10.228  0.3400  0.0402 -0.1171
  294loPI   GL1 4693  14.566   5.388   9.818  0.0393 -0.0038  0.0850
  294loPI   GL2 4694  14.513   5.075   9.798 -0.1540  0.0193  0.2222
  294loPI   C1A 4695  14.335   5.546   9.400 -0.1276 -0.1519  0.0107
  294loPI   C2A 4696  14.207   5.625   9.016  0.0507  0.1321  0.3620
  294loPI   C3A 4697  14.196   5.790   8.584  0.1651  0.1472 -0.0188
  294loPI   C4A 4698  14.023   5.424   8.234  0.1693 -0.0598  0.2024
  294loPI   C5A 4699  14.141   5.126   8.001  0.0232  0.3452 -0.0373
  294loPI   C6A 4700  14.426   4.988   7.657 -0.0255 -0.1496  0.3451
  294loPI   C1B 4701  14.664   5.049   9.417 -0.2180 -0.1103  0.1667
  294loPI   C2B 4702  14.779   5.130   9.019 -0.1813 -0.0204 -0.1682
  294loPI   C3B 4703  14.772   4.964   8.577 -0.0994  0.0765  0.1492
  294loPI   C4B 4704  14.635   5.010   8.133  0.2415  0.2658  0.1412
  295loPI    C1 4705  14.777  13.348  10.748  0.0171 -0.0574  0.0226
  295loPI    C2 4706  14.735  13.043  11.004  0.1331 -0.1420 -0.0588
  295loPI    C3 4707  14.921  13.377  11.120 -0.2132 -0.0029  0.1098
  295loPI   PO4 4708  14.828  13.200  10.491 -0.0420 -0.0089 -0.0199
  295loPI   GL1 4709  15.073  13.384  10.230  0.3057  0.2366  0.2744
  295loPI   GL2 4710  15.157  13.658  10.081  0.0952 -0.0411  0.6971
  295loPI   C1A 4711  15.472  13.320   9.927  0.1823 -0.1950 -0.0281
  295loPI   C2A 4712  15.574  13.483   9.671  0.0445  0.5017 -0.0583
  295loPI   C3A 4713  15.573  13.542   9.265 -0.1526  0.4350 -0.0684
  295loPI   C4A 4714  15.580  13.440   8.881 -0.1044 -0.0034 -0.1401
  295loPI   C5A 4715  15.383  13.180   8.680 -0.3135  0.1257 -0.1378
  295loPI   C6A 4716  15.073  12.955   8.604  0.3513  0.1684 -0.1207
  295loPI   C1B 4717  15.070  13.528   9.635 -0.1902 -0.0193 -0.1051
  295loPI   C2B 4718  14.657  13.544   9.311  0.2496  0.2415 -0.2606
  295loPI   C3B 4719  14.519  13.757   9.057 -0.1471 -0.2003  0.0134
  295loPI   C4B 4720  14.386  14.231   8.841 -0.2271  0.1779  0.0196
  296loPI    C1 4721  14.013  16.140  10.478 -0.1324 -0.0658 -0.0875
  296loPI    C2 4722  13.698  16.383  10.519  0.1236  0.2542  0.0265
  296loPI    C3 4723  13.813  16.152  10.824  0.0257  0.1675 -0.0018
  296loPI   PO4 4724  14.219  16.318  10.479 -0.2302  0.1550  0.0225
  296loPI   GL1 4725  14.295  16.700  10.195 -0.1459 -0.2806  0.1798
  296loPI   GL2 4726  13.939  16.648  10.183 -0.0367 -0.0537  0.1232
  296loPI   C1A 4727  14.460  16.542   9.776 -0.0162  0.0558  0.1486
  296loPI   C2A 4728  14.543  16.541   9.330 -0.1284 -0.0225  0.0333
  296loPI   C3A 4729  14.901  16.551   9.046  0.2112  0.0181 -0.1353
  296loPI   C4A 4730  15.013  16.448   8.590 -0.0501  0.0793 -0.0885
  296loPI   C5A 4731  15.388  16.211   8.514 -0.3641  0.1962  0.1879
  296loPI   C6A 4732  15.752  15.954   8.669 -0.2967 -0.0785  0.2526
  296loPI   C1B 4733  13.905  16.666   9.717 -0.0512 -0.0216 -0.1892
  296loPI   C2B 4734  13.979  16.564   9.317 -0.1674 -0.0533 -0.2161
  296loPI   C3B 4735  14.143  16.387   9.029  0.0554 -0.0329  0.0183
  296loPI   C4B 4736  14.468  16.124   8.875  0.0986 -0.0986  0.0016
  297loPI    C1 4737   1.328  17.262  10.695 -0.3044 -0.3513  0.0939
  297loPI    C2 4738   1.467  17.518  10.969 -0.0766 -0.1409 -0.2112
  297loPI    C3 4739   1.521  17.125  11.017 -0.0199 -0.1052  0.0327
  297loPI   PO4 4740   1.353  17.343  10.490 -0.1554  0.0227  0.1555
  297loPI   GL1 4741   1.270  17.654  10.256 -0.5404 -0.1088 -0.3031
  297loPI   GL2 4742   0.936  17.652  10.270  0.0658 -0.0471  0.0344
  297loPI   C1A 4743   1.414  17.231   9.899 -0.1495 -0.3781 -0.0593
  297loPI   C2A 4744   1.627  17.147   9.504 -0.1193 -0.0005  0.1922
  297loPI   C3A 4745   1.828  17.008   9.026 -0.0319  0.0055 -0.0503
  297loPI   C4A 4746   1.993  16.696   8.700  0.2491 -0.1361  0.0803
  297loPI   C5A 4747   1.904  16.678   8.281 -0.0538  0.2829  0.1019
  297loPI   C6A 4748   1.951  16.838   7.931 -0.0761  0.2104  0.0218
  297loPI   C1B 4749   0.932  17.535   9.827  0.3152  0.2779 -0.1029
  297loPI   C2B 4750   1.254  17.468   9.471 -0.4530  0.2330  0.1684
  297loPI   C3B 4751   1.354  17.327   9.096 -0.2384  0.0028 -0.2219
  297loPI   C4B 4752   1.353  17.357   8.776 -0.0786  0.1035  0.1581
  298loPI    C1 4753   4.456   0.599  10.773 -0.0048  0.3760 -0.1332
  298loPI    C2 4754   4.145   0.670  10.532 -0.1081 -0.1101 -0.1526
  298loPI    C3 4755   4.358   0.334  10.490  0.0651 -0.0534  0.2342
  298loPI   PO4 4756   4.614   0.724  10.717 -0.1261  0.0597  0.0279
  298loPI   GL1 4757   4.678   1.033  10.336  0.0674  0.1946  0.1160
  298loPI   GL2 4758   4.646   0.709  10.241 -0.2105 -0.1000 -0.1741
  298loPI   C1A 4759   4.540   1.053   9.852 -0.0441 -0.1018  0.3507
  298loPI   C2A 4760   4.310   1.104   9.477  0.2364  0.2798 -0.0595
  298loPI   C3A 4761   4.398   0.943   8.994 -0.0380 -0.0961 -0.0655
  298loPI   C4A 4762   4.658   1.054   8.678  0.2175 -0.1262  0.0816
  298loPI   C5A 4763   4.510   1.279   8.283  0.0076  0.1456 -0.4206
  298loPI   C6A 4764   4.453   1.397   7.920 -0.3305  0.0522  0.0998
  298loPI   C1B 4765   4.369   0.613   9.874 -0.1599  0.2679  0.0691
  298loPI   C2B 4766   4.195   0.513   9.440  0.0399 -0.2223  0.0830
  298loPI   C3B 4767   4.081   0.533   8.974  0.2419 -0.0095 -0.2554
  298loPI   C4B 4768   3.881   0.305   8.680  0.4307  0.1559  0.0683
  299loPI    C1 4769   4.771   1.391  10.984 -0.0013  0.0626 -0.0357
  299loPI    C2 4770   4.537   1.111  11.147 -0.1140  0.1991  0.0392
  299loPI    C3 4771   4.899   1.013  11.008 -0.0419  0.0679  0.3133
  299loPI   PO4 4772   4.653   1.510  10.731 -0.0565 -0.0316 -0.1587
  299loPI   GL1 4773   4.768   1.567  10.398  0.0051  0.2973  0.0821
  299loPI   GL2 4774   4.420   1.446  10.324  0.0544 -0.1721  0.0628
  299loPI   C1A 4775   4.924   1.438  10.098  0.0825  0.1788 -0.0332
  299loPI   C2A 4776   5.040   1.080   9.944 -0.0643 -0.0686  0.2255
  299loPI   C3A 4777   5.238   0.938   9.560 -0.3268 -0.3379  0.2207
  299loPI   C4A 4778   5.371   0.781   9.174  0.0038  0.0237 -0.0011
  299loPI   C5A 4779   5.547   0.433   9.000 -0.4680  0.0602  0.0130
  299loPI   C6A 4780   5.475   0.288   8.536  0.0564 -0.2874 -0.0382
  299loPI   C1B 4781   4.269   1.606   9.946  0.0399 -0.2710  0.2281
  299loPI   C2B 4782   4.182   1.548   9.544  0.1831  0.1972 -0.2819
  299loPI   C3B 4783   3.850   1.430   9.387  0.1688  0.1117 -0.0258
  299loPI   C4B 4784   3.605   1.196   9.613 -0.0657  0.2849 -0.0749
  300loPI    C1 4785  16.211   8.339  10.738 -0.0335 -0.0903 -0.0331
  300loPI    C2 4786  15.932   8.264  11.014  0.0465 -0.0046  0.0720
  300loPI    C3 4787  16.173   8.580  11.055  0.2178 -0.1284  0.0280
  300loPI   PO4 4788  16.059   8.349  10.460  0.0497 -0.1617 -0.5314
  300loPI   GL1 4789  16.212   8.350   9.967 -0.1444 -0.0912  0.1510
  300loPI   GL2 4790  15.896   8.558   9.922  0.0202  0.2561 -0.1610
  300loPI   C1A 4791  16.561   8.470   9.607  0.0023  0.1513  0.0278
  300loPI   C2A 4792  16.590   8.592   9.257 -0.3861  0.5474  0.0661
  300loPI   C3A 4793  16.798   8.675   8.876  0.1671 -0.1016 -0.0857
  300loPI   C4A 4794  16.842   8.474   8.418 -0.1348  0.4060 -0.1545
  300loPI   C5A 4795  16.992   8.086   8.161 -0.0364  0.1932 -0.0463
  300loPI   C6A 4796  17.090   7.620   8.018  0.2320 -0.2017  0.0096
  300loPI   C1B 4797  15.931   8.553   9.464  0.1824  0.0299  0.1210
  300loPI   C2B 4798  16.111   8.512   9.114 -0.1780  0.0152 -0.1854
  300loPI   C3B 4799  16.121   8.708   8.794  0.1089  0.2761  0.0009
  300loPI   C4B 4800  16.028   8.571   8.395 -0.0668  0.0357  0.1086
  301loPI    C1 4801   9.099  11.111  10.653 -0.1015 -0.0553  0.0657
  301loPI    C2 4802   9.276  11.430  10.816 -0.0973 -0.0742  0.0980
  301loPI    C3 4803   9.390  11.062  10.923  0.0681 -0.0885 -0.1211
  301loPI   PO4 4804   9.066  11.116  10.376 -0.1473  0.0119 -0.0435
  301loPI   GL1 4805   8.912  11.378  10.016 -0.2188 -0.0520  0.2110
  301loPI   GL2 4806   8.503  11.456  10.034  0.0399 -0.2528  0.4324
  301loPI   C1A 4807   9.120  11.463   9.727  0.0527 -0.0299  0.3206
  301loPI   C2A 4808   9.025  11.524   9.391  0.0167  0.1539 -0.0694
  301loPI   C3A 4809   8.823  11.713   9.192  0.0792  0.0103 -0.0213
  301loPI   C4A 4810   8.857  11.842   8.896  0.1263  0.2068 -0.1021
  301loPI   C5A 4811   8.953  12.176   8.793 -0.1399  0.0236 -0.0382
  301loPI   C6A 4812   9.124  12.349   8.465 -0.0823  0.1644  0.0064
  301loPI   C1B 4813   8.563  11.531   9.624 -0.0888 -0.3988  0.0041
  301loPI   C2B 4814   8.435  11.401   9.266 -0.1048 -0.2185 -0.0509
  301loPI   C3B 4815   8.452  11.387   8.841  0.0035  0.0516 -0.2135
  301loPI   C4B 4816   8.354  11.364   8.440 -0.1041 -0.0784  0.2996
  302loPI    C1 4817   7.748   5.418  10.876  0.0661 -0.0331  0.0765
  302loPI    C2 4818   8.088   5.409  11.087 -0.0175 -0.5307  0.2040
  302loPI    C3 4819   7.756   5.244  11.237 -0.3312 -0.0179  0.0966
  302loPI   PO4 4820   7.788   5.624  10.723 -0.0801  0.1028 -0.5087
  302loPI   GL1 4821   7.879   5.933  10.520 -0.1464 -0.0012  0.1430
  302loPI   GL2 4822   7.795   6.192  10.325  0.0132  0.4070  0.1580
  302loPI   C1A 4823   7.753   5.716  10.103 -0.1425  0.1058 -0.2622
  302loPI   C2A 4824   7.854   5.680   9.664 -0.0152 -0.1948 -0.2221
  302loPI   C3A 4825   7.663   5.989   9.358  0.1554  0.4746 -0.1714
  302loPI   C4A 4826   7.797   6.131   9.022 -0.0364 -0.1183  0.0593
  302loPI   C5A 4827   7.965   6.290   8.621  0.0286 -0.1498  0.1170
  302loPI   C6A 4828   7.777   6.416   8.172 -0.1867  0.1403 -0.1588
  302loPI   C1B 4829   7.663   6.260   9.846  0.2010  0.2271 -0.0789
  302loPI   C2B 4830   7.662   6.496   9.383 -0.4248  0.0656  0.0904
  302loPI   C3B 4831   7.629   6.572   8.864  0.0405  0.0276 -0.0009
  302loPI   C4B 4832   7.384   6.731   8.596  0.2125 -0.1075  0.1280
  303loPI    C1 4833  12.625   2.782  10.794  0.0118  0.0123  0.0194
  303loPI    C2 4834  12.741   2.707  11.169 -0.1521 -0.0704  0.0546
  303loPI    C3 4835  12.374   2.851  11.098 -0.0127  0.2415 -0.0509
  303loPI   PO4 4836  12.650   2.524  10.608  0.0562 -0.0585 -0.0670
  303loPI   GL1 4837  12.485   2.435  10.305  0.0305 -0.0044  0.0276
  303loPI   GL2 4838  12.172   2.377  10.303  0.1226  0.0763  0.3856
  303loPI   C1A 4839  12.606   2.305   9.926 -0.0322 -0.0426  0.0852
  303loPI   C2A 4840  12.574   2.370   9.478  0.1923 -0.0976  0.1180
  303loPI   C3A 4841  12.320   2.447   9.146 -0.0793  0.0162  0.0149
  303loPI   C4A 4842  12.270   2.331   8.749  0.0652  0.1230 -0.1583
  303loPI   C5A 4843  12.383   2.490   8.336 -0.1249  0.1185 -0.0565
  303loPI   C6A 4844  12.641   2.598   8.033  0.1223 -0.1109 -0.0312
  303loPI   C1B 4845  12.061   2.341   9.883  0.1428  0.0338 -0.0794
  303loPI   C2B 4846  11.897   2.396   9.487 -0.3522  0.0600  0.1344
  303loPI   C3B 4847  11.769   2.463   9.059 -0.1983 -0.0989 -0.0402
  303loPI   C4B 4848  11.636   2.399   8.744  0.2378  0.0697  0.1698
  304loPI    C1 4849   8.533   9.547  10.535 -0.0663 -0.0114  0.4720
  304loPI    C2 4850   8.159   9.407  10.509 -0.1169  0.2193 -0.3486
  304loPI    C3 4851   8.224   9.785  10.625 -0.1059  0.0863  0.0975
  304loPI   PO4 4852   8.673   9.461  10.238  0.0721 -0.0196 -0.2236
  304loPI   GL1 4853   8.695   9.712   9.867  0.1646  0.3336 -0.2587
  304loPI   GL2 4854   8.932   9.436   9.786  0.2461  0.0833  0.0363
  304loPI   C1A 4855   8.904   9.772   9.390 -0.1192  0.0773  0.2411
  304loPI   C2A 4856   9.162   9.728   8.994  0.0186 -0.4052  0.2862
  304loPI   C3A 4857   9.533   9.423   8.901  0.0380 -0.0732 -0.1440
  304loPI   C4A 4858   9.771   9.177   8.657 -0.0094 -0.1775 -0.0372
  304loPI   C5A 4859  10.019   9.276   8.375 -0.0066 -0.2973 -0.0631
  304loPI   C6A 4860  10.378   9.525   8.389  0.0789  0.0720 -0.1118
  304loPI   C1B 4861   8.652   9.298   9.386 -0.4175  0.2384 -0.3477
  304loPI   C2B 4862   8.765   9.381   8.945  0.2854 -0.3261 -0.1290
  304loPI   C3B 4863   9.051   9.429   8.630  0.0633  0.0032 -0.0899
  304loPI   C4B 4864   9.437   9.672   8.411 -0.0388 -0.3925  0.3264
  305loPI    C1 4865  11.142   3.159  10.691  0.0192 -0.0385 -0.0570
  305loPI    C2 4866  10.795   3.159  10.889 -0.1530 -0.2296 -0.3511
  305loPI    C3 4867  11.133   3.061  11.079 -0.2288  0.1277 -0.0188
  305loPI   PO4 4868  11.136   3.318  10.479 -0.0698  0.1228 -0.2084
  305loPI   GL1 4869  11.068   3.282   9.990  0.2695 -0.0547  0.0057
  305loPI   GL2 4870  11.144   3.611   9.921  0.0079 -0.0957  0.1324
  305loPI   C1A 4871  10.935   3.226   9.561  0.1334  0.0129  0.2629
  305loPI   C2A 4872  11.047   3.231   9.142 -0.4559 -0.1297 -0.0459
  305loPI   C3A 4873  11.176   3.293   8.701 -0.0989 -0.1352  0.1172
  305loPI   C4A 4874  11.496   3.420   8.433  0.1118 -0.1489  0.1736
  305loPI   C5A 4875  11.486   3.594   8.167  0.2562 -0.2532 -0.0831
  305loPI   C6A 4876  11.647   4.033   8.220 -0.1399  0.0903 -0.1466
  305loPI   C1B 4877  11.033   3.697   9.456  0.3101  0.0779  0.0615
  305loPI   C2B 4878  11.257   3.656   9.049  0.0859  0.1692 -0.2171
  305loPI   C3B 4879  11.225   3.826   8.623  0.0389 -0.0826  0.3505
  305loPI   C4B 4880  11.097   4.107   8.367  0.1091  0.1019  0.4080
  306loPI    C1 4881  10.926  14.307  11.364 -0.0061 -0.1590  0.0996
  306loPI    C2 4882  10.772  14.661  11.467 -0.2216 -0.1698 -0.1729
  306loPI    C3 4883  11.169  14.615  11.445 -0.1921  0.0568 -0.1458
  306loPI   PO4 4884  10.776  14.248  11.120  0.2154 -0.0836 -0.0855
  306loPI   GL1 4885  10.668  14.267  10.728 -0.0118  0.2595  0.0984
  306loPI   GL2 4886  10.964  14.370  10.587  0.0193 -0.0331 -0.0760
  306loPI   C1A 4887  10.610  14.399  10.303  0.1521 -0.1010  0.0386
  306loPI   C2A 4888  10.468  14.492   9.940 -0.1309  0.0675  0.2897
  306loPI   C3A 4889  10.336  14.515   9.499  0.2293  0.0590 -0.0106
  306loPI   C4A 4890  10.259  14.517   9.127 -0.1252 -0.2134 -0.0616
  306loPI   C5A 4891  10.364  14.416   8.774  0.0308  0.0759  0.3771
  306loPI   C6A 4892  10.667  14.246   8.574  0.1063 -0.1388 -0.0499
  306loPI   C1B 4893  11.042  14.556  10.183  0.1063  0.0868  0.2065
  306loPI   C2B 4894  11.107  14.579   9.782  0.0062  0.0441  0.1983
  306loPI   C3B 4895  10.935  14.580   9.375  0.0356  0.2257  0.0015
  306loPI   C4B 4896  10.918  14.221   9.081  0.0557 -0.3240 -0.4144
  307loPI    C1 4897  13.410   7.125  10.611 -0.2243  0.1766  0.0858
  307loPI    C2 4898  13.531   7.440  10.826  0.0891 -0.0160  0.1985
  307loPI    C3 4899  13.452   7.092  11.008  0.0581 -0.0940  0.0378
  307loPI   PO4 4900  13.462   7.187  10.350  0.1245 -0.0044 -0.0257
  307loPI   GL1 4901  13.543   7.280   9.940  0.0268  0.0670  0.0018
  307loPI   GL2 4902  13.341   7.211   9.714 -0.2373 -0.2600  0.0702
  307loPI   C1A 4903  13.886   7.254   9.528  0.0690 -0.0163  0.0624
  307loPI   C2A 4904  13.840   7.219   9.074  0.1755 -0.1225  0.1264
  307loPI   C3A 4905  13.915   6.967   8.648 -0.0257  0.2613  0.1383
  307loPI   C4A 4906  13.796   6.791   8.285  0.0518  0.0782  0.3003
  307loPI   C5A 4907  13.605   6.995   7.884 -0.2272  0.1701  0.2118
  307loPI   C6A 4908  13.282   7.364   8.045  0.0867 -0.1559  0.0093
  307loPI   C1B 4909  13.415   7.070   9.359 -0.2375  0.0187 -0.0859
  307loPI   C2B 4910  13.380   7.104   8.889 -0.4187 -0.0905 -0.0826
  307loPI   C3B 4911  13.384   7.124   8.511 -0.2000  0.2520 -0.2165
  307loPI   C4B 4912  13.289   6.829   8.235 -0.0112  0.0613 -0.0065
  308loPI    C1 4913   1.637   5.109  10.898 -0.0639 -0.0512 -0.1214
  308loPI    C2 4914   1.896   4.843  11.046 -0.2369 -0.1874 -0.0604
  308loPI    C3 4915   1.828   5.185  11.240 -0.0590 -0.1246 -0.1075
  308loPI   PO4 4916   1.544   4.894  10.631  0.1493  0.1522 -0.2262
  308loPI   GL1 4917   1.313   5.002  10.277 -0.0551 -0.1248 -0.3439
  308loPI   GL2 4918   1.035   4.778  10.427 -0.0856  0.1793 -0.2121
  308loPI   C1A 4919   1.112   5.018   9.988  0.4569  0.0245 -0.3190
  308loPI   C2A 4920   0.881   4.721   9.749  0.1467 -0.4296  0.0205
  308loPI   C3A 4921   0.459   4.657   9.544 -0.1920 -0.1875 -0.1783
  308loPI   C4A 4922   0.313   4.795   9.162  0.5520 -0.0393 -0.0466
  308loPI   C5A 4923   0.212   4.918   8.758 -0.1577 -0.0934 -0.0011
  308loPI   C6A 4924   0.243   4.890   8.424 -0.1352  0.3389 -0.2359
  308loPI   C1B 4925   0.676   5.080  10.230  0.0873  0.0268  0.2357
  308loPI   C2B 4926   0.694   5.268   9.928 -0.4231  0.2232 -0.2017
  308loPI   C3B 4927   0.809   5.223   9.580 -0.1555  0.0486  0.2002
  308loPI   C4B 4928   0.942   4.883   9.244 -0.0046  0.2469  0.1079
  309loPI    C1 4929  10.723  12.732  11.084  0.1593 -0.2517 -0.0680
  309loPI    C2 4930  10.422  12.596  11.310  0.0191  0.0330 -0.0790
  309loPI    C3 4931  10.671  12.338  11.132 -0.1869 -0.2042 -0.0289
  309loPI   PO4 4932  10.612  12.904  10.951  0.1616 -0.0090 -0.1501
  309loPI   GL1 4933  10.518  12.948  10.547 -0.3882 -0.2282 -0.2374
  309loPI   GL2 4934  10.811  13.097  10.517  0.1603 -0.2262  0.0617
  309loPI   C1A 4935  10.225  13.021  10.193 -0.3628  0.0114  0.0568
  309loPI   C2A 4936  10.208  13.179   9.814  0.0587  0.0060 -0.0231
  309loPI   C3A 4937  10.456  13.138   9.434  0.0745  0.0197 -0.2575
  309loPI   C4A 4938  10.453  13.311   9.019 -0.0778 -0.0670  0.0157
  309loPI   C5A 4939  10.186  13.525   8.667 -0.0340  0.1188 -0.0023
  309loPI   C6A 4940   9.759  13.597   8.466 -0.2091  0.0503  0.0777
  309loPI   C1B 4941  10.673  13.204  10.070  0.0998 -0.2358  0.0507
  309loPI   C2B 4942  10.857  13.163   9.741  0.0242 -0.1086  0.0869
  309loPI   C3B 4943  10.864  12.998   9.306  0.0525 -0.2174 -0.0574
  309loPI   C4B 4944  11.105  12.961   8.925  0.0354 -0.0372  0.0856
  310loPI    C1 4945  10.365   5.452  10.544  0.0381  0.3134  0.0072
  310loPI    C2 4946  10.750   5.395  10.448 -0.0225 -0.2324  0.0572
  310loPI    C3 4947  10.623   5.324  10.821 -0.1570  0.0347  0.0647
  310loPI   PO4 4948  10.220   5.423  10.323  0.0386  0.0120 -0.1599
  310loPI   GL1 4949  10.131   5.492   9.948 -0.2038  0.1854  0.2637
  310loPI   GL2 4950  10.106   5.673   9.713  0.0690 -0.0072  0.0724
  310loPI   C1A 4951  10.487   5.406   9.590 -0.0589 -0.0102 -0.0796
  310loPI   C2A 4952  10.566   5.334   9.153  0.3855  0.0581 -0.1144
  310loPI   C3A 4953  10.399   5.010   8.785  0.0188  0.0206  0.0914
  310loPI   C4A 4954  10.445   4.662   8.500 -0.0442  0.2123  0.1752
  310loPI   C5A 4955  10.475   4.371   8.211  0.2913 -0.1658 -0.2376
  310loPI   C6A 4956  10.238   4.041   8.255 -0.0716  0.0830  0.1276
  310loPI   C1B 4957  10.129   5.737   9.251  0.0027 -0.2213  0.2803
  310loPI   C2B 4958  10.142   5.585   8.816 -0.0619 -0.0491  0.0718
  310loPI   C3B 4959   9.868   5.657   8.554 -0.2627 -0.1229  0.0680
  310loPI   C4B 4960   9.678   5.625   8.061  0.0832  0.3751 -0.1021
  311loPI    C1 4961   9.748   8.842  10.617 -0.0890  0.0255  0.1263
  311loPI    C2 4962   9.450   9.108  10.595 -0.0235  0.1043  0.1885
  311loPI    C3 4963   9.680   9.091  10.922  0.0303  0.0327  0.1472
  311loPI   PO4 4964   9.863   8.900  10.323  0.0919  0.0115  0.1238
  311loPI   GL1 4965   9.822   8.884   9.947 -0.1322 -0.0484  0.3483
  311loPI   GL2 4966  10.126   8.906   9.880 -0.4075 -0.0252  0.2558
  311loPI   C1A 4967   9.740   9.048   9.531  0.0351 -0.0490  0.1892
  311loPI   C2A 4968   9.584   8.993   9.077 -0.2144  0.0933  0.0082
  311loPI   C3A 4969   9.585   8.695   8.717 -0.2518 -0.1476  0.2548
  311loPI   C4A 4970   9.545   8.381   8.353  0.1075 -0.1620  0.0142
  311loPI   C5A 4971   9.671   7.976   8.201  0.0107  0.1775 -0.3679
  311loPI   C6A 4972   9.664   7.617   7.891 -0.4039  0.1901  0.1308
  311loPI   C1B 4973  10.241   8.912   9.504 -0.2975  0.1867 -0.2937
  311loPI   C2B 4974  10.085   9.010   9.173 -0.2192  0.0331  0.1565
  311loPI   C3B 4975  10.070   8.828   8.803  0.2016 -0.2199  0.2751
  311loPI   C4B 4976   9.942   8.739   8.369  0.1619 -0.1968 -0.1363
  312loPI    C1 4977   6.625  16.272  10.841  0.0633 -0.0510 -0.0057
  312loPI    C2 4978   6.617  16.305  11.240  0.1487 -0.0216 -0.0062
  312loPI    C3 4979   6.666  15.947  11.070 -0.1024 -0.0638  0.0068
  312loPI   PO4 4980   6.428  16.513  10.761  0.0945 -0.0108  0.1350
  312loPI   GL1 4981   6.563  16.637  10.378  0.0867  0.3370 -0.1965
  312loPI   GL2 4982   6.515  16.299  10.353  0.0894 -0.3931  0.0414
  312loPI   C1A 4983   6.486  16.837   9.948 -0.0140 -0.0034 -0.1570
  312loPI   C2A 4984   6.310  17.070   9.712 -0.0504 -0.1821  0.0904
  312loPI   C3A 4985   6.418  17.254   9.335 -0.1411 -0.0656 -0.1863
  312loPI   C4A 4986   6.428  17.260   8.886 -0.0701  0.2090  0.1268
  312loPI   C5A 4987   6.165  17.331   8.613 -0.0735 -0.2672 -0.1815
  312loPI   C6A 4988   5.696  17.087   8.645  0.1016 -0.0384 -0.0835
  312loPI   C1B 4989   6.526  16.317   9.940 -0.0337  0.0231  0.0706
  312loPI   C2B 4990   6.376  16.586   9.550 -0.1170 -0.1605 -0.1683
  312loPI   C3B 4991   6.477  16.602   9.107 -0.0202  0.0577 -0.1184
  312loPI   C4B 4992   6.449  16.666   8.721  0.0383  0.2201 -0.0073
  313loPI    C1 4993  11.125  12.213  10.997  0.1038 -0.1183 -0.0044
  313loPI    C2 4994  11.303  11.862  11.069 -0.0003 -0.1512  0.0962
  313loPI    C3 4995  11.430  12.193  11.255  0.0606 -0.1454  0.0448
  313loPI   PO4 4996  11.191  12.276  10.747  0.1643 -0.1665  0.1404
  313loPI   GL1 4997  11.239  12.390  10.293 -0.0977 -0.2866  0.0400
  313loPI   GL2 4998  10.921  12.210  10.190 -0.1382 -0.0405 -0.2702
  313loPI   C1A 4999  11.293  12.286   9.911  0.0885  0.1154  0.0214
  313loPI   C2A 5000  11.327  12.143   9.496 -0.1890 -0.2129 -0.3199
  313loPI   C3A 5001  11.304  12.106   9.173 -0.1257 -0.0578 -0.1600
  313loPI   C4A 5002  11.369  12.173   8.793 -0.1612  0.0018 -0.1799
  313loPI   C5A 5003  11.419  12.498   8.439  0.0959 -0.1009  0.2883
  313loPI   C6A 5004  11.211  12.914   8.357  0.0702  0.2244 -0.0289
  313loPI   C1B 5005  10.772  12.243   9.868  0.2749 -0.1191 -0.0874
  313loPI   C2B 5006  10.689  12.144   9.486 -0.0727 -0.1245 -0.0707
  313loPI   C3B 5007  10.764  11.907   9.089 -0.1042 -0.0379  0.0538
  313loPI   C4B 5008  10.763  11.900   8.714  0.1359  0.1574  0.2611
  314loPI    C1 5009   3.671  12.875  10.671  0.0127  0.2112  0.1471
  314loPI    C2 5010   3.298  12.942  10.800 -0.0872 -0.1183  0.0389
  314loPI    C3 5011   3.594  12.890  11.064 -0.1278  0.0812  0.1255
  314loPI   PO4 5012   3.705  13.072  10.500  0.0971 -0.2669  0.1017
  314loPI   GL1 5013   3.676  13.200  10.059 -0.1331  0.4693 -0.1097
  314loPI   GL2 5014   3.505  13.418   9.823  0.0666 -0.1452 -0.1792
  314loPI   C1A 5015   3.746  12.968   9.686  0.2794 -0.0173 -0.2911
  314loPI   C2A 5016   3.908  13.015   9.232 -0.0849 -0.2022  0.0850
  314loPI   C3A 5017   3.977  12.931   8.780 -0.2078  0.2461  0.2256
  314loPI   C4A 5018   4.189  13.140   8.371 -0.0361 -0.1571  0.1807
  314loPI   C5A 5019   4.607  13.275   8.280  0.0541  0.0432 -0.0435
  314loPI   C6A 5020   5.067  13.387   8.564 -0.0690  0.0091  0.0572
  314loPI   C1B 5021   3.648  13.407   9.341  0.1298  0.0918 -0.0659
  314loPI   C2B 5022   3.639  13.362   8.866 -0.1355  0.1958  0.2119
  314loPI   C3B 5023   3.993  13.573   8.647  0.0814  0.1816  0.3141
  314loPI   C4B 5024   4.216  13.658   8.250  0.0764  0.2106 -0.2235
  315loPI    C1 5025   8.799   5.692  10.853  0.1793 -0.0535  0.1821
  315loPI    C2 5026   8.546   5.664  11.161  0.0393  0.1859  0.0912
  315loPI    C3 5027   8.899   5.844  11.209  0.0024  0.2555  0.1035
  315loPI   PO4 5028   8.807   5.460  10.616 -0.0846  0.0857 -0.3027
  315loPI   GL1 5029   8.523   5.418  10.189  0.2495 -0.1081  0.1046
  315loPI   GL2 5030   8.748   5.129  10.102  0.0025  0.2327 -0.0569
  315loPI   C1A 5031   8.319   5.242   9.801 -0.1885  0.1328 -0.1462
  315loPI   C2A 5032   8.112   5.014   9.466  0.1079  0.0522 -0.2303
  315loPI   C3A 5033   8.253   4.901   9.097  0.0094 -0.1715  0.0055
  315loPI   C4A 5034   8.125   4.747   8.696  0.2540 -0.2362  0.0173
  315loPI   C5A 5035   8.127   4.857   8.254 -0.0396  0.2399  0.2524
  315loPI   C6A 5036   8.217   4.592   7.782  0.0959  0.1100 -0.1202
  315loPI   C1B 5037   8.630   4.862   9.825 -0.1283  0.0643 -0.2632
  315loPI   C2B 5038   8.550   4.787   9.499 -0.2871 -0.1270 -0.2407
  315loPI   C3B 5039   8.596   4.596   9.004 -0.1258 -0.0783  0.2102
  315loPI   C4B 5040   8.508   4.427   8.593 -0.0431  0.0662  0.0064
  316loPI    C1 5041   2.591  14.429  10.373  0.0697 -0.1488  0.0258
  316loPI    C2 5042   2.946  14.586  10.467  0.0545  0.0069 -0.1687
  316loPI    C3 5043   2.680  14.506  10.755  0.1370  0.1579 -0.0486
  316loPI   PO4 5044   2.739  14.084  10.249  0.1187 -0.2123 -0.4486
  316loPI   GL1 5045   2.738  13.895   9.820 -0.0174  0.0362  0.3161
  316loPI   GL2 5046   2.526  13.745   9.976 -0.3004  0.1845 -0.0799
  316loPI   C1A 5047   2.881  13.963   9.415 -0.2218  0.0126  0.2060
  316loPI   C2A 5048   2.878  13.875   8.975  0.4072  0.0632 -0.1799
  316loPI   C3A 5049   2.957  14.088   8.585 -0.3235  0.2558 -0.2597
  316loPI   C4A 5050   2.870  14.291   8.135  0.0771 -0.1612 -0.0729
  316loPI   C5A 5051   2.933  14.718   8.108  0.0527 -0.2479 -0.1349
  316loPI   C6A 5052   2.754  15.093   7.944 -0.2871  0.1527 -0.0107
  316loPI   C1B 5053   2.503  13.567   9.544 -0.0011 -0.0822 -0.0737
  316loPI   C2B 5054   2.657  13.489   9.132 -0.1006  0.2517 -0.2597
  316loPI   C3B 5055   2.553  13.366   8.809  0.0918  0.2733 -0.1164
  316loPI   C4B 5056   2.339  13.426   8.428 -0.1076  0.1748  0.2299
  317loPI    C1 5057  11.872  15.951  10.789 -0.0847  0.1426 -0.0567
  317loPI    C2 5058  11.925  16.186  11.109 -0.2599  0.1856 -0.0581
  317loPI    C3 5059  11.681  15.869  11.131 -0.1601  0.1044 -0.1076
  317loPI   PO4 5060  11.872  16.095  10.614 -0.1796  0.0231  0.0502
  317loPI   GL1 5061  11.785  16.120  10.310 -0.2059  0.2391  0.2820
  317loPI   GL2 5062  12.025  16.097  10.124 -0.1411  0.1302 -0.0622
  317loPI   C1A 5063  11.551  16.088   9.938 -0.0318 -0.0969 -0.3391
  317loPI   C2A 5064  11.523  16.231   9.463 -0.0577  0.1345 -0.2744
  317loPI   C3A 5065  11.501  16.442   9.071  0.1322  0.2646 -0.2452
  317loPI   C4A 5066  11.706  16.785   8.914 -0.0596  0.2157 -0.4162
  317loPI   C5A 5067  11.920  16.821   8.568  0.2047  0.1334  0.0776
  317loPI   C6A 5068  12.258  16.949   8.266  0.1067  0.1229  0.1597
  317loPI   C1B 5069  12.118  16.116   9.595  0.2623 -0.1309  0.0469
  317loPI   C2B 5070  12.047  16.154   9.297  0.1372  0.3057  0.1061
  317loPI   C3B 5071  12.126  15.843   8.985  0.0143 -0.2206  0.1255
  317loPI   C4B 5072  11.892  15.641   8.675 -0.0689  0.2802  0.0245
  318loPI    C1 5073  10.113   8.429  10.441  0.0311  0.1088  0.0907
  318loPI    C2 5074   9.718   8.374  10.467  0.0267  0.1075  0.0230
  318loPI    C3 5075   9.968   8.091  10.597  0.0066  0.2048  0.2785
  318loPI   PO4 5076  10.154   8.497  10.203 -0.0253 -0.1724  0.2322
  318loPI   GL1 5077  10.076   8.194   9.853 -0.0483  0.1904  0.1617
  318loPI   GL2 5078  10.399   8.391   9.781  0.1864  0.0327  0.1946
  318loPI   C1A 5079  10.104   8.074   9.499 -0.1458 -0.2952  0.1028
  318loPI   C2A 5080  10.092   8.069   9.159 -0.0381  0.0029  0.0458
  318loPI   C3A 5081  10.322   7.938   8.795  0.3329 -0.2266 -0.2329
  318loPI   C4A 5082  10.584   7.938   8.531  0.0854 -0.3433  0.0740
  318loPI   C5A 5083  10.596   7.880   8.058  0.2464  0.0634 -0.2955
  318loPI   C6A 5084  10.877   7.670   7.820 -0.3190 -0.1321  0.2919
  318loPI   C1B 5085  10.429   8.473   9.429  0.2969  0.0271 -0.2789
  318loPI   C2B 5086  10.428   8.423   8.987  0.2566  0.1381  0.1555
  318loPI   C3B 5087  10.435   8.445   8.605 -0.1674 -0.0907 -0.0668
  318loPI   C4B 5088  10.275   8.272   8.314  0.0725  0.1116 -0.0336
  319loPI    C1 5089  12.559   1.511  10.779 -0.0338 -0.1572  0.0134
  319loPI    C2 5090  12.843   1.698  10.989 -0.0946  0.0117 -0.0531
  319loPI    C3 5091  12.725   1.331  11.095 -0.2147  0.1438  0.2861
  319loPI   PO4 5092  12.655   1.520  10.551 -0.2042  0.0945  0.1540
  319loPI   GL1 5093  12.747   1.250  10.222 -0.2857  0.0640  0.1963
  319loPI   GL2 5094  12.955   1.415  10.168 -0.1691 -0.0358 -0.3764
  319loPI   C1A 5095  12.860   1.338   9.715 -0.2399 -0.2458  0.4321
  319loPI   C2A 5096  12.882   1.391   9.402 -0.1941  0.2590 -0.1255
  319loPI   C3A 5097  13.004   1.618   9.100  0.1372 -0.0432  0.3579
  319loPI   C4A 5098  13.083   1.787   8.734  0.1915  0.1449 -0.1705
  319loPI   C5A 5099  12.912   1.901   8.267  0.0405  0.0812  0.0519
  319loPI   C6A 5100  12.683   2.041   7.928 -0.0662 -0.1496 -0.0670
  319loPI   C1B 5101  13.308   1.381   9.806 -0.1692 -0.1650 -0.1069
  319loPI   C2B 5102  13.427   1.373   9.351 -0.2710 -0.1170 -0.0697
  319loPI   C3B 5103  13.520   1.371   8.917 -0.0994  0.0900  0.0846
  319loPI   C4B 5104  13.349   1.389   8.453  0.1134  0.1695 -0.1889
  320loPI    C1 5105  17.685   8.111  10.419 -0.0104 -0.2322 -0.0173
  320loPI    C2 5106  18.074   8.030  10.468  0.0232 -0.0729 -0.0138
  320loPI    C3 5107  17.836   8.068  10.787 -0.0013 -0.1964 -0.0168
  320loPI   PO4 5108  17.737   8.424  10.287 -0.3629  0.0226 -0.4053
  320loPI   GL1 5109  17.850   8.724  10.005 -0.1857 -0.0709 -0.0730
  320loPI   GL2 5110  17.727   9.108   9.979 -0.0203  0.1939  0.2737
  320loPI   C1A 5111  17.999   8.823   9.646 -0.0861 -0.0428 -0.0496
  320loPI   C2A 5112  18.024   8.893   9.306  0.2857  0.0668 -0.0813
  320loPI   C3A 5113  18.038   8.726   8.925 -0.4573  0.1286  0.0364
  320loPI   C4A 5114  18.169   8.844   8.562 -0.0831 -0.4711 -0.2167
  320loPI   C5A 5115  18.406   8.842   8.185  0.2565  0.1820  0.0536
  320loPI   C6A 5116  18.469   8.613   7.910 -0.1666 -0.1835  0.0373
  320loPI   C1B 5117  17.783   9.310   9.556  0.0175 -0.3705 -0.0860
  320loPI   C2B 5118  17.815   9.398   9.176 -0.2088 -0.1321  0.0936
  320loPI   C3B 5119  17.927   9.270   8.831  0.1235  0.1236 -0.0978
  320loPI   C4B 5120  17.967   9.255   8.336 -0.0788 -0.1098 -0.0895
  321loPI    C1 5121   7.355  12.570  10.794 -0.1174  0.0850  0.2663
  321loPI    C2 5122   6.969  12.547  10.894 -0.1226  0.0369  0.2355
  321loPI    C3 5123   7.120  12.892  10.760 -0.2658 -0.0640 -0.2025
  321loPI   PO4 5124   7.398  12.446  10.550  0.1361  0.2464  0.0515
  321loPI   GL1 5125   7.524  12.668  10.232 -0.0031  0.1787  0.2629
  321loPI   GL2 5126   7.805  12.703  10.433 -0.2247 -0.0042 -0.0442
  321loPI   C1A 5127   7.616  12.668   9.781 -0.2056 -0.1201 -0.1511
  321loPI   C2A 5128   7.750  12.822   9.454  0.0588  0.0470 -0.0384
  321loPI   C3A 5129   8.005  12.764   9.101  0.1463 -0.1826 -0.1991
  321loPI   C4A 5130   8.301  12.941   8.764 -0.1884 -0.3429 -0.0928
  321loPI   C5A 5131   8.135  13.134   8.430  0.0213  0.2495  0.0777
  321loPI   C6A 5132   8.111  13.146   7.984 -0.1114 -0.0583  0.2419
  321loPI   C1B 5133   7.851  13.090  10.139  0.4761  0.1684  0.1830
  321loPI   C2B 5134   7.845  13.236   9.720 -0.2614  0.0113 -0.3253
  321loPI   C3B 5135   7.813  13.313   9.303 -0.1456 -0.0500 -0.0121
  321loPI   C4B 5136   7.853  13.321   8.895  0.0206 -0.0119  0.0205
  322loPI    C1 5137   8.482  11.774  10.721  0.0684  0.3081  0.4233
  322loPI    C2 5138   8.310  11.443  10.866 -0.1867  0.1787 -0.1492
  322loPI    C3 5139   8.705  11.496  10.903 -0.1802 -0.0661  0.1709
  322loPI   PO4 5140   8.454  11.803  10.427 -0.0124 -0.2283  0.0235
  322loPI   GL1 5141   8.216  11.903  10.132  0.3244  0.1790 -0.2188
  322loPI   GL2 5142   8.348  12.183  10.125 -0.0929 -0.0697  0.0446
  322loPI   C1A 5143   8.246  11.818   9.817 -0.0426 -0.0702  0.0251
  322loPI   C2A 5144   8.280  11.954   9.464  0.3174 -0.3347 -0.1956
  322loPI   C3A 5145   8.471  12.064   9.041 -0.2499 -0.1128  0.1205
  322loPI   C4A 5146   8.482  11.875   8.569  0.2894  0.0271 -0.0140
  322loPI   C5A 5147   8.794  11.661   8.464  0.2353  0.3100  0.1378
  322loPI   C6A 5148   9.059  11.914   8.156  0.0730  0.2500  0.0423
  322loPI   C1B 5149   8.450  12.287   9.810 -0.4653 -0.2644  0.1263
  322loPI   C2B 5150   8.461  12.484   9.389 -0.0231  0.0347 -0.3690
  322loPI   C3B 5151   8.496  12.594   9.020 -0.0271 -0.0155  0.1410
  322loPI   C4B 5152   8.571  12.398   8.611 -0.0245  0.0458 -0.0841
  323loPI    C1 5153  16.300   8.965  10.725  0.0276 -0.0616 -0.0256
  323loPI    C2 5154  16.490   9.107  11.046  0.0590  0.1514 -0.1368
  323loPI    C3 5155  16.090   9.105  11.035  0.0578  0.1450 -0.0968
  323loPI   PO4 5156  16.534   9.022  10.574 -0.0265 -0.0195 -0.1457
  323loPI   GL1 5157  16.872   9.075  10.247 -0.2819  0.0398  0.0186
  323loPI   GL2 5158  17.104   9.016   9.989 -0.0431  0.0091  0.1468
  323loPI   C1A 5159  16.763   9.142   9.708  0.2060  0.0937  0.1194
  323loPI   C2A 5160  16.915   9.060   9.274 -0.3564 -0.0270  0.0800
  323loPI   C3A 5161  17.113   9.021   8.914  0.0085  0.0637  0.1250
  323loPI   C4A 5162  17.078   8.880   8.503 -0.0294  0.3688 -0.0265
  323loPI   C5A 5163  17.149   8.653   8.059 -0.0951  0.0447  0.0170
  323loPI   C6A 5164  17.528   8.444   7.935 -0.1058  0.2123 -0.0220
  323loPI   C1B 5165  17.348   9.036   9.700 -0.1405 -0.0575  0.0054
  323loPI   C2B 5166  17.522   8.941   9.347 -0.0660  0.0950 -0.0672
  323loPI   C3B 5167  17.589   8.876   8.860 -0.0209 -0.0845 -0.2506
  323loPI   C4B 5168  17.678   8.719   8.448  0.2621 -0.0826  0.1527
  324loPI    C1 5169   4.152  12.741  10.708 -0.1818 -0.2183  0.0686
  324loPI    C2 5170   4.218  13.131  10.770 -0.0630 -0.2162 -0.0671
  324loPI    C3 5171   4.099  12.898  11.072 -0.1405 -0.0737  0.0132
  324loPI   PO4 5172   4.415  12.633  10.572 -0.0636  0.2311  0.0411
  324loPI   GL1 5173   4.445  12.480  10.150 -0.3665  0.0853 -0.1225
  324loPI   GL2 5174   4.405  12.820   9.988 -0.0872  0.2533 -0.0498
  324loPI   C1A 5175   4.366  12.308   9.797  0.1984  0.2310 -0.0513
  324loPI   C2A 5176   4.421  12.402   9.340 -0.0446  0.1893  0.1600
  324loPI   C3A 5177   4.512  12.382   8.933  0.0416 -0.0720 -0.2196
  324loPI   C4A 5178   4.300  12.384   8.538 -0.2582 -0.0210  0.0932
  324loPI   C5A 5179   3.991  12.569   8.289 -0.2851 -0.3683  0.1756
  324loPI   C6A 5180   4.052  12.695   7.899  0.1609 -0.1505  0.0890
  324loPI   C1B 5181   4.255  12.865   9.580 -0.3672 -0.0388  0.1348
  324loPI   C2B 5182   4.345  12.816   9.113  0.3781  0.0855  0.0051
  324loPI   C3B 5183   4.508  12.803   8.710 -0.1453  0.0432 -0.2032
  324loPI   C4B 5184   4.888  12.945   8.491 -0.0055 -0.0035 -0.0630
  325loPI    C1 5185  17.242  15.716  10.605 -0.0711  0.0140 -0.0253
  325loPI    C2 5186  16.960  15.785  10.880 -0.3802 -0.1582 -0.2914
  325loPI    C3 5187  17.189  15.458  10.906 -0.0390  0.0980  0.0528
  325loPI   PO4 5188  17.136  15.900  10.397  0.0426 -0.0750  0.1046
  325loPI   GL1 5189  16.875  15.773  10.049 -0.1990 -0.2196 -0.1500
  325loPI   GL2 5190  16.795  16.117  10.098  0.1505  0.1031  0.1493
  325loPI   C1A 5191  16.979  15.680   9.581  0.3166 -0.3298 -0.3455
  325loPI   C2A 5192  17.024  15.602   9.118 -0.1417  0.0395 -0.4309
  325loPI   C3A 5193  16.939  15.510   8.748  0.0317  0.2246 -0.0241
  325loPI   C4A 5194  16.860  15.290   8.481 -0.0279 -0.1121  0.1133
  325loPI   C5A 5195  17.036  15.303   8.130  0.1860 -0.0560 -0.1833
  325loPI   C6A 5196  17.036  15.483   7.817  0.0379 -0.0002 -0.0820
  325loPI   C1B 5197  16.935  16.170   9.649  0.1718  0.0464 -0.3212
  325loPI   C2B 5198  17.036  16.072   9.255 -0.2742 -0.2398  0.1434
  325loPI   C3B 5199  17.208  16.012   8.876 -0.0774 -0.3042  0.1445
  325loPI   C4B 5200  17.366  16.073   8.420 -0.0361 -0.1597 -0.1493
  326loPI    C1 5201   9.598   6.265  10.136 -0.3193 -0.0550 -0.0833
  326loPI    C2 5202   9.551   6.546  10.416  0.3782 -0.0122  0.0101
  326loPI    C3 5203   9.665   6.178  10.521  0.3757 -0.0724 -0.1949
  326loPI   PO4 5204   9.752   6.308   9.966  0.1388 -0.0948  0.2094
  326loPI   GL1 5205   9.808   6.094   9.625 -0.1204  0.0549  0.1958
  326loPI   GL2 5206   9.664   5.797   9.815  0.2322 -0.0903 -0.4666
  326loPI   C1A 5207  10.201   6.219   9.422  0.2126  0.0014  0.5037
  326loPI   C2A 5208  10.206   6.342   8.943  0.2611 -0.3622 -0.0324
  326loPI   C3A 5209  10.110   6.451   8.481 -0.2316 -0.2502  0.1729
  326loPI   C4A 5210   9.734   6.556   8.216 -0.0099  0.0759  0.0332
  326loPI   C5A 5211   9.465   6.179   7.954  0.0339 -0.0093  0.2937
  326loPI   C6A 5212   9.234   5.944   7.634  0.0594  0.0310  0.1312
  326loPI   C1B 5213   9.642   5.567   9.477  0.0185  0.2330  0.0059
  326loPI   C2B 5214   9.662   5.497   9.017 -0.0493 -0.1794  0.1868
  326loPI   C3B 5215   9.512   5.315   8.601 -0.0856  0.1879  0.0955
  326loPI   C4B 5216   9.437   5.147   8.140  0.2115 -0.1126  0.0669
  327loPI    C1 5217   2.333  15.133  10.777  0.3077 -0.0727 -0.0011
  327loPI    C2 5218   2.412  15.421  11.044 -0.2209  0.1185 -0.0397
  327loPI    C3 5219   2.180  15.111  11.146 -0.4605  0.2140 -0.2836
  327loPI   PO4 5220   2.533  15.001  10.707 -0.0063  0.1990 -0.3806
  327loPI   GL1 5221   2.547  14.984  10.328 -0.0583 -0.1018  0.1663
  327loPI   GL2 5222   2.371  14.850  10.001  0.1218 -0.0350 -0.1721
  327loPI   C1A 5223   2.883  14.860  10.077 -0.2545 -0.1050 -0.1731
  327loPI   C2A 5224   3.026  14.844   9.607  0.1727  0.1454 -0.0144
  327loPI   C3A 5225   3.192  14.758   9.120  0.0615 -0.4348  0.1606
  327loPI   C4A 5226   3.357  14.999   8.715  0.2405 -0.1054 -0.1378
  327loPI   C5A 5227   3.141  15.173   8.406 -0.1067  0.0429 -0.2948
  327loPI   C6A 5228   3.088  15.473   8.166 -0.1748  0.0894 -0.0261
  327loPI   C1B 5229   2.535  14.901   9.653  0.1342  0.1220 -0.0302
  327loPI   C2B 5230   2.521  14.912   9.224 -0.0168 -0.2959 -0.4384
  327loPI   C3B 5231   2.470  14.768   8.769  0.2718  0.1352 -0.0406
  327loPI   C4B 5232   2.620  14.848   8.437  0.0536 -0.0941  0.2286
  328loPI    C1 5233   6.011   9.033  10.686 -0.0724  0.0670  0.1288
  328loPI    C2 5234   6.187   9.071  11.043 -0.0113  0.0510  0.1006
  328loPI    C3 5235   6.410   9.032  10.714 -0.0672 -0.3750  0.1074
  328loPI   PO4 5236   5.847   8.929  10.702 -0.0772  0.1790 -0.0168
  328loPI   GL1 5237   5.666   8.868  10.310  0.1036  0.0931  0.3972
  328loPI   GL2 5238   5.818   8.509  10.291  0.0413 -0.1641  0.2581
  328loPI   C1A 5239   5.816   9.082   9.908  0.3950  0.0924  0.0056
  328loPI   C2A 5240   5.774   9.098   9.510  0.1732 -0.4635 -0.1604
  328loPI   C3A 5241   5.725   9.056   9.083 -0.0187  0.1813  0.2431
  328loPI   C4A 5242   5.713   8.901   8.635 -0.2941 -0.1877  0.1517
  328loPI   C5A 5243   5.551   9.085   8.291 -0.0484  0.1641  0.3296
  328loPI   C6A 5244   5.188   9.400   8.237  0.3531  0.3152 -0.2266
  328loPI   C1B 5245   5.787   8.520   9.838  0.0424  0.0714  0.0803
  328loPI   C2B 5246   5.733   8.617   9.383  0.1501  0.1806 -0.0141
  328loPI   C3B 5247   5.979   8.631   8.983 -0.2190 -0.3587  0.1458
  328loPI   C4B 5248   6.203   8.536   8.540  0.2673  0.1102 -0.0457
  329loPI    C1 5249  12.525  16.018  11.040 -0.0760  0.0775 -0.1580
  329loPI    C2 5250  12.900  16.000  11.179 -0.0894  0.0363 -0.1266
  329loPI    C3 5251  12.744  16.351  11.066 -0.0992  0.0799  0.0215
  329loPI   PO4 5252  12.342  15.832  10.905 -0.0138  0.1317  0.1734
  329loPI   GL1 5253  12.075  15.693  10.417  0.1243  0.0414 -0.2910
  329loPI   GL2 5254  11.895  15.587  10.212 -0.0719  0.1597 -0.1017
  329loPI   C1A 5255  12.365  15.773  10.049 -0.1276 -0.1329 -0.0662
  329loPI   C2A 5256  12.626  16.065   9.755  0.0914  0.4078 -0.2556
  329loPI   C3A 5257  12.677  16.158   9.316 -0.0902  0.2373 -0.1738
  329loPI   C4A 5258  12.427  16.227   9.027 -0.2754  0.0636 -0.3256
  329loPI   C5A 5259  12.289  16.139   8.559 -0.1422  0.4432 -0.1126
  329loPI   C6A 5260  12.475  16.014   8.164  0.0822 -0.1008  0.2263
  329loPI   C1B 5261  11.897  15.677   9.837  0.0970 -0.0576 -0.1726
  329loPI   C2B 5262  11.807  15.743   9.418  0.0085 -0.1733 -0.1217
  329loPI   C3B 5263  11.620  15.971   9.091 -0.0065 -0.2598 -0.1487
  329loPI   C4B 5264  11.857  16.302   8.693  0.1409  0.1719 -0.0319
  330loPI    C1 5265   2.181   1.356  11.108  0.2437 -0.1793 -0.1014
  330loPI    C2 5266   2.338   1.723  11.121  0.2565 -0.1836 -0.1327
  330loPI    C3 5267   2.138   1.581  11.436 -0.0278 -0.0265 -0.2387
  330loPI   PO4 5268   1.955   1.378  10.912 -0.0399 -0.2598  0.3017
  330loPI   GL1 5269   1.829   1.627  10.585  0.1474 -0.0260  0.1768
  330loPI   GL2 5270   2.184   1.743  10.503 -0.1342 -0.0875  0.3480
  330loPI   C1A 5271   1.721   1.707  10.111 -0.0938  0.1288 -0.0932
  330loPI   C2A 5272   1.896   1.667   9.656 -0.1188 -0.2276 -0.0429
  330loPI   C3A 5273   1.924   1.547   9.194 -0.1395 -0.1012 -0.1705
  330loPI   C4A 5274   1.927   1.304   8.804  0.1338  0.2079  0.0156
  330loPI   C5A 5275   1.747   1.152   8.486 -0.1091 -0.2639 -0.0108
  330loPI   C6A 5276   1.494   0.901   8.233  0.4345 -0.3378  0.0932
  330loPI   C1B 5277   2.173   1.832  10.040 -0.1036 -0.0618  0.2019
  330loPI   C2B 5278   2.288   1.930   9.603 -0.3882  0.0035 -0.0734
  330loPI   C3B 5279   2.363   1.830   9.181 -0.0007 -0.0318  0.0645
  330loPI   C4B 5280   2.378   1.589   8.851  0.1163 -0.2972 -0.1996
  331loPI    C1 5281  13.789   0.956  10.864  0.2050  0.0321 -0.0231
  331loPI    C2 5282  14.025   0.754  10.612  0.0720  0.0028 -0.1256
  331loPI    C3 5283  13.896   0.580  10.948  0.2403  0.0380 -0.0416
  331loPI   PO4 5284  13.554   1.034  10.678 -0.0464  0.3199 -0.0586
  331loPI   GL1 5285  13.266   0.991  10.367  0.1582  0.0073  0.3216
  331loPI   GL2 5286  13.508   1.129  10.182  0.0347  0.3084 -0.0315
  331loPI   C1A 5287  12.966   0.868   9.953 -0.0730  0.3523  0.3060
  331loPI   C2A 5288  13.117   0.900   9.576  0.0036 -0.3605 -0.1522
  331loPI   C3A 5289  13.219   0.953   9.154 -0.1744 -0.0410 -0.1601
  331loPI   C4A 5290  13.180   0.977   8.717 -0.1734 -0.0424  0.0561
  331loPI   C5A 5291  13.157   0.932   8.329 -0.1071 -0.0468  0.3258
  331loPI   C6A 5292  13.345   0.706   7.958 -0.4307  0.1558 -0.1254
  331loPI   C1B 5293  13.718   1.104   9.711  0.2191 -0.0391  0.1285
  331loPI   C2B 5294  13.674   0.831   9.495  0.1334  0.3802 -0.1077
  331loPI   C3B 5295  13.704   0.957   9.098 -0.2148  0.1187 -0.1553
  331loPI   C4B 5296  13.759   0.911   8.601 -0.1186 -0.1969  0.2481
  332loPI    C1 5297   7.184  13.505  11.003 -0.1876  0.0970 -0.0986
  332loPI    C2 5298   6.935  13.620  11.295 -0.2392  0.3140 -0.2257
  332loPI    C3 5299   7.297  13.787  11.264 -0.1019  0.0490 -0.0838
  332loPI   PO4 5300   7.080  13.480  10.766  0.0253  0.0586 -0.2096
  332loPI   GL1 5301   6.959  13.789  10.414  0.1171 -0.2356  0.1200
  332loPI   GL2 5302   6.943  13.580  10.242  0.4499 -0.0986 -0.2285
  332loPI   C1A 5303   6.884  14.142  10.128  0.0266 -0.1272  0.0739
  332loPI   C2A 5304   6.761  14.244   9.719  0.3069  0.1053 -0.1689
  332loPI   C3A 5305   6.755  14.448   9.353  0.2467 -0.0949 -0.4836
  332loPI   C4A 5306   6.929  14.660   8.973  0.0006  0.1092 -0.0551
  332loPI   C5A 5307   7.175  14.579   8.570 -0.4664  0.1926  0.1428
  332loPI   C6A 5308   7.225  14.382   8.229  0.4744  0.3873 -0.1530
  332loPI   C1B 5309   6.993  13.749   9.895  0.5576 -0.2153 -0.1326
  332loPI   C2B 5310   6.992  13.748   9.554 -0.1089 -0.1915  0.0779
  332loPI   C3B 5311   6.868  13.922   9.277 -0.2472  0.0821  0.1851
  332loPI   C4B 5312   6.771  14.203   8.942 -0.1021 -0.1451 -0.0687
  333loPI    C1 5313  15.669   5.228  10.371 -0.0168 -0.2023 -0.1409
  333loPI    C2 5314  15.509   5.430  10.677  0.3195 -0.1019 -0.0268
  333loPI    C3 5315  15.272   5.235  10.420  0.0277 -0.1011  0.2357
  333loPI   PO4 5316  15.839   5.484  10.215 -0.1169 -0.2234  0.0700
  333loPI   GL1 5317  15.892   5.573   9.813  0.0355 -0.2322 -0.0148
  333loPI   GL2 5318  16.224   5.621   9.882 -0.1170 -0.2719  0.0828
  333loPI   C1A 5319  16.019   5.497   9.388  0.0591  0.2541 -0.1021
  333loPI   C2A 5320  15.776   5.540   8.993 -0.0820  0.1345 -0.0340
  333loPI   C3A 5321  15.750   5.310   8.667 -0.0246 -0.1015  0.0241
  333loPI   C4A 5322  15.581   5.473   8.364 -0.0050 -0.1227 -0.2336
  333loPI   C5A 5323  15.402   5.407   8.006  0.2153 -0.0424 -0.3559
  333loPI   C6A 5324  14.996   5.326   7.777 -0.0206  0.3207 -0.3757
  333loPI   C1B 5325  16.477   5.676   9.511 -0.3662 -0.1475 -0.1472
  333loPI   C2B 5326  16.489   5.700   9.180  0.0791  0.1163 -0.1080
  333loPI   C3B 5327  16.246   5.655   8.789  0.0408 -0.0427  0.0354
  333loPI   C4B 5328  16.080   5.598   8.422 -0.1270  0.4200  0.0203
  334loPI    C1 5329  12.239  15.026  10.755  0.0090 -0.0463 -0.0731
  334loPI    C2 5330  12.476  15.319  10.889 -0.1122  0.0400 -0.0460
  334loPI    C3 5331  12.582  14.937  10.941 -0.0776  0.0751  0.1484
  334loPI   PO4 5332  12.111  15.113  10.563 -0.1275 -0.1861 -0.1866
  334loPI   GL1 5333  11.846  15.089  10.280  0.1531  0.0150  0.3148
  334loPI   GL2 5334  11.929  14.995   9.864  0.1179 -0.2949  0.2207
  334loPI   C1A 5335  11.525  14.918  10.179 -0.0099  0.1639  0.1181
  334loPI   C2A 5336  11.110  15.034   9.895  0.2266  0.4458 -0.2075
  334loPI   C3A 5337  11.129  14.971   9.438 -0.3673 -0.0952  0.3600
  334loPI   C4A 5338  11.019  15.189   8.989  0.0742  0.2013 -0.1528
  334loPI   C5A 5339  10.958  15.174   8.464  0.3677 -0.1292 -0.0846
  334loPI   C6A 5340  10.737  15.460   8.211  0.0934  0.0896 -0.3237
  334loPI   C1B 5341  12.034  15.247   9.522  0.1250 -0.0195  0.1214
  334loPI   C2B 5342  12.226  15.342   9.105 -0.2149  0.0027  0.0967
  334loPI   C3B 5343  12.349  15.349   8.724  0.0015  0.0238  0.0571
  334loPI   C4B 5344  12.336  15.496   8.360 -0.1657  0.0320  0.3487
  335loPI    C1 5345  10.222   7.671  10.460  0.2353 -0.1322 -0.2097
  335loPI    C2 5346  10.429   7.951  10.657  0.1713 -0.0658 -0.2363
  335loPI    C3 5347  10.397   7.582  10.808 -0.0474  0.0387 -0.0198
  335loPI   PO4 5348  10.179   7.780  10.197 -0.1254 -0.2059  0.1280
  335loPI   GL1 5349  10.051   7.686   9.776 -0.2119 -0.2893 -0.1236
  335loPI   GL2 5350   9.796   7.536   9.583 -0.2345  0.2335 -0.1085
  335loPI   C1A 5351  10.291   7.587   9.396  0.2850 -0.1081 -0.1156
  335loPI   C2A 5352  10.161   7.320   9.042 -0.0582 -0.1247  0.2190
  335loPI   C3A 5353  10.020   7.316   8.559 -0.0412  0.0092 -0.3994
  335loPI   C4A 5354   9.665   7.453   8.339 -0.1481 -0.0444  0.0682
  335loPI   C5A 5355   9.289   7.319   8.061  0.1729  0.2878  0.0300
  335loPI   C6A 5356   8.889   7.270   8.133 -0.0203 -0.2629 -0.0380
  335loPI   C1B 5357   9.793   7.655   9.218  0.1354  0.1156 -0.0587
  335loPI   C2B 5358   9.840   7.775   8.745 -0.1656 -0.0317  0.2683
  335loPI   C3B 5359  10.094   7.784   8.368  0.0413  0.0432  0.2095
  335loPI   C4B 5360  10.107   7.928   7.900  0.0582  0.0927  0.1594
  336loPI    C1 5361   4.224  16.577  10.936  0.1008  0.0012 -0.2293
  336loPI    C2 5362   4.448  16.755  11.215  0.1091 -0.1206 -0.1574
  336loPI    C3 5363   4.090  16.906  11.120 -0.0298 -0.2526  0.1422
  336loPI   PO4 5364   4.319  16.533  10.745  0.2091 -0.2004  0.0150
  336loPI   GL1 5365   4.474  16.284  10.400  0.0133  0.1388 -0.1336
  336loPI   GL2 5366   4.736  16.087  10.153  0.1535  0.1748  0.0294
  336loPI   C1A 5367   4.335  16.373   9.923  0.2738  0.4597 -0.0904
  336loPI   C2A 5368   4.579  16.247   9.533  0.0780 -0.0460  0.1619
  336loPI   C3A 5369   4.537  16.030   9.107  0.2850 -0.2539 -0.1388
  336loPI   C4A 5370   4.535  15.748   8.694  0.0191 -0.1247  0.0001
  336loPI   C5A 5371   4.629  15.581   8.282  0.0664  0.4749  0.1382
  336loPI   C6A 5372   4.855  15.191   8.018 -0.0204 -0.4637 -0.0896
  336loPI   C1B 5373   4.592  15.779   9.827  0.0910  0.1072  0.1125
  336loPI   C2B 5374   4.760  15.729   9.472  0.3443  0.2836 -0.0788
  336loPI   C3B 5375   4.880  15.587   9.106 -0.0408 -0.1711 -0.0702
  336loPI   C4B 5376   5.063  15.661   8.702 -0.0195  0.2547  0.2635
  337loPI    C1 5377   3.844   1.121  10.965 -0.0841 -0.0200  0.1682
  337loPI    C2 5378   4.016   0.776  11.069  0.2157  0.0826  0.0221
  337loPI    C3 5379   3.786   0.970  11.332 -0.3052 -0.4343 -0.0299
  337loPI   PO4 5380   3.788   1.057  10.628  0.1094 -0.2759 -0.2975
  337loPI   GL1 5381   3.821   0.815  10.211 -0.1059  0.2896 -0.2760
  337loPI   GL2 5382   3.472   0.953  10.029  0.2794 -0.2143  0.0125
  337loPI   C1A 5383   3.805   0.719   9.755  0.2853  0.0002 -0.1457
  337loPI   C2A 5384   3.883   0.870   9.325 -0.2484 -0.0376 -0.2324
  337loPI   C3A 5385   3.933   1.148   8.951  0.0624  0.2467  0.0605
  337loPI   C4A 5386   4.118   1.339   8.710  0.3632  0.1811 -0.2324
  337loPI   C5A 5387   4.105   1.583   8.346  0.1402  0.2385  0.0148
  337loPI   C6A 5388   4.050   1.957   8.378  0.0441  0.2356  0.2489
  337loPI   C1B 5389   3.317   0.597   9.743 -0.3352 -0.4226  0.2585
  337loPI   C2B 5390   3.125   0.338   9.475  0.1340  0.1161  0.0771
  337loPI   C3B 5391   3.038   0.440   9.074 -0.1322  0.0357 -0.1192
  337loPI   C4B 5392   3.117   0.686   8.714  0.0721 -0.1298 -0.1293
  338loPI    C1 5393   9.736   9.457  10.348 -0.0565  0.0993  0.2112
  338loPI    C2 5394  10.102   9.340  10.236 -0.0996 -0.1310  0.3043
  338loPI    C3 5395  10.057   9.664  10.468  0.0318 -0.0038  0.1545
  338loPI   PO4 5396   9.610   9.300  10.168 -0.1571 -0.2101 -0.2928
  338loPI   GL1 5397   9.407   9.547   9.870 -0.1412  0.3973  0.0425
  338loPI   GL2 5398   9.707   9.523   9.726  0.2497 -0.0741  0.0100
  338loPI   C1A 5399   9.283   9.453   9.451  0.1791  0.1025  0.3096
  338loPI   C2A 5400   9.172   9.214   9.265 -0.1288  0.0227  0.0624
  338loPI   C3A 5401   9.142   8.958   8.791  0.1915 -0.2768  0.1193
  338loPI   C4A 5402   9.289   8.887   8.377 -0.4392  0.1395  0.0351
  338loPI   C5A 5403   9.565   8.756   8.012 -0.0823  0.0398 -0.2018
  338loPI   C6A 5404   9.812   8.673   7.483 -0.0991  0.1972 -0.0784
  338loPI   C1B 5405   9.901   9.482   9.248  0.1634  0.2724 -0.0658
  338loPI   C2B 5406  10.063   9.520   8.861 -0.1854  0.4990 -0.1601
  338loPI   C3B 5407   9.894   9.707   8.618  0.0249  0.1352 -0.1279
  338loPI   C4B 5408   9.918   9.719   8.223  0.1117 -0.2938 -0.2281
  339POPI    C1 5409   8.505   0.413  11.081 -0.0101 -0.1402  0.0163
  339POPI    C2 5410   8.768   0.596  11.320  0.0634  0.0244 -0.1878
  339POPI    C3 5411   8.748   0.197  11.314 -0.0968  0.0198  0.2593
  339POPI   PO4 5412   8.523   0.575  10.820 -0.0361 -0.0287  0.0116
  339POPI   GL1 5413   8.692   0.523  10.399 -0.1783 -0.1708  0.1324
  339POPI   GL2 5414   8.541   0.242  10.374  0.1192 -0.4982 -0.1685
  339POPI   C1A 5415   8.526   0.563  10.031 -0.2117  0.0059  0.0621
  339POPI   D2A 5416   8.373   0.519   9.646 -0.1143 -0.0955 -0.0958
  339POPI   C3A 5417   8.326   0.748   9.313 -0.2371 -0.0717  0.0629
  339POPI   C4A 5418   8.250   0.744   8.810  0.0002  0.1113  0.0221
  339POPI   C1B 5419   8.443   0.007  10.015  0.0833 -0.1786  0.1678
  339POPI   C2B 5420   8.329  -0.044   9.713 -0.0730  0.2101  0.0683
  339POPI   C3B 5421   8.377  -0.268   9.371 -0.0577 -0.1265  0.0399
  339POPI   C4B 5422   8.479  -0.167   8.922  0.0191  0.1097  0.0367
  340POPI    C1 5423  11.780  10.711  10.375  0.0474 -0.0229  0.0909
  340POPI    C2 5424  11.933  10.740  10.744 -0.0017 -0.0745  0.1153
  340POPI    C3 5425  11.606  10.949  10.645  0.0535 -0.0050  0.0790
  340POPI   PO4 5426  12.045  10.813  10.212 -0.0613 -0.1915 -0.0003
  340POPI   GL1 5427  12.173  10.964   9.923 -0.1928  0.2323 -0.0386
  340POPI   GL2 5428  11.851  10.832   9.760  0.1108  0.0435 -0.1632
  340POPI   C1A 5429  12.471  10.823   9.691  0.0184  0.5123  0.1065
  340POPI   D2A 5430  12.657  10.669   9.392 -0.0236  0.0800  0.1065
  340POPI   C3A 5431  12.812  10.962   9.079 -0.4400  0.3979  0.2371
  340POPI   C4A 5432  12.937  10.870   8.640 -0.0336  0.2866 -0.0765
  340POPI   C1B 5433  12.125  10.844   9.347 -0.1124 -0.1117  0.0496
  340POPI   C2B 5434  12.348  10.731   9.021 -0.1141 -0.0724 -0.1521
  340POPI   C3B 5435  12.347  10.683   8.580 -0.0543 -0.2738  0.0717
  340POPI   C4B 5436  12.619  10.674   8.153  0.1444 -0.0997 -0.0600
  341POPI    C1 5437  13.893   8.918  10.288 -0.2027 -0.0279  0.0276
  341POPI    C2 5438  14.020   8.803  10.650  0.1243  0.1363 -0.0303
  341POPI    C3 5439  13.691   9.029  10.615 -0.0782 -0.1256  0.1389
  341POPI   PO4 5440  14.153   8.997  10.182 -0.1517 -0.0550  0.0397
  341POPI   GL1 5441  14.359   9.055   9.766  0.3633 -0.0772  0.0308
  341POPI   GL2 5442  14.227   8.861   9.685  0.1182  0.3896  0.2583
  341POPI   C1A 5443  14.554   9.078   9.364 -0.0340  0.3505 -0.0092
  341POPI   D2A 5444  14.408   8.935   9.068 -0.1163  0.2644 -0.2332
  341POPI   C3A 5445  14.532   8.640   8.780 -0.0325 -0.0616 -0.0079
  341POPI   C4A 5446  14.658   8.284   8.530  0.0885  0.2813  0.0205
  341POPI   C1B 5447  13.965   8.717   9.409 -0.1874 -0.0481  0.0258
  341POPI   C2B 5448  13.952   8.609   9.022 -0.1555  0.2016  0.2884
  341POPI   C3B 5449  14.073   8.573   8.635  0.1185  0.0410 -0.1250
  341POPI   C4B 5450  14.362   8.730   8.344 -0.0176  0.0107  0.2650
  342POPI    C1 5451  16.355  11.243   9.933 -0.0535 -0.2300 -0.1451
  342POPI    C2 5452  16.313  11.168  10.324 -0.0466  0.0460 -0.0888
  342POPI    C3 5453  16.661  11.091  10.141 -0.0232 -0.0056 -0.0230
  342POPI   PO4 5454  16.214  11.049   9.818 -0.1882 -0.0956 -0.0973
  342POPI   GL1 5455  16.372  10.670   9.613  0.2365  0.0242  0.1209
  342POPI   GL2 5456  16.725  10.825   9.707  0.0681 -0.0571  0.0441
  342POPI   C1A 5457  16.354  10.557   9.199 -0.0341 -0.0095  0.2602
  342POPI   D2A 5458  16.361  10.392   8.877 -0.0303  0.0530  0.1073
  342POPI   C3A 5459  16.566  10.065   8.570 -0.0644  0.2718  0.1530
  342POPI   C4A 5460  16.736   9.761   8.261 -0.0245  0.0316  0.3400
  342POPI   C1B 5461  16.761  10.821   9.271 -0.0792 -0.3482 -0.0978
  342POPI   C2B 5462  16.641  10.883   8.887 -0.2436 -0.1454 -0.0115
  342POPI   C3B 5463  16.631  11.014   8.451  0.1352  0.1250  0.1394
  342POPI   C4B 5464  16.852  10.912   8.078 -0.0410  0.0311  0.2297
  343POPI    C1 5465  15.312  16.891  10.656 -0.0233 -0.1216  0.3056
  343POPI    C2 5466  15.553  17.195  10.755  0.1683 -0.1420 -0.0783
  343POPI    C3 5467  15.210  17.266  10.562 -0.0166 -0.1344  0.2468
  343POPI   PO4 5468  15.402  16.681  10.521  0.0103 -0.5053 -0.1064
  343POPI   GL1 5469  15.472  16.683  10.086  0.0138  0.1702 -0.1538
  343POPI   GL2 5470  15.734  16.731   9.882  0.1687  0.0005 -0.2335
  343POPI   C1A 5471  15.407  16.387   9.778  0.0987  0.0207 -0.0280
  343POPI   D2A 5472  15.211  15.950   9.770 -0.1150  0.0582  0.2587
  343POPI   C3A 5473  15.197  15.748   9.373 -0.1574 -0.1126  0.0063
  343POPI   C4A 5474  15.422  16.024   9.004 -0.0422 -0.0944  0.1627
  343POPI   C1B 5475  15.837  16.782   9.477 -0.3917 -0.0795  0.1445
  343POPI   C2B 5476  15.926  16.818   9.014  0.0091  0.1227 -0.1498
  343POPI   C3B 5477  15.774  16.930   8.686  0.1832 -0.0731  0.2307
  343POPI   C4B 5478  15.805  17.047   8.334  0.0229  0.0443 -0.1635
  344POPI    C1 5479   1.883  16.388  10.906  0.0977  0.0134  0.0925
  344POPI    C2 5480   1.635  16.636  11.098  0.0843 -0.0623  0.1735
  344POPI    C3 5481   2.000  16.564  11.245  0.2201  0.1830 -0.0358
  344POPI   PO4 5482   1.846  16.571  10.572 -0.4857 -0.0207  0.0260
  344POPI   GL1 5483   1.993  16.467  10.137  0.1151 -0.1667 -0.0344
  344POPI   GL2 5484   2.281  16.497  10.265  0.1287 -0.1209 -0.4252
  344POPI   C1A 5485   2.187  16.275   9.786 -0.0565 -0.3279  0.0913
  344POPI   D2A 5486   2.187  16.175   9.377 -0.1391  0.1180 -0.3740
  344POPI   C3A 5487   2.229  16.090   8.932  0.1170 -0.1202 -0.4874
  344POPI   C4A 5488   2.483  16.074   8.428  0.0444 -0.1768 -0.2944
  344POPI   C1B 5489   2.412  16.718   9.862 -0.1144 -0.0331 -0.1467
  344POPI   C2B 5490   2.427  16.720   9.405  0.0852  0.1474  0.1951
  344POPI   C3B 5491   2.314  16.651   9.056  0.0046 -0.1110 -0.0723
  344POPI   C4B 5492   2.424  16.510   8.662 -0.2196  0.0645 -0.1014
  345POPI    C1 5493   7.466  17.522  10.668  0.2720  0.0327  0.0434
  345POPI    C2 5494   7.338  17.529  11.048 -0.3703  0.0668 -0.1610
  345POPI    C3 5495   7.485  17.861  10.880  0.3102 -0.0484  0.1712
  345POPI   PO4 5496   7.257  17.394  10.580  0.0219 -0.1169 -0.1595
  345POPI   GL1 5497   7.271  17.444  10.174 -0.2314 -0.1925 -0.1777
  345POPI   GL2 5498   6.992  17.261  10.158  0.1099  0.1548 -0.2600
  345POPI   C1A 5499   7.291  17.436   9.790  0.0841 -0.0785  0.1038
  345POPI   D2A 5500   7.320  16.956   9.491  0.1764  0.0829  0.1796
  345POPI   C3A 5501   7.286  17.053   9.052 -0.0289 -0.1301 -0.3554
  345POPI   C4A 5502   7.374  17.441   8.743 -0.1666 -0.0598  0.1119
  345POPI   C1B 5503   6.834  17.128   9.704 -0.0563  0.1569 -0.0389
  345POPI   C2B 5504   6.811  17.021   9.256 -0.1929  0.0679 -0.0375
  345POPI   C3B 5505   6.818  16.978   8.797  0.2906 -0.3157 -0.0683
  345POPI   C4B 5506   6.545  17.028   8.411 -0.1725  0.3187 -0.3966
  346POPI    C1 5507  10.764   9.296  10.612  0.0098 -0.0112 -0.0532
  346POPI    C2 5508  11.163   9.259  10.606  0.0180  0.0267  0.1671
  346POPI    C3 5509  10.958   9.167  10.937 -0.1609 -0.0287  0.0428
  346POPI   PO4 5510  10.640   9.297  10.285  0.0532  0.2094 -0.2789
  346POPI   GL1 5511  10.559   9.185   9.914 -0.2856 -0.0221  0.2005
  346POPI   GL2 5512  10.163   9.350   9.691 -0.0262  0.2215 -0.0611
  346POPI   C1A 5513  10.618   9.316   9.526  0.0564 -0.2566  0.1334
  346POPI   D2A 5514  10.494   9.337   9.093 -0.2655 -0.0096 -0.3876
  346POPI   C3A 5515  10.764   9.374   8.722  0.0469  0.0505 -0.0211
  346POPI   C4A 5516  11.034   9.372   8.502 -0.0029  0.1350  0.1520
  346POPI   C1B 5517  10.287   9.690   9.523  0.1677 -0.1239  0.0085
  346POPI   C2B 5518  10.387   9.784   9.246  0.2193 -0.2409  0.1461
  346POPI   C3B 5519  10.711   9.817   8.935 -0.0787  0.1818 -0.2038
  346POPI   C4B 5520  10.864   9.813   8.518 -0.1697  0.2214 -0.0025
  347POPI    C1 5521  14.389   1.031  10.891 -0.1956  0.0758 -0.0584
  347POPI    C2 5522  14.360   0.637  10.953 -0.0911  0.0736 -0.0210
  347POPI    C3 5523  14.221   0.893  11.227  0.1401  0.0627  0.1093
  347POPI   PO4 5524  14.467   1.038  10.655  0.3560 -0.0194 -0.0039
  347POPI   GL1 5525  14.489   0.778  10.245  0.3061  0.1023 -0.2423
  347POPI   GL2 5526  14.579   1.088  10.102 -0.2214  0.2840  0.0280
  347POPI   C1A 5527  14.282   0.622   9.883 -0.3452 -0.1316 -0.0976
  347POPI   D2A 5528  14.500   0.240   9.586  0.2080 -0.2701 -0.2582
  347POPI   C3A 5529  14.500   0.266   9.187 -0.2129 -0.2276  0.1317
  347POPI   C4A 5530  14.511   0.504   8.859 -0.0699 -0.1216 -0.1877
  347POPI   C1B 5531  14.307   1.175   9.738  0.1089 -0.2495  0.0807
  347POPI   C2B 5532  14.156   1.053   9.408 -0.1947 -0.0181 -0.1798
  347POPI   C3B 5533  14.265   0.971   9.007 -0.3409 -0.1045 -0.2205
  347POPI   C4B 5534  14.491   0.960   8.628 -0.2444  0.0875 -0.1470
  348POPI    C1 5535  16.805  11.934  10.613 -0.4269  0.0268 -0.0833
  348POPI    C2 5536  17.077  11.759  10.850 -0.2969  0.0639 -0.2036
  348POPI    C3 5537  16.811  12.015  11.005 -0.1838  0.1223 -0.1045
  348POPI   PO4 5538  16.943  11.932  10.356 -0.2801  0.1375  0.1126
  348POPI   GL1 5539  17.345  12.076  10.163 -0.0466 -0.3078 -0.2664
  348POPI   GL2 5540  17.246  11.756   9.971 -0.2309 -0.2662  0.2128
  348POPI   C1A 5541  17.110  12.275   9.820 -0.0838 -0.0973 -0.2599
  348POPI   D2A 5542  16.857  12.046   9.554 -0.0892 -0.0936  0.2870
  348POPI   C3A 5543  16.976  12.061   9.192  0.0614 -0.2422 -0.1809
  348POPI   C4A 5544  17.161  12.317   8.927  0.0990  0.2710 -0.2146
  348POPI   C1B 5545  17.313  11.812   9.482  0.1052  0.0244 -0.0881
  348POPI   C2B 5546  17.285  11.738   9.002  0.0297  0.2320 -0.3775
  348POPI   C3B 5547  17.285  11.728   8.573  0.2255  0.1005  0.0679
  348POPI   C4B 5548  17.125  12.144   8.496 -0.0447 -0.1040  0.0015
  349POPI    C1 5549  13.166   8.885  10.456  0.1762 -0.1846  0.0739
  349POPI    C2 5550  12.969   8.732  10.769 -0.0672 -0.0080  0.0101
  349POPI    C3 5551  13.216   9.044  10.820  0.0223 -0.0850  0.0522
  349POPI   PO4 5552  13.298   8.720  10.310 -0.3257 -0.4588  0.0782
  349POPI   GL1 5553  13.520   8.797   9.979  0.1351  0.1286  0.0183
  349POPI   GL2 5554  13.747   8.901   9.808  0.2128  0.0982 -0.0154
  349POPI   C1A 5555  13.510   8.522   9.591 -0.0038  0.0682  0.1725
  349POPI   D2A 5556  13.292   8.086   9.545  0.0461  0.0349  0.0506
  349POPI   C3A 5557  13.253   8.046   9.151  0.0543  0.0830 -0.0532
  349POPI   C4A 5558  12.963   7.823   8.801  0.0506 -0.0252 -0.1799
  349POPI   C1B 5559  13.481   9.157   9.514 -0.0257 -0.3106  0.3008
  349POPI   C2B 5560  13.354   9.081   9.146  0.1943  0.0456 -0.1441
  349POPI   C3B 5561  13.525   9.190   8.738  0.0991  0.1698 -0.1363
  349POPI   C4B 5562  13.743   9.142   8.381 -0.0114 -0.0437  0.1581
  350POPI    C1 5563   3.891  13.534  10.583  0.1900  0.0717  0.0750
  350POPI    C2 5564   3.671  13.850  10.692  0.1749  0.0923 -0.0140
  350POPI    C3 5565   3.558  13.481  10.799  0.2581  0.1254  0.1946
  350POPI   PO4 5566   3.979  13.584  10.329  0.1868 -0.0788 -0.0456
  350POPI   GL1 5567   3.980  13.693   9.861  0.0644 -0.5713 -0.1194
  350POPI   GL2 5568   3.744  13.937   9.811  0.2384 -0.1192 -0.0325
  350POPI   C1A 5569   4.088  13.412   9.556  0.1630 -0.1171  0.0444
  350POPI   D2A 5570   4.074  13.482   9.140  0.3114  0.1101  0.1938
  350POPI   C3A 5571   4.324  13.312   9.005 -0.2693  0.0013  0.3023
  350POPI   C4A 5572   4.479  13.461   8.726  0.1147 -0.1186  0.3917
  350POPI   C1B 5573   3.862  13.866   9.428  0.0088 -0.1366 -0.0197
  350POPI   C2B 5574   3.795  13.925   8.959  0.1994  0.1981  0.1505
  350POPI   C3B 5575   3.850  14.028   8.487  0.1489 -0.1920  0.0262
  350POPI   C4B 5576   3.819  14.144   8.173 -0.2972 -0.0229 -0.2693
  351POPI    C1 5577   9.547  18.001  10.440 -0.0507  0.1358  0.2187
  351POPI    C2 5578   9.845  18.156  10.223 -0.0389  0.1159  0.2209
  351POPI    C3 5579   9.813  18.245  10.612  0.0575 -0.0083  0.2581
  351POPI   PO4 5580   9.438  17.758  10.356 -0.1451  0.1285  0.1677
  351POPI   GL1 5581   9.268  17.815   9.987 -0.0076 -0.0876  0.0807
  351POPI   GL2 5582   9.463  18.214   9.912 -0.0872  0.0815  0.2009
  351POPI   C1A 5583   9.287  17.711   9.543  0.0640 -0.2755  0.4996
  351POPI   D2A 5584   9.456  17.728   9.103 -0.2313  0.1240 -0.0205
  351POPI   C3A 5585   9.417  17.490   8.662  0.1535 -0.1046 -0.2191
  351POPI   C4A 5586   9.089  17.196   8.667 -0.2602 -0.0226  0.3819
  351POPI   C1B 5587   9.285  18.563   9.634 -0.1852 -0.0726 -0.0297
  351POPI   C2B 5588   9.179  18.528   9.231 -0.2166  0.0335  0.0376
  351POPI   C3B 5589   9.265  18.592   8.807 -0.2534 -0.0431 -0.1654
  351POPI   C4B 5590   9.390  18.686   8.386  0.2610  0.0114  0.2755
  352POPI    C1 5591  11.266  14.404  11.012  0.0286  0.0523 -0.1473
  352POPI    C2 5592  11.378  14.788  11.020 -0.3129  0.1524  0.0554
  352POPI    C3 5593  10.994  14.693  10.962 -0.2569 -0.1541  0.1675
  352POPI   PO4 5594  11.321  14.229  10.825  0.2526  0.1087 -0.2393
  352POPI   GL1 5595  11.445  14.322  10.360  0.3788  0.1672  0.2755
  352POPI   GL2 5596  11.709  14.466  10.185  0.1819  0.0244  0.2980
  352POPI   C1A 5597  11.231  14.065  10.023  0.0755  0.0943 -0.1103
  352POPI   D2A 5598  11.155  14.080   9.558  0.0916 -0.0792 -0.0007
  352POPI   C3A 5599  11.454  14.369   9.273 -0.3606 -0.1158 -0.0970
  352POPI   C4A 5600  11.254  14.764   8.996 -0.2727  0.3365  0.1820
  352POPI   C1B 5601  11.665  14.590   9.800 -0.1115 -0.1337 -0.0717
  352POPI   C2B 5602  11.646  14.807   9.420 -0.1996  0.1557  0.1355
  352POPI   C3B 5603  11.715  15.055   9.083  0.3263 -0.1854 -0.1539
  352POPI   C4B 5604  11.519  15.210   8.755 -0.0234 -0.1217  0.3569
  353POPI    C1 5605   3.821   9.002  10.909  0.0501 -0.0104 -0.2019
  353POPI    C2 5606   4.065   8.689  10.953 -0.0808 -0.0657  0.1679
  353POPI    C3 5607   3.670   8.642  10.996 -0.1279  0.0946 -0.0686
  353POPI   PO4 5608   3.995   9.195  10.784  0.1090  0.1577 -0.0415
  353POPI   GL1 5609   4.039   9.050  10.385 -0.1023  0.0811 -0.1003
  353POPI   GL2 5610   4.157   8.879  10.057 -0.0278  0.0949 -0.2009
  353POPI   C1A 5611   3.756   9.149   9.965  0.1419  0.1672  0.1185
  353POPI   D2A 5612   3.550   9.520   9.734 -0.1695  0.3230  0.0180
  353POPI   C3A 5613   3.603   9.592   9.325 -0.0786 -0.1041  0.1604
  353POPI   C4A 5614   3.593   9.719   8.894 -0.0326 -0.0636 -0.0800
  353POPI   C1B 5615   4.166   8.989   9.572  0.3027 -0.1714  0.0259
  353POPI   C2B 5616   4.191   8.952   9.069  0.2321 -0.0920  0.0220
  353POPI   C3B 5617   4.430   8.608   8.732  0.0656  0.0008 -0.1403
  353POPI   C4B 5618   4.497   8.724   8.286 -0.1747 -0.0201  0.0583
  354POPI    C1 5619   5.104  15.869  10.773  0.0024  0.0280  0.0625
  354POPI    C2 5620   4.830  16.156  10.727 -0.2062 -0.1583  0.1262
  354POPI    C3 5621   5.086  16.172  11.034 -0.1153  0.0392  0.0417
  354POPI   PO4 5622   4.997  15.640  10.664  0.0631  0.2231 -0.2636
  354POPI   GL1 5623   5.129  15.341  10.350  0.1869 -0.0999 -0.0648
  354POPI   GL2 5624   5.102  15.134  10.269 -0.0472  0.1621  0.1009
  354POPI   C1A 5625   5.049  15.598  10.018 -0.2358  0.0472 -0.3385
  354POPI   D2A 5626   5.150  15.520   9.645 -0.1822  0.3218  0.1080
  354POPI   C3A 5627   5.451  15.800   9.485 -0.1125  0.0244 -0.3317
  354POPI   C4A 5628   5.881  15.908   9.382  0.1676 -0.0505  0.0379
  354POPI   C1B 5629   5.220  15.100   9.930  0.0895  0.1912  0.0894
  354POPI   C2B 5630   5.345  15.010   9.602  0.3047  0.0834  0.0009
  354POPI   C3B 5631   5.425  15.250   9.214 -0.0578  0.1483 -0.0709
  354POPI   C4B 5632   5.473  15.652   8.979 -0.2881 -0.0250  0.0556
  355POPI    C1 5633   9.824   3.564  10.419 -0.1927 -0.1546 -0.0602
  355POPI    C2 5634   9.728   3.906  10.603 -0.0033  0.0294 -0.2979
  355POPI    C3 5635   9.937   3.626  10.798 -0.0861  0.0840 -0.1294
  355POPI   PO4 5636   9.577   3.504  10.328  0.0119  0.0516 -0.0420
  355POPI   GL1 5637   9.423   3.459   9.953 -0.4010 -0.1655 -0.0014
  355POPI   GL2 5638   9.563   3.779   9.882  0.3067 -0.1162 -0.1085
  355POPI   C1A 5639   9.550   3.254   9.604 -0.3761  0.0185  0.3548
  355POPI   D2A 5640   9.516   3.547   9.148 -0.0652 -0.0330  0.0458
  355POPI   C3A 5641   9.553   3.235   8.883  0.1886  0.0390 -0.0693
  355POPI   C4A 5642   9.295   3.002   8.669 -0.1559 -0.0337  0.0821
  355POPI   C1B 5643   9.801   3.748   9.671 -0.1908  0.3347 -0.0691
  355POPI   C2B 5644  10.150   3.817   9.290 -0.2242 -0.0315 -0.0237
  355POPI   C3B 5645  10.369   3.750   9.007  0.0762 -0.0321  0.1145
  355POPI   C4B 5646  10.275   3.661   8.597 -0.0845 -0.0821  0.1514
  356POPI    C1 5647   0.478  12.216  10.377  0.0679  0.0478 -0.1141
  356POPI    C2 5648   0.624  12.586  10.420 -0.2955  0.2043 -0.1842
  356POPI    C3 5649   0.821  12.273  10.575  0.0664  0.4133 -0.2102
  356POPI   PO4 5650   0.251  12.293  10.143 -0.3161  0.2936  0.1717
  356POPI   GL1 5651   0.309  12.501   9.792 -0.0037 -0.0616 -0.1490
  356POPI   GL2 5652   0.060  12.608   9.738 -0.0234  0.4875 -0.1792
  356POPI   C1A 5653   0.495  12.716   9.522 -0.1802  0.2255 -0.1747
  356POPI   D2A 5654   0.571  12.630   9.030  0.0793 -0.0935 -0.2382
  356POPI   C3A 5655   0.423  12.685   8.690 -0.1176  0.0722  0.2375
  356POPI   C4A 5656   0.229  12.482   8.329  0.2217 -0.0816 -0.0677
  356POPI   C1B 5657   0.032  12.667   9.248 -0.0531  0.0534 -0.0593
  356POPI   C2B 5658   0.019  12.754   8.904  0.1636  0.0518  0.0478
  356POPI   C3B 5659  -0.066  12.839   8.518  0.2266  0.0266 -0.0339
  356POPI   C4B 5660  -0.221  12.977   8.117 -0.2527  0.1013  0.0259
  357POPI    C1 5661   8.645  10.124  10.229 -0.1901  0.4628 -0.0584
  357POPI    C2 5662   8.907  10.267  10.495 -0.1095 -0.2260  0.2536
  357POPI    C3 5663   8.521  10.233  10.594 -0.1555 -0.0861  0.1260
  357POPI   PO4 5664   8.662  10.239  10.044 -0.1231 -0.1622  0.0960
  357POPI   GL1 5665   8.355  10.158   9.741 -0.1073 -0.2196  0.1721
  357POPI   GL2 5666   8.432  10.475   9.657  0.0136  0.0111 -0.0772
  357POPI   C1A 5667   8.514  10.058   9.291 -0.0171  0.1497 -0.3637
  357POPI   D2A 5668   8.515   9.986   8.854 -0.2418 -0.1135  0.0365
  357POPI   C3A 5669   8.591   9.668   8.543  0.0614  0.0414  0.0331
  357POPI   C4A 5670   8.544   9.411   8.130 -0.1885 -0.0898  0.3476
  357POPI   C1B 5671   8.738  10.588   9.349 -0.3840  0.0451 -0.2685
  357POPI   C2B 5672   8.681  10.561   8.971  0.0386 -0.2442 -0.1381
  357POPI   C3B 5673   8.562  10.502   8.566 -0.2044 -0.0500  0.0046
  357POPI   C4B 5674   8.661  10.166   8.259 -0.0239 -0.2862 -0.0911
  358POPI    C1 5675   7.983   9.038  10.894 -0.1195 -0.2985  0.1638
  358POPI    C2 5676   7.866   8.861  11.233 -0.3395 -0.2064  0.1372
  358POPI    C3 5677   7.595   8.972  10.961 -0.1702 -0.2063 -0.0336
  358POPI   PO4 5678   8.131   8.910  10.721  0.1362  0.1185  0.3341
  358POPI   GL1 5679   8.048   8.808  10.308  0.1089  0.2663  0.1472
  358POPI   GL2 5680   8.043   9.013  10.081  0.0312 -0.0161  0.0908
  358POPI   C1A 5681   7.940   8.650   9.777 -0.2975  0.4427 -0.1462
  358POPI   D2A 5682   7.852   8.380   9.498 -0.1328  0.2435  0.1338
  358POPI   C3A 5683   7.967   8.060   9.223  0.0975 -0.3638  0.1357
  358POPI   C4A 5684   7.942   7.903   8.815 -0.0460 -0.0927 -0.0931
  358POPI   C1B 5685   7.609   8.976   9.800  0.0514 -0.0263 -0.0880
  358POPI   C2B 5686   7.616   8.893   9.415  0.0072  0.0559 -0.0697
  358POPI   C3B 5687   7.493   8.870   8.851  0.1948 -0.0265  0.0363
  358POPI   C4B 5688   7.218   8.885   8.499  0.1091  0.0773  0.0166
  359POPI    C1 5689  16.290   1.503  10.589 -0.0493 -0.0966 -0.0179
  359POPI    C2 5690  15.970   1.700  10.725 -0.0427 -0.0738 -0.0356
  359POPI    C3 5691  16.199   1.490  10.978  0.1225  0.1858  0.0342
  359POPI   PO4 5692  16.258   1.434  10.352 -0.1801  0.2703 -0.2036
  359POPI   GL1 5693  16.249   1.386   9.953 -0.0536  0.4512  0.0813
  359POPI   GL2 5694  16.411   1.718   9.914  0.0155 -0.0143  0.3800
  359POPI   C1A 5695  16.348   1.336   9.571  0.1413  0.1339  0.1995
  359POPI   D2A 5696  16.471   1.530   9.183  0.3408 -0.0250  0.2233
  359POPI   C3A 5697  16.410   1.338   8.670 -0.0448  0.0774  0.2448
  359POPI   C4A 5698  16.311   0.950   8.525 -0.1090 -0.0154 -0.1747
  359POPI   C1B 5699  16.044   1.758   9.516 -0.0980 -0.1858  0.2171
  359POPI   C2B 5700  15.997   1.737   9.068 -0.1349  0.3996  0.0093
  359POPI   C3B 5701  15.933   1.640   8.629  0.1776  0.1139 -0.3542
  359POPI   C4B 5702  15.908   1.781   8.226  0.0971 -0.3894 -0.3370
  360POPI    C1 5703  16.299   5.641  10.421  0.1744  0.0769 -0.1090
  360POPI    C2 5704  16.090   5.359  10.614  0.0623  0.0080 -0.3274
  360POPI    C3 5705  16.189   5.699  10.801  0.0422 -0.0994 -0.1191
  360POPI   PO4 5706  16.699   5.373  10.359 -0.0720  0.1431  0.4287
  360POPI   GL1 5707  16.831   5.179  10.006  0.0138  0.0595  0.0856
  360POPI   GL2 5708  16.833   4.913  10.170  0.0912  0.0240 -0.1849
  360POPI   C1A 5709  16.784   5.249   9.538  0.0912  0.1296 -0.0801
  360POPI   D2A 5710  16.930   5.263   9.078  0.0948  0.0188  0.0673
  360POPI   C3A 5711  16.727   5.475   8.770  0.0001  0.1469  0.1245
  360POPI   C4A 5712  16.653   5.831   8.578 -0.0433 -0.2138  0.0383
  360POPI   C1B 5713  16.800   4.783   9.677  0.2216 -0.1053 -0.1306
  360POPI   C2B 5714  16.700   4.780   9.257  0.2397 -0.0608  0.0828
  360POPI   C3B 5715  16.653   4.836   8.790 -0.0566 -0.2315  0.0375
  360POPI   C4B 5716  16.792   4.645   8.408  0.1139 -0.1187 -0.1543
  361POPI    C1 5717   3.538   2.152  11.165  0.1119  0.0739  0.0432
  361POPI    C2 5718   3.395   2.417  11.428 -0.1847  0.1263 -0.1661
  361POPI    C3 5719   3.242   2.048  11.413  0.1074 -0.0051  0.0050
  361POPI   PO4 5720   3.579   2.359  10.937 -0.0348 -0.3436  0.0746
  361POPI   GL1 5721   3.641   2.495  10.492 -0.2340  0.1091 -0.0970
  361POPI   GL2 5722   3.283   2.434  10.467  0.0295 -0.0601 -0.0230
  361POPI   C1A 5723   3.741   2.147  10.196  0.0262 -0.2360 -0.2653
  361POPI   D2A 5724   3.844   1.838   9.941 -0.2030  0.1269 -0.2467
  361POPI   C3A 5725   3.811   1.446   9.993 -0.3526 -0.0511  0.2289
  361POPI   C4A 5726   4.061   1.107   9.890  0.0750  0.0621 -0.2537
  361POPI   C1B 5727   3.298   2.346  10.051 -0.2677 -0.1073 -0.1707
  361POPI   C2B 5728   3.166   2.098   9.629  0.0397  0.3374 -0.1288
  361POPI   C3B 5729   3.227   1.955   9.246 -0.0495 -0.0123 -0.0905
  361POPI   C4B 5730   3.339   1.751   8.919 -0.1333 -0.0455  0.2790
  362POPI    C1 5731  12.155   6.239  10.390  0.3806  0.3184 -0.2397
  362POPI    C2 5732  12.465   6.278  10.641  0.2066  0.1123  0.0125
  362POPI    C3 5733  12.090   6.300  10.780  0.1071 -0.1307 -0.2074
  362POPI   PO4 5734  12.259   6.048  10.223  0.1575 -0.1747 -0.1025
  362POPI   GL1 5735  12.449   6.112   9.974 -0.1303  0.0055  0.0797
  362POPI   GL2 5736  12.306   6.259   9.684  0.0229 -0.4503 -0.1464
  362POPI   C1A 5737  12.667   5.880   9.725 -0.1638 -0.0383 -0.1225
  362POPI   D2A 5738  12.835   5.528   9.422 -0.2984 -0.0632  0.0273
  362POPI   C3A 5739  12.960   5.712   9.101 -0.1194  0.0605 -0.3399
  362POPI   C4A 5740  13.319   5.699   8.965 -0.0191  0.0612  0.1814
  362POPI   C1B 5741  12.149   6.261   9.313  0.0485  0.0898  0.0573
  362POPI   C2B 5742  12.207   6.293   8.855 -0.1053  0.0101  0.2487
  362POPI   C3B 5743  12.253   6.164   8.379 -0.2247 -0.4515 -0.1123
  362POPI   C4B 5744  12.392   5.912   8.053  0.3016 -0.1825 -0.2229
  363POPI    C1 5745  10.970   8.172  10.483  0.0051 -0.0084 -0.0869
  363POPI    C2 5746  11.249   8.007  10.718 -0.1682 -0.0301  0.1064
  363POPI    C3 5747  11.200   8.404  10.714  0.0157 -0.0076 -0.0984
  363POPI   PO4 5748  11.010   8.043  10.204  0.0516 -0.0414  0.1784
  363POPI   GL1 5749  10.846   8.098   9.842 -0.4232  0.2153  0.3313
  363POPI   GL2 5750  10.579   7.867   9.784 -0.0900  0.1512  0.0736
  363POPI   C1A 5751  10.995   8.332   9.485  0.0908  0.1989  0.0282
  363POPI   D2A 5752  10.942   8.421   8.965  0.2971  0.1532 -0.1033
  363POPI   C3A 5753  10.955   8.286   8.617  0.0219  0.0168  0.0617
  363POPI   C4A 5754  10.758   8.364   8.209 -0.2040 -0.5706  0.1921
  363POPI   C1B 5755  10.639   7.983   9.395 -0.1884 -0.0081  0.1326
  363POPI   C2B 5756  10.839   7.950   9.075 -0.0549  0.2148 -0.0029
  363POPI   C3B 5757  11.043   7.760   8.754  0.0172 -0.0216  0.1232
  363POPI   C4B 5758  10.916   7.652   8.326  0.0015  0.0194 -0.0964
  364POPI    C1 5759   0.056   2.382  10.624 -0.2224  0.0854 -0.1822
  364POPI    C2 5760  -0.263   2.622  10.641 -0.3432 -0.0857  0.0070
  364POPI    C3 5761   0.043   2.678  10.893 -0.1342  0.1996 -0.3022
  364POPI   PO4 5762   0.089   2.360  10.347  0.6981  0.0752 -0.2558
  364POPI   GL1 5763  -0.195   2.594  10.067 -0.0238  0.0632  0.4504
  364POPI   GL2 5764  -0.295   2.356   9.943  0.0592  0.1763 -0.1211
  364POPI   C1A 5765  -0.427   2.786   9.675  0.0473 -0.0759  0.0520
  364POPI   D2A 5766  -0.279   2.914   9.267 -0.1361  0.0964 -0.2793
  364POPI   C3A 5767  -0.522   3.039   8.942  0.1614 -0.2674  0.0228
  364POPI   C4A 5768  -0.876   3.021   8.697 -0.1635 -0.2249  0.1857
  364POPI   C1B 5769  -0.120   2.457   9.525  0.1621  0.3027  0.1200
  364POPI   C2B 5770  -0.119   2.493   8.989  0.0491  0.1739 -0.1088
  364POPI   C3B 5771  -0.061   2.476   8.587 -0.0954 -0.0209  0.0442
  364POPI   C4B 5772  -0.100   2.786   8.231  0.0383 -0.1543  0.1047
  365POPI    C1 5773  10.904  15.855  11.253  0.0827 -0.0829 -0.0749
  365POPI    C2 5774  11.155  15.558  11.160 -0.1886 -0.3154 -0.0777
  365POPI    C3 5775  11.011  15.588  11.531 -0.1307 -0.1618 -0.0672
  365POPI   PO4 5776  10.756  15.917  10.996 -0.1667  0.2910  0.1637
  365POPI   GL1 5777  10.528  16.162  10.604 -0.2195 -0.1670  0.5083
  365POPI   GL2 5778  10.594  16.229  10.334  0.1731 -0.1730  0.0692
  365POPI   C1A 5779  10.175  15.852  10.416 -0.0407  0.1207 -0.1393
  365POPI   D2A 5780   9.946  15.872  10.023 -0.2568 -0.0763 -0.0403
  365POPI   C3A 5781   9.952  15.581   9.808 -0.1476 -0.1950 -0.0843
  365POPI   C4A 5782   9.811  15.301   9.645 -0.1340  0.1334  0.0367
  365POPI   C1B 5783  10.340  16.192  10.028 -0.0859  0.0583  0.1515
  365POPI   C2B 5784  10.104  16.096   9.605  0.0833 -0.2170 -0.0048
  365POPI   C3B 5785  10.079  15.785   9.377 -0.4213 -0.0115 -0.1754
  365POPI   C4B 5786  10.127  15.384   9.224  0.2079 -0.1590 -0.1011
  366POPI    C1 5787   9.974  17.654  10.643  0.0782  0.0037 -0.2363
  366POPI    C2 5788  10.304  17.667  10.868 -0.0533 -0.1052 -0.0344
  366POPI    C3 5789  10.017  17.941  10.918 -0.0172 -0.0412 -0.1739
  366POPI   PO4 5790   9.980  17.644  10.334 -0.1528 -0.1696  0.1674
  366POPI   GL1 5791   9.770  17.514   9.965 -0.1697 -0.0835 -0.0102
  366POPI   GL2 5792   9.832  17.793   9.841  0.0677 -0.3514  0.2662
  366POPI   C1A 5793   9.687  17.450   9.501  0.0854  0.2907 -0.1343
  366POPI   D2A 5794   9.683  17.280   9.057 -0.0924 -0.0054 -0.0070
  366POPI   C3A 5795   9.549  17.051   8.823  0.1671  0.0008  0.2154
  366POPI   C4A 5796   9.634  16.732   8.555 -0.1681 -0.0135 -0.2546
  366POPI   C1B 5797   9.759  17.975   9.607  0.0113  0.0578  0.0784
  366POPI   C2B 5798   9.471  18.162   9.404 -0.5012 -0.3080 -0.3189
  366POPI   C3B 5799   9.363  18.158   8.926 -0.0519  0.0694  0.0341
  366POPI   C4B 5800   9.172  18.242   8.506 -0.0612 -0.2094  0.2323
  367POPI    C1 5801  16.010  16.853  10.728 -0.1147 -0.0752  0.0461
  367POPI    C2 5802  15.999  16.457  10.780 -0.1395 -0.0565  0.1889
  367POPI    C3 5803  15.737  16.691  10.971 -0.0868  0.0338  0.1512
  367POPI   PO4 5804  16.138  16.849  10.507 -0.1573  0.0788  0.3171
  367POPI   GL1 5805  16.344  16.814  10.060 -0.1832 -0.2064 -0.0352
  367POPI   GL2 5806  16.298  17.013   9.871  0.0223 -0.0827 -0.0582
  367POPI   C1A 5807  16.597  16.527   9.754  0.0599  0.1895 -0.0283
  367POPI   D2A 5808  16.693  16.442   9.231  0.1815 -0.0141  0.0507
  367POPI   C3A 5809  16.764  16.474   8.815 -0.0387  0.0693 -0.0760
  367POPI   C4A 5810  16.951  16.296   8.556  0.4193 -0.1216 -0.0680
  367POPI   C1B 5811  16.433  16.945   9.408  0.0887 -0.2029  0.0118
  367POPI   C2B 5812  16.425  16.821   9.000 -0.0470  0.2729  0.2157
  367POPI   C3B 5813  16.473  16.876   8.521 -0.2363 -0.2584  0.0641
  367POPI   C4B 5814  16.750  17.143   8.215 -0.1293 -0.0544  0.0725
  368POPI    C1 5815   1.286   5.880  10.710 -0.0615  0.2872 -0.1454
  368POPI    C2 5816   1.432   6.024  11.053 -0.1697  0.2164 -0.0691
  368POPI    C3 5817   1.038   5.974  11.009 -0.1168 -0.3702  0.0306
  368POPI   PO4 5818   1.573   5.921  10.581 -0.1300 -0.1446  0.1250
  368POPI   GL1 5819   1.672   6.123  10.243  0.0163 -0.1143 -0.0457
  368POPI   GL2 5820   1.739   6.427  10.227 -0.0076  0.1022 -0.1560
  368POPI   C1A 5821   1.657   6.161   9.764 -0.1367 -0.0240  0.0430
  368POPI   D2A 5822   1.612   5.842   9.431 -0.0948  0.2672 -0.0440
  368POPI   C3A 5823   1.768   5.697   9.050 -0.1688  0.1063  0.2702
  368POPI   C4A 5824   1.984   5.732   8.720  0.0758  0.1632 -0.2981
  368POPI   C1B 5825   2.052   6.469   9.988  0.2114 -0.0960 -0.3304
  368POPI   C2B 5826   2.088   6.446   9.601 -0.0326  0.2204  0.0183
  368POPI   C3B 5827   2.132   6.631   9.176 -0.1607 -0.1665  0.0078
  368POPI   C4B 5828   2.110   6.846   8.807 -0.0571 -0.2249 -0.0474
  369POPI    C1 5829   2.509  17.936  10.647 -0.0687  0.2609  0.0922
  369POPI    C2 5830   2.258  17.978  10.956 -0.1197 -0.0950  0.1029
  369POPI    C3 5831   2.582  17.745  10.991  0.0357  0.1002 -0.0176
  369POPI   PO4 5832   2.376  17.858  10.467 -0.1016  0.1597  0.0152
  369POPI   GL1 5833   2.166  18.019  10.067  0.0876  0.1839 -0.3075
  369POPI   GL2 5834   2.403  18.059  10.043 -0.2392 -0.2627 -0.3055
  369POPI   C1A 5835   2.058  18.366   9.905 -0.1447 -0.1699  0.1615
  369POPI   D2A 5836   2.011  18.632   9.444  0.0823  0.1128  0.0731
  369POPI   C3A 5837   2.300  18.529   9.008  0.2234  0.0103  0.0530
  369POPI   C4A 5838   2.461  18.603   8.703 -0.1084  0.2078  0.0025
  369POPI   C1B 5839   2.611  18.441   9.794  0.0766  0.1419 -0.1003
  369POPI   C2B 5840   2.627  18.367   9.371 -0.1893 -0.0516  0.1390
  369POPI   C3B 5841   2.679  18.143   9.015  0.0360  0.1869  0.0327
  369POPI   C4B 5842   2.879  18.234   8.665  0.0461 -0.0484  0.1249
  370POPI    C1 5843   4.294   7.559  10.476 -0.0027 -0.1484  0.1957
  370POPI    C2 5844   4.157   7.834  10.731  0.0012 -0.1440  0.1930
  370POPI    C3 5845   4.224   7.460  10.857 -0.0509 -0.1562  0.1848
  370POPI   PO4 5846   4.581   7.758  10.273  0.0165  0.2237  0.0236
  370POPI   GL1 5847   4.820   7.688  10.002  0.3338 -0.1134  0.0661
  370POPI   GL2 5848   5.046   7.618  10.101 -0.0009  0.1423  0.0635
  370POPI   C1A 5849   4.765   7.719   9.586  0.0133 -0.6469  0.1555
  370POPI   D2A 5850   4.661   7.521   9.218  0.0404  0.1504 -0.1234
  370POPI   C3A 5851   4.769   7.258   8.929  0.0142  0.0408 -0.4428
  370POPI   C4A 5852   4.630   7.101   8.564  0.0622 -0.0166 -0.0338
  370POPI   C1B 5853   5.092   7.312   9.756  0.1097  0.0528 -0.3262
  370POPI   C2B 5854   5.054   7.095   9.367  0.2871 -0.3749  0.0696
  370POPI   C3B 5855   5.212   7.047   8.973  0.0897  0.0126  0.1901
  370POPI   C4B 5856   5.141   7.260   8.577 -0.0758  0.1255 -0.0543
  371POPI    C1 5857   4.522   3.584  10.609  0.1063 -0.1878  0.0448
  371POPI    C2 5858   4.248   3.823  10.776  0.2338  0.1006 -0.1506
  371POPI    C3 5859   4.555   3.687  10.994  0.2762  0.2900 -0.0899
  371POPI   PO4 5860   4.325   3.359  10.522 -0.3523  0.1190  0.3419
  371POPI   GL1 5861   4.353   3.358  10.071  0.0069  0.0750 -0.0513
  371POPI   GL2 5862   4.813   3.183  10.158 -0.1908 -0.0916 -0.0673
  371POPI   C1A 5863   4.327   3.245   9.642 -0.0575  0.3154  0.0504
  371POPI   D2A 5864   4.092   3.123   9.274 -0.1434  0.1436  0.0950
  371POPI   C3A 5865   3.951   3.393   8.883  0.0694 -0.1163  0.3633
  371POPI   C4A 5866   4.121   3.367   8.568  0.0533 -0.0279 -0.0188
  371POPI   C1B 5867   4.768   2.990   9.750  0.0788  0.1825 -0.1194
  371POPI   C2B 5868   4.912   2.793   9.404  0.2163 -0.3338  0.0008
  371POPI   C3B 5869   4.910   2.583   9.024 -0.0695  0.0526 -0.1781
  371POPI   C4B 5870   4.674   2.488   8.635  0.3479 -0.0288 -0.3477
  372POPI    C1 5871   6.729  17.615  11.341  0.1204 -0.1312  0.1791
  372POPI    C2 5872   6.879  17.919  11.552  0.0651  0.1291 -0.1472
  372POPI    C3 5873   7.109  17.603  11.465  0.1305  0.0849  0.1721
  372POPI   PO4 5874   6.508  17.723  11.095  0.0445 -0.2627  0.1672
  372POPI   GL1 5875   6.427  17.588  10.603 -0.1165  0.0149 -0.0796
  372POPI   GL2 5876   6.669  17.532  10.529  0.1057  0.0495  0.2222
  372POPI   C1A 5877   6.452  18.005  10.342 -0.0193 -0.1589 -0.0292
  372POPI   D2A 5878   6.227  18.355  10.132  0.0426  0.2362 -0.2550
  372POPI   C3A 5879   6.267  18.267   9.691  0.1309  0.1909  0.0186
  372POPI   C4A 5880   6.303  18.182   9.287 -0.0404 -0.0931  0.1027
  372POPI   C1B 5881   6.868  17.743  10.178  0.1299  0.1787 -0.0287
  372POPI   C2B 5882   6.780  17.606   9.719 -0.0468 -0.4340  0.1195
  372POPI   C3B 5883   6.999  17.487   9.337  0.2213  0.0063  0.1543
  372POPI   C4B 5884   7.510  17.427   9.314 -0.0233 -0.1185 -0.0179
  373POPI    C1 5885  17.175   6.134  11.028  0.1517 -0.0479  0.0227
  373POPI    C2 5886  16.943   6.453  11.092  0.0508 -0.1358  0.0988
  373POPI    C3 5887  16.858   6.105  11.270  0.0458 -0.2575 -0.1374
  373POPI   PO4 5888  17.071   6.149  10.722  0.0066 -0.2201  0.3165
  373POPI   GL1 5889  17.326   6.224  10.427  0.3956  0.0390  0.4430
  373POPI   GL2 5890  17.441   6.484  10.334  0.0261  0.0423 -0.2939
  373POPI   C1A 5891  17.163   6.103  10.102 -0.1123  0.0033  0.0350
  373POPI   D2A 5892  17.269   6.090   9.651 -0.3794 -0.0990 -0.0397
  373POPI   C3A 5893  17.287   6.350   9.268 -0.0735 -0.0026  0.0429
  373POPI   C4A 5894  17.313   6.245   8.865 -0.0947 -0.1629  0.3485
  373POPI   C1B 5895  17.400   6.516   9.968 -0.1731 -0.0626  0.2229
  373POPI   C2B 5896  17.294   6.680   9.625 -0.1604 -0.0530  0.0189
  373POPI   C3B 5897  17.349   6.986   9.275 -0.2661 -0.0940  0.3459
  373POPI   C4B 5898  17.344   6.921   8.875 -0.2901 -0.0190  0.1771
  374POPI    C1 5899   5.410   4.652  11.129 -0.0164  0.1077  0.0742
  374POPI    C2 5900   5.377   4.290  11.297 -0.0840  0.0028 -0.1604
  374POPI    C3 5901   5.086   4.561  11.346 -0.0627  0.0040 -0.0370
  374POPI   PO4 5902   5.381   4.634  10.801  0.1908  0.1565  0.1009
  374POPI   GL1 5903   5.231   4.767  10.325  0.2903  0.0236 -0.2131
  374POPI   GL2 5904   5.367   4.568  10.111  0.0110  0.3657  0.3760
  374POPI   C1A 5905   5.377   5.058   9.930  0.0574  0.1349  0.0603
  374POPI   D2A 5906   5.400   5.294   9.561 -0.3639 -0.0696 -0.1291
  374POPI   C3A 5907   5.191   5.295   9.144  0.1556  0.0526  0.0458
  374POPI   C4A 5908   5.101   5.330   8.698 -0.3402  0.1823  0.2237
  374POPI   C1B 5909   5.196   4.457   9.665  0.2368 -0.0864  0.4251
  374POPI   C2B 5910   5.250   4.291   9.212  0.3438 -0.0878  0.1756
  374POPI   C3B 5911   5.435   4.358   8.783 -0.0639  0.0602 -0.0902
  374POPI   C4B 5912   5.819   4.150   8.584 -0.0776 -0.2527 -0.1753
  375POPI    C1 5913  17.861  12.565  10.289 -0.2713  0.0342  0.0832
  375POPI    C2 5914  17.902  12.201  10.449  0.6014  0.0544 -0.0475
  375POPI    C3 5915  18.134  12.502  10.575 -0.0726  0.5668  0.0220
  375POPI   PO4 5916  17.598  12.577  10.244 -0.0620 -0.0703 -0.0490
  375POPI   GL1 5917  17.415  12.684   9.847  0.0003 -0.2280  0.4525
  375POPI   GL2 5918  17.704  12.861   9.774  0.1299  0.3191 -0.1758
  375POPI   C1A 5919  17.174  12.508   9.401 -0.0878 -0.0207 -0.2268
  375POPI   D2A 5920  17.043  12.728   9.167  0.0177  0.0225 -0.2140
  375POPI   C3A 5921  17.101  12.804   8.739  0.1095 -0.0827 -0.1085
  375POPI   C4A 5922  16.968  12.639   8.429  0.0435 -0.2525 -0.0471
  375POPI   C1B 5923  17.558  12.819   9.350  0.0006 -0.2887 -0.1193
  375POPI   C2B 5924  17.563  12.733   8.912  0.2145 -0.0703  0.0454
  375POPI   C3B 5925  17.462  12.867   8.398 -0.2529  0.0638 -0.3744
  375POPI   C4B 5926  17.222  12.996   8.078  0.2422  0.2655 -0.1057
  376POPI    C1 5927  17.774  15.696  10.792  0.0817 -0.0513 -0.1598
  376POPI    C2 5928  17.752  15.762  11.186 -0.0449 -0.1520 -0.1493
  376POPI    C3 5929  17.689  16.062  10.929 -0.1346 -0.1242 -0.0953
  376POPI   PO4 5930  17.703  15.468  10.697  0.2778  0.0466 -0.1969
  376POPI   GL1 5931  17.551  15.422  10.284 -0.1375 -0.0488  0.2107
  376POPI   GL2 5932  17.284  15.361  10.300 -0.1683  0.0572 -0.3254
  376POPI   C1A 5933  17.792  15.504   9.938 -0.1720  0.0054  0.1741
  376POPI   D2A 5934  17.987  15.505   9.486 -0.0128 -0.1860 -0.0105
  376POPI   C3A 5935  18.267  15.285   9.348  0.1562  0.2763 -0.0612
  376POPI   C4A 5936  18.605  15.258   9.139 -0.0462 -0.2431 -0.2043
  376POPI   C1B 5937  17.114  15.326   9.900 -0.0177  0.1316 -0.2382
  376POPI   C2B 5938  17.124  15.177   9.436 -0.1266 -0.3522  0.5098
  376POPI   C3B 5939  17.229  15.135   8.975  0.1809 -0.2410 -0.0808
  376POPI   C4B 5940  17.337  15.015   8.603 -0.2021  0.1684  0.1287
  377POPI    C1 5941   8.263  17.218  10.785 -0.0756  0.0635  0.2267
  377POPI    C2 5942   8.236  17.057  11.151  0.1335  0.1561  0.2846
  377POPI    C3 5943   8.484  17.365  11.085  0.2338  0.0229  0.0237
  377POPI   PO4 5944   8.206  17.008  10.625 -0.0537  0.0431 -0.0479
  377POPI   GL1 5945   8.446  16.713  10.439 -0.2634  0.0873 -0.0844
  377POPI   GL2 5946   8.604  16.956  10.278 -0.2138  0.1830  0.4055
  377POPI   C1A 5947   8.401  16.248  10.246  0.1499 -0.1663 -0.0425
  377POPI   D2A 5948   8.564  15.967  10.028 -0.0786 -0.0354  0.2948
  377POPI   C3A 5949   8.309  15.883   9.659  0.1697 -0.2306  0.1423
  377POPI   C4A 5950   8.159  16.089   9.368 -0.1955 -0.1098 -0.2706
  377POPI   C1B 5951   8.825  17.012   9.869  0.0709 -0.0918  0.1328
  377POPI   C2B 5952   8.740  17.021   9.490 -0.0289 -0.2964  0.3674
  377POPI   C3B 5953   8.564  17.245   9.131  0.1405  0.0882 -0.2008
  377POPI   C4B 5954   8.657  17.390   8.754  0.1367  0.1070 -0.3148
  378POPI    C1 5955   5.891  16.332  10.838  0.0141  0.1952 -0.0114
  378POPI    C2 5956   5.593  16.134  10.660 -0.0672  0.2467  0.0663
  378POPI    C3 5957   5.623  16.133  11.059  0.1153  0.1299  0.0535
  378POPI   PO4 5958   6.062  16.250  10.560  0.1040 -0.0203  0.0688
  378POPI   GL1 5959   6.050  15.908  10.254 -0.0551 -0.3910 -0.0945
  378POPI   GL2 5960   6.273  15.855  10.177 -0.1477 -0.3206 -0.0604
  378POPI   C1A 5961   5.663  15.992   9.974 -0.0414  0.1165 -0.3178
  378POPI   D2A 5962   5.296  16.051   9.954  0.0351  0.1510  0.3087
  378POPI   C3A 5963   5.063  16.073   9.639  0.0103 -0.0970  0.1932
  378POPI   C4A 5964   5.000  16.091   9.175  0.0013 -0.2266  0.0345
  378POPI   C1B 5965   6.333  15.619   9.916  0.3063 -0.0969  0.0440
  378POPI   C2B 5966   6.346  15.654   9.418 -0.2422 -0.0505  0.0926
  378POPI   C3B 5967   6.260  15.787   9.080 -0.0201 -0.0329 -0.1989
  378POPI   C4B 5968   5.908  15.847   8.871  0.1763  0.1872 -0.0188
  379POPI    C1 5969   7.274   2.902  10.780  0.0227  0.0657 -0.2684
  379POPI    C2 5970   6.969   3.125  10.647 -0.1096  0.0200 -0.0462
  379POPI    C3 5971   7.295   3.301  10.798 -0.1799  0.0653  0.0538
  379POPI   PO4 5972   7.388   2.723  10.571  0.2530  0.0127 -0.1264
  379POPI   GL1 5973   7.156   2.652  10.222 -0.0857  0.1476  0.0337
  379POPI   GL2 5974   7.186   2.346  10.241  0.1155  0.2615 -0.1614
  379POPI   C1A 5975   7.034   2.819   9.912  0.1925  0.0049 -0.0324
  379POPI   D2A 5976   6.785   2.519   9.622 -0.0097  0.0895 -0.0201
  379POPI   C3A 5977   6.513   2.529   9.294 -0.1084  0.1364 -0.1602
  379POPI   C4A 5978   6.442   2.761   8.902  0.3601 -0.0149  0.1980
  379POPI   C1B 5979   7.008   2.076   9.947  0.4845 -0.0069  0.4699
  379POPI   C2B 5980   6.867   1.993   9.567 -0.0378  0.1039  0.2116
  379POPI   C3B 5981   6.762   1.985   9.198 -0.1772 -0.1690 -0.1829
  379POPI   C4B 5982   6.884   1.781   8.870  0.1982 -0.1824 -0.1976
  380POPI    C1 5983   4.057   5.161  10.658  0.2108 -0.0681  0.0597
  380POPI    C2 5984   4.052   5.126  11.056  0.1325  0.0541  0.0701
  380POPI    C3 5985   3.801   5.379  10.875  0.3233  0.1664 -0.0399
  380POPI   PO4 5986   4.093   4.954  10.570 -0.0557  0.0538  0.1297
  380POPI   GL1 5987   4.001   4.961  10.186  0.2144 -0.1755 -0.1512
  380POPI   GL2 5988   3.895   4.662   9.987  0.0472  0.0066 -0.0883
  380POPI   C1A 5989   3.880   5.163   9.810 -0.3055  0.4324 -0.1537
  380POPI   D2A 5990   3.511   4.934   9.674  0.1378 -0.0375 -0.0882
  380POPI   C3A 5991   3.239   5.075   9.320  0.1796 -0.0742 -0.1742
  380POPI   C4A 5992   3.161   5.065   8.850 -0.0175 -0.1512  0.0491
  380POPI   C1B 5993   3.996   4.772   9.570  0.0064 -0.0291  0.3585
  380POPI   C2B 5994   4.193   4.733   9.204 -0.0169 -0.0929  0.1386
  380POPI   C3B 5995   4.431   4.653   8.847  0.0704 -0.4037  0.2027
  380POPI   C4B 5996   4.558   4.411   8.492  0.0609  0.1150  0.0661
  381POPI    C1 5997  16.991  12.687  10.578 -0.1664 -0.0059  0.0665
  381POPI    C2 5998  17.068  12.444  10.270 -0.0977  0.1145 -0.0119
  381POPI    C3 5999  17.124  12.316  10.644 -0.2352 -0.0515 -0.0469
  381POPI   PO4 6000  16.792  12.877  10.389 -0.0293  0.2842  0.1044
  381POPI   GL1 6001  16.822  13.042  10.020 -0.1015 -0.1523 -0.2562
  381POPI   GL2 6002  16.793  12.848   9.721  0.2238 -0.1854  0.0932
  381POPI   C1A 6003  16.913  13.524   9.869  0.0156  0.0586  0.3709
  381POPI   D2A 6004  16.996  13.780   9.587 -0.0768  0.0298 -0.0522
  381POPI   C3A 6005  17.081  13.767   9.097  0.0737 -0.2930  0.2008
  381POPI   C4A 6006  17.136  13.664   8.598  0.0262  0.2784  0.3094
  381POPI   C1B 6007  16.585  12.888   9.330  0.1172  0.1218 -0.3185
  381POPI   C2B 6008  16.686  12.986   8.916  0.1011  0.1889  0.0760
  381POPI   C3B 6009  16.790  13.161   8.578  0.0023  0.0769 -0.1771
  381POPI   C4B 6010  16.917  13.361   8.208  0.0814  0.0578 -0.0163
  382POPI    C1 6011   2.637  10.955  10.257 -0.2130  0.0347 -0.0795
  382POPI    C2 6012   2.830  10.859  10.593 -0.1680  0.2526 -0.0417
  382POPI    C3 6013   2.591  11.180  10.584 -0.0324  0.3493 -0.2653
  382POPI   PO4 6014   2.833  10.836  10.061 -0.1947  0.0644 -0.1281
  382POPI   GL1 6015   2.976  11.038   9.665  0.1955 -0.0224  0.3236
  382POPI   GL2 6016   3.160  10.850   9.592 -0.2393 -0.3662 -0.3500
  382POPI   C1A 6017   2.876  11.157   9.256 -0.0941 -0.0593  0.1415
  382POPI   D2A 6018   2.797  11.233   8.776  0.1577  0.2802  0.2649
  382POPI   C3A 6019   3.071  11.420   8.497 -0.2558 -0.1585 -0.0922
  382POPI   C4A 6020   3.064  11.167   8.100  0.2730  0.1830  0.0415
  382POPI   C1B 6021   3.284  10.848   9.166 -0.0170 -0.1877 -0.1131
  382POPI   C2B 6022   3.275  10.981   8.791 -0.0415  0.1603 -0.0132
  382POPI   C3B 6023   3.494  11.080   8.540  0.2878 -0.1329 -0.0701
  382POPI   C4B 6024   3.544  11.302   8.201  0.0453  0.1945 -0.2056
  383POPI    C1 6025   8.988   3.509  10.495  0.0183  0.0476 -0.0888
  383POPI    C2 6026   9.273   3.709  10.690 -0.0846  0.0569  0.0536
  383POPI    C3 6027   9.043   3.448  10.886 -0.0256 -0.1186 -0.1078
  383POPI   PO4 6028   8.977   3.658  10.321  0.0841  0.1664 -0.0531
  383POPI   GL1 6029   8.898   3.579   9.884 -0.3793 -0.1898 -0.2725
  383POPI   GL2 6030   9.035   3.861   9.847 -0.2451 -0.0560  0.0120
  383POPI   C1A 6031   8.863   3.211   9.498 -0.2941  0.1150 -0.0259
  383POPI   D2A 6032   8.597   3.104   9.182  0.2119  0.3416  0.2395
  383POPI   C3A 6033   8.747   3.088   8.821  0.0608 -0.0173 -0.1608
  383POPI   C4A 6034   8.781   3.061   8.330 -0.1053 -0.1762  0.1200
  383POPI   C1B 6035   9.206   3.664   9.531  0.0163 -0.2308  0.0589
  383POPI   C2B 6036   8.989   3.577   9.148 -0.1902  0.1261  0.1761
  383POPI   C3B 6037   9.187   3.504   8.682  0.0440 -0.2225  0.0941
  383POPI   C4B 6038   9.188   3.630   8.281  0.0285  0.1260 -0.0084
  384POPI    C1 6039   4.108   2.657  11.049  0.0483 -0.0636 -0.0260
  384POPI    C2 6040   3.783   2.714  11.276  0.1020  0.2688 -0.0263
  384POPI    C3 6041   3.998   2.378  11.314 -0.1897  0.0852  0.0349
  384POPI   PO4 6042   4.062   2.658  10.767  0.0760  0.1906 -0.2434
  384POPI   GL1 6043   3.991   2.906  10.378  0.2180 -0.2260  0.1017
  384POPI   GL2 6044   3.812   3.256  10.393  0.0116  0.1699 -0.1737
  384POPI   C1A 6045   3.905   3.042   9.904 -0.0513  0.1161 -0.2774
  384POPI   D2A 6046   3.693   3.162   9.520 -0.2682 -0.0992 -0.1542
  384POPI   C3A 6047   3.615   2.997   9.039  0.6893  0.1480  0.1122
  384POPI   C4A 6048   3.766   2.975   8.523 -0.1857  0.1518 -0.1763
  384POPI   C1B 6049   3.501   3.326  10.049 -0.2142  0.0017  0.0471
  384POPI   C2B 6050   3.210   3.131   9.679  0.3916  0.1046 -0.1936
  384POPI   C3B 6051   3.015   2.999   9.354 -0.1705  0.2189 -0.0281
  384POPI   C4B 6052   3.134   2.828   8.944 -0.4029  0.0004  0.1721
  385POPI    C1 6053  12.878   6.138  10.392 -0.1409  0.2363  0.1176
  385POPI    C2 6054  13.168   6.187  10.664 -0.1981  0.2069  0.1842
  385POPI    C3 6055  12.833   5.992  10.762 -0.0757 -0.1072 -0.0064
  385POPI   PO4 6056  12.939   6.350  10.176  0.2266  0.0118 -0.0614
  385POPI   GL1 6057  12.779   6.516   9.803  0.1816  0.0925 -0.1302
  385POPI   GL2 6058  12.545   6.717   9.764 -0.3011  0.3989  0.1216
  385POPI   C1A 6059  12.779   6.269   9.415  0.1033  0.1827 -0.0287
  385POPI   D2A 6060  12.601   6.121   9.159  0.0719 -0.0921  0.1838
  385POPI   C3A 6061  12.663   6.004   8.723  0.1391 -0.1117 -0.3030
  385POPI   C4A 6062  12.768   6.091   8.259 -0.0435 -0.1089 -0.0409
  385POPI   C1B 6063  12.576   6.717   9.297 -0.1515  0.0698 -0.0211
  385POPI   C2B 6064  12.648   6.570   8.885 -0.0231 -0.1323  0.0210
  385POPI   C3B 6065  12.640   6.486   8.530  0.5260 -0.1332  0.0598
  385POPI   C4B 6066  12.841   6.604   8.242  0.1327  0.1854  0.0882
  386POPI    C1 6067   6.805  11.055  10.614  0.1343  0.1421  0.0313
  386POPI    C2 6068   6.655  11.137  10.975  0.0771  0.1330  0.0096
  386POPI    C3 6069   6.849  10.793  10.913 -0.2259 -0.0293 -0.0604
  386POPI   PO4 6070   6.563  11.014  10.406 -0.0049  0.0422  0.3648
  386POPI   GL1 6071   6.396  11.268  10.090  0.0991  0.1222  0.1804
  386POPI   GL2 6072   6.052  11.167   9.893 -0.0479  0.4631  0.1874
  386POPI   C1A 6073   6.564  11.172   9.739  0.3148 -0.3605  0.1038
  386POPI   D2A 6074   6.734  11.333   9.402  0.0559 -0.3737 -0.1105
  386POPI   C3A 6075   6.732  11.149   9.080 -0.4152  0.1432  0.0542
  386POPI   C4A 6076   7.064  11.281   8.726 -0.3812 -0.0039  0.1029
  386POPI   C1B 6077   6.179  11.159   9.433  0.1136  0.0565  0.0985
  386POPI   C2B 6078   6.260  11.000   8.980  0.0051 -0.0971  0.0183
  386POPI   C3B 6079   6.489  11.058   8.669  0.1167  0.0012  0.2876
  386POPI   C4B 6080   6.874  10.939   8.444  0.0797 -0.1335 -0.1843
  387POPI    C1 6081  11.664   4.144  10.325  0.0599 -0.4551  0.0031
  387POPI    C2 6082  11.915   4.215  10.627  0.1225 -0.3422 -0.0745
  387POPI    C3 6083  12.024   4.302  10.252 -0.1465 -0.0035 -0.0797
  387POPI   PO4 6084  11.384   4.307  10.411  0.1428  0.2319 -0.0318
  387POPI   GL1 6085  11.031   4.193  10.007  0.1923 -0.1180 -0.0652
  387POPI   GL2 6086  11.283   4.172   9.863  0.1000 -0.1101  0.1893
  387POPI   C1A 6087  10.817   4.040   9.683  0.3091 -0.1484 -0.1112
  387POPI   D2A 6088  10.631   3.992   9.307 -0.0709 -0.1259  0.2730
  387POPI   C3A 6089  10.870   4.002   8.969 -0.2556  0.3128 -0.2657
  387POPI   C4A 6090  10.624   4.147   8.636  0.1377  0.2311  0.0111
  387POPI   C1B 6091  11.298   4.572   9.631 -0.1542 -0.0243 -0.1318
  387POPI   C2B 6092  11.503   4.825   9.514 -0.0667 -0.0185 -0.2371
  387POPI   C3B 6093  11.560   5.062   9.194 -0.1025 -0.2180 -0.2235
  387POPI   C4B 6094  11.359   5.194   8.879 -0.1446 -0.1209  0.0752
  388POPI    C1 6095  15.457  12.427  10.432 -0.0259  0.0029  0.0742
  388POPI    C2 6096  15.693  12.242  10.696  0.1567  0.1066 -0.0142
  388POPI    C3 6097  15.349  12.073  10.582  0.2588 -0.1168  0.0032
  388POPI   PO4 6098  15.596  12.552  10.286  0.1467 -0.1947  0.0859
  388POPI   GL1 6099  15.422  12.777   9.892  0.0787  0.4515 -0.1341
  388POPI   GL2 6100  15.711  12.919   9.785 -0.0471  0.0302  0.1097
  388POPI   C1A 6101  15.116  12.986   9.650  0.1590 -0.2595 -0.0655
  388POPI   D2A 6102  15.160  13.220   9.167 -0.1503  0.2364  0.2519
  388POPI   C3A 6103  14.817  13.237   8.969  0.0834  0.0638 -0.0416
  388POPI   C4A 6104  14.499  13.349   8.721 -0.0600  0.0707  0.0298
  388POPI   C1B 6105  15.583  12.984   9.362 -0.0084  0.0262  0.0883
  388POPI   C2B 6106  15.694  12.911   8.956  0.0090 -0.1174  0.1792
  388POPI   C3B 6107  15.871  12.923   8.587  0.0452  0.1153 -0.1487
  388POPI   C4B 6108  16.021  12.831   8.147 -0.1040 -0.0922 -0.1459
  389POPI    C1 6109   6.797   9.468  10.769  0.1385 -0.1000 -0.0504
  389POPI    C2 6110   6.846   9.151  11.009 -0.2200 -0.1266 -0.0065
  389POPI    C3 6111   6.535   9.397  11.064  0.0376  0.2181 -0.0599
  389POPI   PO4 6112   6.775   9.335  10.546  0.1366  0.2915  0.1175
  389POPI   GL1 6113   6.967   9.470  10.138  0.3023 -0.0059 -0.0877
  389POPI   GL2 6114   7.244   9.336  10.055  0.0771 -0.0703 -0.0503
  389POPI   C1A 6115   7.058   9.627   9.719 -0.0450 -0.1482 -0.0479
  389POPI   D2A 6116   7.329   9.846   9.361  0.1991  0.1494 -0.0650
  389POPI   C3A 6117   7.397   9.784   8.973  0.0966  0.2407  0.1652
  389POPI   C4A 6118   7.310   9.696   8.598  0.4386  0.1269 -0.0758
  389POPI   C1B 6119   7.200   9.162   9.642 -0.0145  0.0314  0.3504
  389POPI   C2B 6120   7.334   9.302   9.194 -0.1055 -0.0347  0.1245
  389POPI   C3B 6121   7.153   9.261   8.735  0.2094 -0.1909 -0.0925
  389POPI   C4B 6122   7.063   9.334   8.347 -0.1721 -0.1151 -0.0731
  390POPI    C1 6123   8.679   1.294  10.960 -0.3811 -0.0116 -0.1404
  390POPI    C2 6124   8.501   0.980  11.133 -0.1000 -0.0244  0.1354
  390POPI    C3 6125   8.775   1.191  11.334 -0.0367  0.1909 -0.1682
  390POPI   PO4 6126   8.519   1.512  10.879  0.2454 -0.0587 -0.2516
  390POPI   GL1 6127   8.262   1.413  10.545 -0.2307  0.1979  0.4025
  390POPI   GL2 6128   8.021   1.256  10.473  0.1741 -0.2887  0.2648
  390POPI   C1A 6129   8.461   1.647  10.145  0.0446  0.0764  0.4924
  390POPI   D2A 6130   8.616   1.722   9.770 -0.1926  0.1971 -0.0637
  390POPI   C3A 6131   8.697   1.581   9.397  0.1438  0.0906  0.1491
  390POPI   C4A 6132   8.661   1.837   9.017  0.1026  0.2077  0.0101
  390POPI   C1B 6133   8.103   1.369   9.959 -0.1400 -0.2594  0.2885
  390POPI   C2B 6134   8.224   1.471   9.555  0.0223  0.0303 -0.0376
  390POPI   C3B 6135   8.129   1.196   9.121  0.1196 -0.2307  0.0051
  390POPI   C4B 6136   7.981   1.146   8.666  0.1084 -0.0296  0.0529
  391POPI    C1 6137  14.378  15.044  10.295  0.2178 -0.1722  0.0292
  391POPI    C2 6138  14.015  15.212  10.293  0.2144 -0.1768  0.1765
  391POPI    C3 6139  14.100  14.922  10.554  0.2410 -0.3604 -0.0334
  391POPI   PO4 6140  14.562  15.191  10.387 -0.2856 -0.0598  0.3259
  391POPI   GL1 6141  14.727  15.563  10.106 -0.1219  0.2777  0.0511
  391POPI   GL2 6142  14.394  15.436   9.921 -0.0963 -0.3999 -0.1082
  391POPI   C1A 6143  14.934  15.482   9.771 -0.1919 -0.1226  0.1081
  391POPI   D2A 6144  15.193  15.257   9.376 -0.0537  0.2162 -0.2636
  391POPI   C3A 6145  15.343  14.820   9.614 -0.0570  0.1111  0.1051
  391POPI   C4A 6146  15.205  14.407   9.642 -0.3263 -0.4304  0.2278
  391POPI   C1B 6147  14.520  15.555   9.504 -0.1395  0.1313 -0.1486
  391POPI   C2B 6148  14.714  15.582   9.037  0.2801  0.3139  0.0191
  391POPI   C3B 6149  14.629  15.683   8.659 -0.1934  0.2636  0.0341
  391POPI   C4B 6150  14.357  15.866   8.332  0.0636 -0.1046 -0.0187
  392POPI    C1 6151  12.518  12.933  10.751 -0.0706  0.0240 -0.0658
  392POPI    C2 6152  12.442  13.293  10.909 -0.0586 -0.0900  0.2040
  392POPI    C3 6153  12.240  13.170  10.586 -0.1519  0.1065  0.1858
  392POPI   PO4 6154  12.783  12.948  10.705 -0.2102  0.0381  0.0814
  392POPI   GL1 6155  13.057  13.110  10.410  0.3833  0.0536  0.1452
  392POPI   GL2 6156  13.154  12.769  10.393  0.2640  0.0103 -0.0316
  392POPI   C1A 6157  13.187  13.197  10.083  0.0442 -0.3119  0.2516
  392POPI   D2A 6158  13.300  13.121   9.709  0.0667  0.2039  0.1776
  392POPI   C3A 6159  13.241  13.088   9.205  0.1556  0.2598  0.1703
  392POPI   C4A 6160  13.177  13.106   8.827  0.1702  0.0500 -0.1930
  392POPI   C1B 6161  12.885  12.808  10.062  0.0972  0.0584  0.2545
  392POPI   C2B 6162  12.933  12.707   9.659 -0.0698 -0.3529 -0.0719
  392POPI   C3B 6163  12.791  12.748   9.235  0.2327 -0.2200 -0.2287
  392POPI   C4B 6164  12.877  12.756   8.840 -0.1959  0.2257  0.1574
  393POPI    C1 6165   3.307  15.062  11.039  0.0340  0.2187  0.1170
  393POPI    C2 6166   3.020  14.848  10.861  0.2147 -0.0921  0.1919
  393POPI    C3 6167   2.946  15.222  10.979 -0.1583 -0.1670  0.2080
  393POPI   PO4 6168   3.477  15.091  10.753 -0.3648 -0.0809  0.0217
  393POPI   GL1 6169   3.569  15.259  10.370 -0.0540  0.2020 -0.2850
  393POPI   GL2 6170   3.620  15.641  10.360 -0.3578 -0.0481 -0.2786
  393POPI   C1A 6171   3.646  15.441   9.934 -0.1328 -0.0381 -0.0050
  393POPI   D2A 6172   3.764  15.465   9.451 -0.0948  0.4065 -0.1209
  393POPI   C3A 6173   3.636  15.701   9.117  0.1209  0.0169  0.1501
  393POPI   C4A 6174   3.408  15.534   8.676  0.2549 -0.2087 -0.1733
  393POPI   C1B 6175   3.526  15.923   9.979 -0.4277  0.0094 -0.3116
  393POPI   C2B 6176   3.524  15.942   9.531  0.3415 -0.0650 -0.0237
  393POPI   C3B 6177   3.637  16.224   9.275  0.1537  0.3143  0.0495
  393POPI   C4B 6178   3.592  16.616   9.313  0.1698  0.0126 -0.1261
  394POPI    C1 6179   8.574   3.766  10.636  0.0042  0.2779 -0.0995
  394POPI    C2 6180   8.559   3.989  10.968  0.1733  0.0962  0.0329
  394POPI    C3 6181   8.880   4.006  10.731  0.1341  0.0842 -0.0210
  394POPI   PO4 6182   8.325   3.858  10.454  0.1002 -0.0271  0.4194
  394POPI   GL1 6183   8.227   3.945  10.017 -0.1440  0.2318  0.0000
  394POPI   GL2 6184   7.944   3.862   9.908  0.3466 -0.0139 -0.0127
  394POPI   C1A 6185   8.526   3.897   9.768 -0.2792  0.1993 -0.1565
  394POPI   D2A 6186   8.608   3.622   9.455 -0.1280 -0.1832 -0.0917
  394POPI   C3A 6187   8.495   3.549   9.045  0.4752  0.1563  0.3009
  394POPI   C4A 6188   8.673   3.545   8.555  0.2004  0.0284 -0.0812
  394POPI   C1B 6189   8.098   3.836   9.456 -0.0698 -0.1099  0.1122
  394POPI   C2B 6190   8.071   3.750   9.025 -0.0416  0.3810  0.1582
  394POPI   C3B 6191   8.134   3.521   8.690 -0.0381 -0.0089  0.0939
  394POPI   C4B 6192   8.349   3.178   8.582  0.2479 -0.2348 -0.2508
  395POPI    C1 6193   2.751  16.943  11.051  0.1418 -0.3027  0.1560
  395POPI    C2 6194   2.371  16.856  11.142 -0.0150 -0.0248 -0.2070
  395POPI    C3 6195   2.540  17.188  11.286 -0.0327  0.0449 -0.3444
  395POPI   PO4 6196   2.844  16.898  10.745 -0.0960  0.1139 -0.3319
  395POPI   GL1 6197   2.605  16.875  10.410  0.1666 -0.1980 -0.1340
  395POPI   GL2 6198   2.760  16.549  10.336  0.0441 -0.0347  0.0618
  395POPI   C1A 6199   2.678  17.092  10.078  0.1306 -0.2495  0.0364
  395POPI   D2A 6200   2.616  17.160   9.671  0.4553  0.1376  0.0009
  395POPI   C3A 6201   2.493  17.491   9.434 -0.0845  0.0030 -0.2123
  395POPI   C4A 6202   2.391  17.768   9.078 -0.1219 -0.2445  0.1799
  395POPI   C1B 6203   2.869  16.700  10.013  0.0294 -0.1625 -0.0920
  395POPI   C2B 6204   2.938  16.728   9.675  0.3084 -0.0786  0.0095
  395POPI   C3B 6205   2.861  16.912   9.262  0.4807 -0.2650 -0.0920
  395POPI   C4B 6206   2.727  16.841   8.851  0.0396 -0.4461 -0.4066
  396POPI    C1 6207   1.102   0.971  10.835 -0.2933 -0.0059 -0.1469
  396POPI    C2 6208   0.793   0.940  11.087 -0.0990 -0.0131  0.0941
  396POPI    C3 6209   1.165   0.870  11.217  0.0066  0.0052 -0.1908
  396POPI   PO4 6210   1.080   1.180  10.643  0.2762 -0.0717 -0.0178
  396POPI   GL1 6211   0.954   1.116  10.213 -0.0576  0.0047 -0.0700
  396POPI   GL2 6212   1.241   1.260  10.159 -0.3554  0.0449  0.2534
  396POPI   C1A 6213   1.139   0.828   9.897  0.2779  0.2222  0.0868
  396POPI   D2A 6214   1.257   0.438   9.826  0.0978 -0.0144 -0.1334
  396POPI   C3A 6215   1.247   0.359   9.367  0.3903 -0.3995  0.0496
  396POPI   C4A 6216   1.168   0.529   9.025  0.0448 -0.1879  0.3888
  396POPI   C1B 6217   1.399   1.212   9.777  0.1510 -0.1698  0.0074
  396POPI   C2B 6218   1.512   1.301   9.379  0.1326  0.4595 -0.3671
  396POPI   C3B 6219   1.399   1.157   8.998  0.1040 -0.0589  0.2098
  396POPI   C4B 6220   1.356   0.847   8.719 -0.1514  0.2406  0.2106
  397POPI    C1 6221  15.045   8.507  10.276 -0.2022  0.0479  0.0922
  397POPI    C2 6222  14.920   8.667  10.621 -0.0465  0.1128  0.1197
  397POPI    C3 6223  15.201   8.382  10.622 -0.1281  0.0311  0.0529
  397POPI   PO4 6224  14.834   8.418  10.160  0.0206  0.1353 -0.1046
  397POPI   GL1 6225  14.921   8.272   9.818 -0.2687 -0.0670  0.0290
  397POPI   GL2 6226  14.891   8.009   9.799 -0.2582 -0.0579  0.0037
  397POPI   C1A 6227  15.043   8.324   9.365 -0.0821  0.0782  0.0759
  397POPI   D2A 6228  14.898   8.235   8.950  0.1921  0.3182  0.1819
  397POPI   C3A 6229  15.174   8.147   8.778 -0.4009 -0.0136  0.2427
  397POPI   C4A 6230  15.436   7.920   8.600  0.3282  0.1640  0.1514
  397POPI   C1B 6231  14.619   7.980   9.409  0.0795 -0.1450  0.0655
  397POPI   C2B 6232  14.472   7.791   8.959 -0.2697  0.1114  0.2905
  397POPI   C3B 6233  14.304   7.279   8.806  0.3902  0.0632 -0.1503
  397POPI   C4B 6234  14.585   6.972   8.519  0.0625 -0.2933 -0.0484
  398POPI    C1 6235   6.935   3.801  10.833 -0.0575 -0.0756 -0.2150
  398POPI    C2 6236   6.584   3.973  10.915  0.0950  0.2245 -0.1774
  398POPI    C3 6237   6.919   4.192  10.916  0.2935 -0.0735 -0.1383
  398POPI   PO4 6238   6.889   3.711  10.659 -0.0202  0.2600 -0.1368
  398POPI   GL1 6239   6.780   3.562  10.229 -0.0334 -0.1329  0.0154
  398POPI   GL2 6240   6.927   3.273  10.219  0.0131 -0.1308  0.0688
  398POPI   C1A 6241   6.442   3.570   9.921  0.0509 -0.5140  0.0466
  398POPI   D2A 6242   6.151   3.271   9.764 -0.1370  0.0840  0.2351
  398POPI   C3A 6243   6.173   3.251   9.307 -0.0091 -0.3607 -0.1785
  398POPI   C4A 6244   6.055   3.559   9.011 -0.2825 -0.1043  0.1774
  398POPI   C1B 6245   6.880   3.346   9.783  0.1190  0.1004  0.0946
  398POPI   C2B 6246   6.601   3.539   9.456 -0.0796  0.1779  0.1075
  398POPI   C3B 6247   6.631   3.786   8.986 -0.0202  0.0024 -0.0572
  398POPI   C4B 6248   6.666   3.704   8.590 -0.1024  0.0666  0.0989
  399POPI    C1 6249  13.165  14.054  10.927  0.3127  0.0610 -0.3311
  399POPI    C2 6250  13.356  13.762  11.121  0.0316 -0.0244 -0.1767
  399POPI    C3 6251  13.405  14.143  11.234  0.1167 -0.0446 -0.1442
  399POPI   PO4 6252  13.066  13.990  10.686 -0.4358 -0.0717  0.0115
  399POPI   GL1 6253  12.943  13.894  10.249 -0.2744  0.0019 -0.3778
  399POPI   GL2 6254  12.944  14.142  10.107  0.2860  0.1955  0.0489
  399POPI   C1A 6255  12.759  13.783   9.791  0.2351  0.1797  0.1031
  399POPI   D2A 6256  12.557  13.623   9.435 -0.0306  0.0407  0.0838
  399POPI   C3A 6257  12.277  13.218   9.378  0.0623  0.0583 -0.1625
  399POPI   C4A 6258  12.283  12.877   9.673  0.2807 -0.0826 -0.0285
  399POPI   C1B 6259  12.813  14.411   9.846  0.0428  0.0676 -0.1988
  399POPI   C2B 6260  12.711  14.435   9.414  0.0388  0.1503 -0.0445
  399POPI   C3B 6261  12.605  14.440   9.074  0.2076 -0.0780  0.2374
  399POPI   C4B 6262  12.654  14.346   8.741 -0.1858  0.0942  0.0452
  400POPI    C1 6263   7.918  13.181  10.978 -0.0874  0.0009 -0.2640
  400POPI    C2 6264   7.731  12.830  11.025  0.0814 -0.0397  0.1441
  400POPI    C3 6265   7.531  13.172  11.080  0.0065 -0.0759  0.0991
  400POPI   PO4 6266   8.038  13.266  10.736  0.2576  0.2394 -0.1203
  400POPI   GL1 6267   8.377  13.195  10.465  0.3224  0.3217 -0.4640
  400POPI   GL2 6268   8.690  13.116  10.612  0.2637  0.0290  0.1761
  400POPI   C1A 6269   8.576  13.378  10.149 -0.1114  0.3560 -0.1309
  400POPI   D2A 6270   8.592  13.412   9.784 -0.3096 -0.1036 -0.2648
  400POPI   C3A 6271   8.811  13.489   9.422 -0.0320 -0.0060 -0.1805
  400POPI   C4A 6272   8.850  13.560   8.945 -0.0459  0.0121  0.2559
  400POPI   C1B 6273   8.874  12.962  10.197 -0.0381 -0.0447  0.0660
  400POPI   C2B 6274   9.016  13.121   9.868 -0.0648  0.1297  0.2349
  400POPI   C3B 6275   9.214  13.197   9.466 -0.0352  0.2704 -0.0360
  400POPI   C4B 6276   9.245  13.141   9.051 -0.0716 -0.1965 -0.1233
  401POPI    C1 6277  11.697   0.424  10.480 -0.0414  0.0115 -0.2112
  401POPI    C2 6278  11.813   0.807  10.488 -0.0080 -0.0012 -0.0603
  401POPI    C3 6279  11.703   0.624  10.827 -0.0164 -0.1276 -0.1306
  401POPI   PO4 6280  11.868   0.295  10.415  0.3015 -0.1709  0.1459
  401POPI   GL1 6281  11.954   0.039  10.026 -0.0800  0.0983  0.4826
  401POPI   GL2 6282  11.693   0.108   9.948 -0.2104  0.0072  0.0561
  401POPI   C1A 6283  12.210  -0.016   9.619 -0.1371 -0.0510 -0.0753
  401POPI   D2A 6284  12.284   0.072   9.113  0.0051  0.0883 -0.2906
  401POPI   C3A 6285  12.416   0.324   8.750 -0.0794  0.0776 -0.0750
  401POPI   C4A 6286  12.569   0.242   8.303  0.0478  0.0554  0.3404
  401POPI   C1B 6287  11.673  -0.158   9.593 -0.2693 -0.0390  0.0012
  401POPI   C2B 6288  11.644  -0.128   9.210 -0.0268 -0.2533 -0.0530
  401POPI   C3B 6289  11.555  -0.244   8.862 -0.3125 -0.0149 -0.0874
  401POPI   C4B 6290  11.571  -0.301   8.378 -0.3333  0.0998 -0.0286
  402POPI    C1 6291  14.672   7.834  10.772 -0.1520  0.0348 -0.1153
  402POPI    C2 6292  14.718   8.206  10.631  0.0222  0.0473 -0.0287
  402POPI    C3 6293  14.441   8.131  10.910 -0.1330  0.0766 -0.1730
  402POPI   PO4 6294  14.791   7.638  10.480  0.0383  0.2060 -0.2487
  402POPI   GL1 6295  14.713   7.601  10.045 -0.1308 -0.3619 -0.2292
  402POPI   GL2 6296  15.075   7.536   9.955 -0.0819 -0.1399  0.0834
  402POPI   C1A 6297  14.487   7.447   9.650 -0.0223 -0.1481  0.1291
  402POPI   D2A 6298  14.337   7.406   9.281  0.0086  0.1420 -0.1617
  402POPI   C3A 6299  14.662   7.421   9.163  0.1571  0.1320 -0.0154
  402POPI   C4A 6300  14.813   7.335   8.763  0.1185 -0.1067 -0.1083
  402POPI   C1B 6301  14.980   7.591   9.534 -0.0942 -0.4362  0.0880
  402POPI   C2B 6302  14.976   7.773   9.073  0.1247 -0.0774 -0.0067
  402POPI   C3B 6303  14.886   7.798   8.591  0.1757  0.0591 -0.2314
  402POPI   C4B 6304  15.096   7.743   8.250  0.1298  0.2410  0.2788
  403POPI    C1 6305   3.289  17.352  10.967  0.2548  0.0651  0.2371
  403POPI    C2 6306   2.951  17.479  11.140  0.1684 -0.1317  0.2161
  403POPI    C3 6307   3.303  17.540  11.320  0.1434  0.2488  0.1453
  403POPI   PO4 6308   3.328  17.472  10.698  0.4134  0.2175  0.0479
  403POPI   GL1 6309   3.316  17.446  10.300  0.0989  0.0150  0.0543
  403POPI   GL2 6310   3.152  17.257  10.236  0.4302  0.0269  0.0814
  403POPI   C1A 6311   3.552  17.537   9.873  0.1495  0.2679 -0.0383
  403POPI   D2A 6312   3.658  17.754   9.537  0.0057  0.1098  0.0282
  403POPI   C3A 6313   3.511  17.654   9.270  0.3879 -0.0947 -0.0709
  403POPI   C4A 6314   3.434  17.678   8.821  0.1510 -0.1230 -0.1758
  403POPI   C1B 6315   3.183  17.249   9.851 -0.0573  0.2133 -0.1016
  403POPI   C2B 6316   3.075  17.435   9.470 -0.2586 -0.1509 -0.0418
  403POPI   C3B 6317   3.044  17.376   9.018  0.1326 -0.0643  0.1083
  403POPI   C4B 6318   3.216  17.310   8.607  0.0380  0.0564  0.1866
  404POPI    C1 6319   0.963  13.562  10.476 -0.0242 -0.3631 -0.1999
  404POPI    C2 6320   1.017  13.715  10.842 -0.0343 -0.2397 -0.2494
  404POPI    C3 6321   0.734  13.439  10.780 -0.1372 -0.1471 -0.1953
  404POPI   PO4 6322   1.140  13.735  10.322 -0.2927  0.0069  0.2437
  404POPI   GL1 6323   1.169  13.904   9.934 -0.1748 -0.1577 -0.2568
  404POPI   GL2 6324   1.392  14.077  10.071 -0.1914  0.2842 -0.1168
  404POPI   C1A 6325   1.267  13.591   9.616  0.0190 -0.0938  0.0765
  404POPI   D2A 6326   1.177  13.616   9.252  0.0645  0.1033 -0.0449
  404POPI   C3A 6327   0.894  13.889   9.155  0.2507 -0.0954  0.4718
  404POPI   C4A 6328   0.716  14.244   9.147  0.2565  0.2194  0.1974
  404POPI   C1B 6329   1.582  14.301   9.847 -0.0331  0.0284  0.2005
  404POPI   C2B 6330   1.754  14.378   9.460 -0.2188  0.2530 -0.0902
  404POPI   C3B 6331   1.631  14.549   9.106 -0.1697 -0.2936 -0.0776
  404POPI   C4B 6332   1.441  14.942   9.016  0.1178 -0.1428  0.1529
  405POPI    C1 6333  16.197   0.878  10.445 -0.1713  0.0935 -0.1043
  405POPI    C2 6334  16.286   0.693  10.788 -0.1083  0.0731 -0.1314
  405POPI    C3 6335  16.421   1.063  10.720  0.0154  0.0153 -0.2022
  405POPI   PO4 6336  16.249   0.727  10.234 -0.2709  0.2548 -0.2271
  405POPI   GL1 6337  16.140   0.809   9.785  0.1837  0.2790  0.3008
  405POPI   GL2 6338  16.459   0.773   9.804  0.3672  0.0542 -0.1821
  405POPI   C1A 6339  16.127   0.939   9.476 -0.2909  0.1627 -0.0236
  405POPI   D2A 6340  16.071   1.207   9.140 -0.2139 -0.4249  0.0924
  405POPI   C3A 6341  15.893   1.054   8.753  0.1400 -0.0376 -0.1157
  405POPI   C4A 6342  15.774   0.984   8.350 -0.1580  0.3538  0.1066
  405POPI   C1B 6343  16.735   0.851   9.564 -0.1945  0.3217  0.2841
  405POPI   C2B 6344  16.843   0.587   9.143  0.0125 -0.1887  0.1350
  405POPI   C3B 6345  16.559   0.303   8.972  0.1271 -0.2920 -0.2191
  405POPI   C4B 6346  16.111   0.252   9.073  0.4255  0.1956  0.0353
  406POPI    C1 6347   8.361  14.637  11.144 -0.0050 -0.1000  0.1386
  406POPI    C2 6348   8.158  14.541  10.813  0.2032 -0.0001 -0.0208
  406POPI    C3 6349   8.267  14.255  11.071  0.0883 -0.0853 -0.0655
  406POPI   PO4 6350   8.529  14.817  11.019 -0.1289 -0.2045  0.0209
  406POPI   GL1 6351   8.511  14.819  10.530 -0.1025 -0.1300 -0.4525
  406POPI   GL2 6352   8.286  14.936  10.266  0.3275  0.2023  0.1297
  406POPI   C1A 6353   8.711  14.804  10.114  0.2839 -0.1749 -0.1219
  406POPI   D2A 6354   8.878  15.041   9.880  0.1557  0.2954 -0.2368
  406POPI   C3A 6355   8.749  14.860   9.485  0.2082  0.0372 -0.2095
  406POPI   C4A 6356   8.530  14.858   9.079 -0.0439  0.2203 -0.0118
  406POPI   C1B 6357   8.345  15.040   9.811  0.0732 -0.2041  0.0172
  406POPI   C2B 6358   8.254  15.142   9.374  0.0206  0.0638  0.0450
  406POPI   C3B 6359   8.256  15.287   8.933 -0.1961  0.0213 -0.1665
  406POPI   C4B 6360   8.120  15.527   8.631  0.0158 -0.0294  0.0383
  407POPI    C1 6361  14.860  12.561  10.819 -0.0035 -0.0754  0.1991
  407POPI    C2 6362  15.228  12.443  10.920  0.0613  0.0306  0.0901
  407POPI    C3 6363  14.938  12.450  11.195  0.1269 -0.1044  0.1640
  407POPI   PO4 6364  14.914  12.684  10.620 -0.0858 -0.0739  0.1984
  407POPI   GL1 6365  14.998  12.560  10.160  0.1114  0.1042 -0.3015
  407POPI   GL2 6366  14.903  12.885  10.094  0.1804  0.3315 -0.1174
  407POPI   C1A 6367  15.040  12.437   9.745  0.0712  0.1184  0.2932
  407POPI   D2A 6368  15.119  12.414   9.342 -0.1298  0.0222  0.1453
  407POPI   C3A 6369  15.269  12.717   9.011 -0.2249  0.1781 -0.1432
  407POPI   C4A 6370  15.396  12.537   8.579  0.2771  0.1588 -0.3889
  407POPI   C1B 6371  14.639  12.748   9.866  0.2899  0.2548 -0.1180
  407POPI   C2B 6372  14.661  12.701   9.362  0.0545  0.0078 -0.0112
  407POPI   C3B 6373  14.728  12.735   8.967  0.0384 -0.2843  0.2138
  407POPI   C4B 6374  14.510  12.895   8.541 -0.0588 -0.0389 -0.1727
  408POPI    C1 6375  14.214   7.772  10.562 -0.1037  0.1878 -0.1345
  408POPI    C2 6376  13.992   7.675  10.881  0.1765  0.2185  0.0740
  408POPI    C3 6377  13.935   8.025  10.695 -0.1635  0.0894 -0.0718
  408POPI   PO4 6378  14.217   7.560  10.384  0.0118  0.0444  0.3235
  408POPI   GL1 6379  13.997   7.468   9.944  0.0707 -0.1207  0.0783
  408POPI   GL2 6380  14.056   7.110  10.024 -0.0459  0.1705  0.1712
  408POPI   C1A 6381  14.047   7.796   9.648 -0.1655  0.3190 -0.0343
  408POPI   D2A 6382  14.201   8.132   9.431 -0.0602  0.0622 -0.1482
  408POPI   C3A 6383  13.833   8.204   9.300  0.1863 -0.0039 -0.1902
  408POPI   C4A 6384  13.685   8.156   8.780  0.0311  0.0285 -0.2451
  408POPI   C1B 6385  14.263   7.024   9.621  0.2028  0.0915  0.0322
  408POPI   C2B 6386  14.228   6.843   9.258  0.0235 -0.1154 -0.2673
  408POPI   C3B 6387  14.326   6.737   8.861  0.2609 -0.0629 -0.0288
  408POPI   C4B 6388  14.610   6.495   8.695  0.0121 -0.1089  0.1154
  409POPI    C1 6389   7.109  16.376  10.914 -0.0320 -0.0353  0.1297
  409POPI    C2 6390   7.122  16.513  11.290 -0.1012 -0.1147  0.1612
  409POPI    C3 6391   7.129  16.119  11.219  0.1834 -0.0947  0.0670
  409POPI   PO4 6392   7.380  16.466  10.762 -0.0788  0.0252  0.1568
  409POPI   GL1 6393   7.635  16.536  10.429 -0.0502  0.0324 -0.0496
  409POPI   GL2 6394   7.868  16.694  10.240  0.5043 -0.1617  0.0484
  409POPI   C1A 6395   7.507  16.181  10.050 -0.0213 -0.2411 -0.0169
  409POPI   D2A 6396   7.687  15.956   9.744 -0.0679 -0.1020 -0.2280
  409POPI   C3A 6397   7.615  15.998   9.278  0.1917 -0.0464 -0.0799
  409POPI   C4A 6398   7.733  16.172   8.842 -0.2111 -0.1052  0.0082
  409POPI   C1B 6399   7.599  16.643   9.859  0.2172  0.2204  0.0382
  409POPI   C2B 6400   7.471  16.452   9.521 -0.2189 -0.2109  0.1273
  409POPI   C3B 6401   7.472  16.595   9.048 -0.0421 -0.1275 -0.0056
  409POPI   C4B 6402   7.258  16.781   8.661 -0.2924  0.0446  0.2990
  410POPI    C1 6403   6.325   6.410  10.671  0.0141  0.2315 -0.0072
  410POPI    C2 6404   6.329   6.308  11.058  0.1430  0.2571 -0.0011
  410POPI    C3 6405   6.038   6.543  10.915  0.0964  0.2493  0.0807
  410POPI   PO4 6406   6.452   6.179  10.605  0.0025  0.0234 -0.1632
  410POPI   GL1 6407   6.301   5.839  10.307  0.2222  0.1262  0.2275
  410POPI   GL2 6408   6.401   5.430  10.217 -0.0133 -0.0892  0.0563
  410POPI   C1A 6409   6.331   5.820   9.864 -0.1300 -0.2447  0.2260
  410POPI   D2A 6410   6.362   5.586   9.384  0.0586  0.1061 -0.1845
  410POPI   C3A 6411   6.507   5.811   9.056  0.1845  0.1972  0.2562
  410POPI   C4A 6412   6.632   5.664   8.697  0.2989 -0.2923 -0.1086
  410POPI   C1B 6413   6.349   5.297   9.902  0.1734 -0.0824 -0.0017
  410POPI   C2B 6414   6.392   5.064   9.522 -0.0201 -0.0812  0.3279
  410POPI   C3B 6415   6.284   5.192   9.033 -0.0643  0.3024 -0.0809
  410POPI   C4B 6416   6.254   4.911   8.747  0.0122  0.0759  0.0574
  411POPI    C1 6417  14.230   0.023  10.478  0.0881  0.0458 -0.0731
  411POPI    C2 6418  13.948   0.273  10.343 -0.0240  0.1549  0.3465
  411POPI    C3 6419  13.851  -0.020  10.598  0.0971 -0.3599 -0.1759
  411POPI   PO4 6420  14.347  -0.031  10.201  0.1115  0.0460 -0.5658
  411POPI   GL1 6421  14.336  -0.229   9.859  0.0475 -0.1071  0.1202
  411POPI   GL2 6422  14.321  -0.512   9.995  0.1691  0.0937  0.1266
  411POPI   C1A 6423  14.177  -0.093   9.474 -0.1889 -0.0300 -0.1563
  411POPI   D2A 6424  14.218  -0.131   9.015  0.0745  0.1761  0.0853
  411POPI   C3A 6425  14.279   0.064   8.563 -0.0788  0.2429  0.2381
  411POPI   C4A 6426  14.475   0.137   8.192 -0.2394 -0.1373 -0.0740
  411POPI   C1B 6427  14.417  -0.563   9.553  0.1089 -0.0413 -0.0194
  411POPI   C2B 6428  14.509  -0.615   9.116 -0.0471  0.1700  0.1029
  411POPI   C3B 6429  14.429  -0.858   8.738 -0.0757  0.3110 -0.3094
  411POPI   C4B 6430  14.558  -1.159   8.378  0.0962 -0.1946  0.1134
  412POPI    C1 6431   5.499   3.831  10.759  0.0399  0.0546 -0.0464
  412POPI    C2 6432   5.681   4.134  10.946  0.0437 -0.0910  0.1897
  412POPI    C3 6433   5.839   3.767  10.959  0.0853 -0.0893 -0.1674
  412POPI   PO4 6434   5.355   3.848  10.571  0.0809  0.0011  0.0301
  412POPI   GL1 6435   5.367   3.915  10.149  0.1760 -0.0830  0.3510
  412POPI   GL2 6436   5.255   3.461  10.134 -0.1690 -0.1373  0.0758
  412POPI   C1A 6437   4.967   4.198  10.023  0.1593  0.3781  0.0692
  412POPI   D2A 6438   4.580   4.250   9.885 -0.2765  0.1473 -0.0864
  412POPI   C3A 6439   4.779   4.079   9.541 -0.0566 -0.3366 -0.0768
  412POPI   C4A 6440   4.826   3.903   9.200 -0.1829  0.0845  0.0869
  412POPI   C1B 6441   5.366   3.432   9.753  0.0493  0.2167 -0.1749
  412POPI   C2B 6442   5.231   3.219   9.454  0.1966  0.1326  0.3323
  412POPI   C3B 6443   5.208   3.047   9.053  0.2258  0.0085 -0.0969
  412POPI   C4B 6444   4.971   2.914   8.696 -0.0566  0.0839  0.3101
  413POPI    C1 6445  10.600   1.621  10.341  0.0884 -0.0413 -0.2092
  413POPI    C2 6446  10.905   1.843  10.474 -0.2351  0.2790  0.0194
  413POPI    C3 6447  10.772   1.535  10.692 -0.0189  0.0789 -0.1262
  413POPI   PO4 6448  10.343   1.821  10.243 -0.1886  0.0006  0.3949
  413POPI   GL1 6449  10.095   1.613   9.979 -0.2389 -0.0819  0.1068
  413POPI   GL2 6450   9.973   1.870   9.988  0.0458 -0.1567 -0.2478
  413POPI   C1A 6451  10.133   1.481   9.582 -0.0791  0.0621 -0.0617
  413POPI   D2A 6452  10.127   1.427   9.231  0.2415  0.0490 -0.3483
  413POPI   C3A 6453  10.022   1.556   8.792  0.1254 -0.1876 -0.3412
  413POPI   C4A 6454   9.896   1.420   8.389  0.2846  0.3273  0.3603
  413POPI   C1B 6455  10.163   1.957   9.511 -0.0738  0.1819 -0.1744
  413POPI   C2B 6456  10.333   1.932   9.103  0.2363 -0.0079 -0.2197
  413POPI   C3B 6457  10.615   1.936   8.752  0.1213  0.0649 -0.3070
  413POPI   C4B 6458  10.398   1.678   8.440 -0.1485 -0.0452 -0.2301
  414POPI    C1 6459   5.800   3.254  10.864 -0.0077  0.1852  0.2028
  414POPI    C2 6460   5.529   3.367  10.593  0.0958  0.0124  0.0247
  414POPI    C3 6461   5.441   3.384  10.982 -0.1773 -0.0577 -0.0320
  414POPI   PO4 6462   6.004   3.340  10.728  0.2828  0.0752  0.0069
  414POPI   GL1 6463   6.224   3.289  10.291 -0.1517  0.0290  0.0394
  414POPI   GL2 6464   5.874   3.141  10.303 -0.1148 -0.0736 -0.1902
  414POPI   C1A 6465   6.470   3.152  10.181 -0.2804  0.0969 -0.2115
  414POPI   D2A 6466   6.570   2.959   9.936 -0.1337  0.0933 -0.1256
  414POPI   C3A 6467   6.560   2.973   9.510 -0.1572  0.1494 -0.0508
  414POPI   C4A 6468   6.624   3.181   9.067 -0.0719 -0.1262  0.3231
  414POPI   C1B 6469   5.711   3.077   9.931  0.0061  0.0021  0.0817
  414POPI   C2B 6470   5.735   3.139   9.433  0.0784  0.0306 -0.0500
  414POPI   C3B 6471   5.621   3.356   8.980  0.1366 -0.1019  0.0750
  414POPI   C4B 6472   5.662   3.669   8.768 -0.6146 -0.0175 -0.0837
  415POPI    C1 6473  15.477   7.333  10.931  0.0564  0.0530  0.2408
  415POPI    C2 6474  15.266   6.996  10.887 -0.4108  0.3329  0.2701
  415POPI    C3 6475  15.568   7.011  11.149 -0.2044 -0.1402  0.0698
  415POPI   PO4 6476  15.366   7.560  10.633  0.1348  0.0221 -0.2369
  415POPI   GL1 6477  15.576   7.585  10.158 -0.1019  0.3548  0.1408
  415POPI   GL2 6478  15.602   7.371   9.969 -0.0648  0.2458 -0.1865
  415POPI   C1A 6479  15.376   7.830   9.706 -0.0513  0.1482 -0.0242
  415POPI   D2A 6480  15.337   7.959   9.392  0.0624  0.0385  0.2780
  415POPI   C3A 6481  15.553   8.300   9.202 -0.1673  0.2484  0.0588
  415POPI   C4A 6482  15.644   8.423   8.794 -0.2304  0.1428  0.2868
  415POPI   C1B 6483  15.490   7.355   9.565 -0.2745 -0.0321  0.0147
  415POPI   C2B 6484  15.621   7.592   9.187  0.0662 -0.1293  0.1384
  415POPI   C3B 6485  15.720   7.489   8.821 -0.0582  0.1437 -0.1241
  415POPI   C4B 6486  15.913   7.534   8.460  0.3311 -0.1267  0.3634
  416POPI    C1 6487   0.129   8.551  10.551 -0.0117 -0.1037 -0.0464
  416POPI    C2 6488   0.389   8.397  10.813 -0.0311  0.0153  0.0436
  416POPI    C3 6489   0.123   8.671  10.933  0.1265  0.2602 -0.1536
  416POPI   PO4 6490   0.298   8.442  10.282  0.4590 -0.0995  0.1082
  416POPI   GL1 6491   0.178   8.475   9.843  0.3666 -0.0204 -0.0433
  416POPI   GL2 6492  -0.094   8.162   9.929  0.0550  0.0972  0.1762
  416POPI   C1A 6493   0.242   8.427   9.454 -0.0697  0.1330  0.2138
  416POPI   D2A 6494   0.220   8.311   9.127 -0.0398 -0.0873 -0.2237
  416POPI   C3A 6495   0.562   8.248   8.985  0.1551 -0.0558 -0.0626
  416POPI   C4A 6496   0.796   8.187   8.717  0.0672  0.0101  0.1305
  416POPI   C1B 6497  -0.014   7.992   9.595  0.0544  0.1294  0.2052
  416POPI   C2B 6498  -0.150   7.888   9.229 -0.0841 -0.1393  0.2563
  416POPI   C3B 6499  -0.216   7.737   8.869  0.0301 -0.0479  0.0975
  416POPI   C4B 6500  -0.086   7.580   8.515 -0.4562 -0.1229  0.0192
  417POPI    C1 6501  12.484   8.868  10.743  0.1494  0.0414  0.0427
  417POPI    C2 6502  12.087   8.823  10.761  0.1305  0.0817 -0.2323
  417POPI    C3 6503  12.324   8.606  10.999 -0.0593  0.1210 -0.0046
  417POPI   PO4 6504  12.494   8.952  10.465 -0.2095 -0.0150 -0.2736
  417POPI   GL1 6505  12.309   8.754  10.149  0.1964 -0.1270  0.0296
  417POPI   GL2 6506  12.110   8.819   9.997 -0.0512  0.2793  0.1202
  417POPI   C1A 6507  12.442   8.549   9.736  0.1337  0.1247  0.1969
  417POPI   D2A 6508  12.841   8.703   9.547 -0.1069 -0.2529  0.3016
  417POPI   C3A 6509  13.095   8.524   9.272 -0.0106 -0.0303 -0.0509
  417POPI   C4A 6510  13.401   8.536   9.043  0.1688 -0.2121  0.1192
  417POPI   C1B 6511  12.131   8.932   9.631 -0.1616  0.1031  0.2102
  417POPI   C2B 6512  12.495   9.111   9.394 -0.1021 -0.1979 -0.1321
  417POPI   C3B 6513  12.875   9.058   9.057 -0.2504 -0.3044 -0.1808
  417POPI   C4B 6514  13.073   8.845   8.719  0.1486 -0.0165 -0.3631
  418POPI    C1 6515   5.224   8.607  10.616  0.0618 -0.0253 -0.1694
  418POPI    C2 6516   4.835   8.533  10.669  0.0562 -0.0472 -0.2397
  418POPI    C3 6517   5.072   8.592  10.985 -0.0556  0.2340 -0.2050
  418POPI   PO4 6518   5.325   8.442  10.353 -0.0577  0.1040  0.0241
  418POPI   GL1 6519   5.394   8.311  10.041 -0.1212  0.1020  0.3537
  418POPI   GL2 6520   5.383   7.986  10.018  0.2003 -0.2848  0.2441
  418POPI   C1A 6521   5.393   8.333   9.619  0.0271  0.2187  0.4750
  418POPI   D2A 6522   5.371   8.332   9.175  0.1216  0.1620 -0.1291
  418POPI   C3A 6523   5.539   8.443   8.772  0.2998  0.0505 -0.0771
  418POPI   C4A 6524   5.783   8.469   8.308 -0.1749 -0.2341 -0.0035
  418POPI   C1B 6525   5.218   7.868   9.698  0.0678  0.2174 -0.0686
  418POPI   C2B 6526   5.190   7.584   9.313  0.1940 -0.0712 -0.2272
  418POPI   C3B 6527   5.337   7.510   8.916  0.0965  0.0950  0.1138
  418POPI   C4B 6528   5.641   7.540   8.503  0.0501 -0.3130 -0.1849
  419POPI    C1 6529  10.092   6.410  10.340  0.2319 -0.0365  0.1829
  419POPI    C2 6530  10.183   6.318  10.718  0.0495 -0.1596  0.1984
  419POPI    C3 6531  10.051   6.684  10.628 -0.2939 -0.2498  0.3223
  419POPI   PO4 6532  10.300   6.368  10.217 -0.0215  0.4299 -0.2546
  419POPI   GL1 6533  10.470   6.144   9.893 -0.0535  0.0815 -0.0946
  419POPI   GL2 6534  10.562   6.459   9.779  0.0625  0.1433 -0.0561
  419POPI   C1A 6535  10.614   5.921   9.604  0.1691  0.0067 -0.0664
  419POPI   D2A 6536  10.632   5.818   9.213  0.0012 -0.1248  0.4537
  419POPI   C3A 6537  10.571   5.832   8.834 -0.1543 -0.1136 -0.1529
  419POPI   C4A 6538  10.217   5.988   8.569  0.0894 -0.0813  0.0113
  419POPI   C1B 6539  10.679   6.491   9.340  0.0108  0.0108  0.0889
  419POPI   C2B 6540  10.662   6.420   8.780 -0.1507 -0.2201  0.0329
  419POPI   C3B 6541  10.589   6.269   8.452  0.0169 -0.0475  0.0442
  419POPI   C4B 6542  10.618   6.156   8.019  0.0903 -0.0237 -0.0821
  420POPI    C1 6543  13.149  15.645  10.537 -0.1169 -0.1196 -0.1113
  420POPI    C2 6544  13.035  15.277  10.644 -0.4673  0.0535  0.1297
  420POPI    C3 6545  12.918  15.593  10.860 -0.0862  0.3003 -0.0155
  420POPI   PO4 6546  13.087  15.636  10.290  0.0781 -0.3238  0.1435
  420POPI   GL1 6547  12.800  15.515  10.085 -0.1725 -0.1050  0.1921
  420POPI   GL2 6548  13.012  15.474   9.794 -0.0798 -0.2152  0.2093
  420POPI   C1A 6549  12.531  15.481   9.690 -0.1281 -0.0412 -0.3757
  420POPI   D2A 6550  12.339  15.676   9.444 -0.0297  0.2144  0.0771
  420POPI   C3A 6551  12.624  15.712   9.104 -0.1341 -0.1824  0.0475
  420POPI   C4A 6552  12.645  15.729   8.756 -0.2655  0.0497  0.0905
  420POPI   C1B 6553  12.894  15.379   9.379 -0.1041  0.2115  0.2845
  420POPI   C2B 6554  12.943  15.306   8.977 -0.0165 -0.2500 -0.0387
  420POPI   C3B 6555  12.797  15.242   8.546 -0.0360 -0.2968 -0.0164
  420POPI   C4B 6556  12.683  14.997   8.271  0.0945 -0.1140  0.1355
  421POPI    C1 6557  15.443  10.071  10.296 -0.0186  0.1809 -0.1189
  421POPI    C2 6558  15.133  10.019  10.544  0.0042 -0.0505 -0.1372
  421POPI    C3 6559  15.505   9.934  10.667  0.0589  0.2029 -0.1235
  421POPI   PO4 6560  15.411   9.951  10.033 -0.2205 -0.2696 -0.0433
  421POPI   GL1 6561  15.323   9.808   9.638  0.0140 -0.3569  0.2138
  421POPI   GL2 6562  15.634   9.788   9.558 -0.1581  0.0842  0.1307
  421POPI   C1A 6563  15.111   9.865   9.323  0.0616 -0.1174  0.1550
  421POPI   D2A 6564  14.791   9.852   9.079 -0.4499 -0.0339 -0.1630
  421POPI   C3A 6565  14.887  10.025   8.684 -0.1521  0.3128  0.0979
  421POPI   C4A 6566  14.844  10.002   8.179 -0.0050 -0.1111  0.0112
  421POPI   C1B 6567  15.677   9.606   9.180 -0.1587 -0.0918  0.1718
  421POPI   C2B 6568  15.334   9.655   8.963 -0.2599 -0.0875 -0.1031
  421POPI   C3B 6569  15.215   9.589   8.552  0.0876  0.0410 -0.1320
  421POPI   C4B 6570  15.068   9.496   8.112 -0.2073 -0.0480 -0.1023
  422POPI    C1 6571  15.737  11.684  10.527  0.0259  0.0812  0.0507
  422POPI    C2 6572  15.857  11.303  10.516 -0.3226 -0.0288 -0.0964
  422POPI    C3 6573  15.883  11.511  10.857 -0.0224 -0.1457 -0.0448
  422POPI   PO4 6574  15.649  11.718  10.255  0.0462 -0.0519  0.2015
  422POPI   GL1 6575  15.297  11.489   9.971 -0.1184 -0.1266 -0.2812
  422POPI   GL2 6576  15.073  11.240  10.026 -0.0891  0.0297 -0.0761
  422POPI   C1A 6577  15.266  11.496   9.516 -0.3030  0.0656  0.1273
  422POPI   D2A 6578  15.629  11.747   9.287 -0.2242 -0.0937  0.3693
  422POPI   C3A 6579  15.577  11.614   8.852 -0.0731  0.4038  0.0628
  422POPI   C4A 6580  15.411  11.477   8.392 -0.0014  0.2191 -0.0798
  422POPI   C1B 6581  14.863  11.182   9.707  0.0671  0.0802 -0.1935
  422POPI   C2B 6582  14.865  10.928   9.421 -0.1104  0.3896  0.1381
  422POPI   C3B 6583  14.842  10.955   8.947  0.0150  0.0257  0.1272
  422POPI   C4B 6584  14.777  10.962   8.550  0.1448  0.0059 -0.1481
  423DPPI    C1 6585   7.822  10.582  10.575  0.1709  0.1069 -0.2883
  423DPPI    C2 6586   8.038  10.245  10.565  0.1460  0.0957 -0.4700
  423DPPI    C3 6587   8.191  10.575  10.731  0.0490 -0.0876  0.0010
  423DPPI   PO4 6588   7.780  10.600  10.333  0.0601 -0.2554 -0.0135
  423DPPI   GL1 6589   7.493  10.577   9.984  0.0733  0.2709  0.1014
  423DPPI   GL2 6590   7.308  10.721   9.843  0.0969 -0.0909  0.2813
  423DPPI   C1A 6591   7.431  10.225   9.723 -0.0261  0.3089 -0.1872
  423DPPI   C2A 6592   7.464  10.303   9.205 -0.1220 -0.1582  0.0517
  423DPPI   C3A 6593   7.509  10.394   8.846 -0.1597  0.2625  0.0499
  423DPPI   C4A 6594   7.506  10.163   8.557 -0.3499 -0.2450  0.0303
  423DPPI   C1B 6595   7.452  10.742   9.520  0.2753 -0.0549 -0.0260
  423DPPI   C2B 6596   7.650  10.834   9.095  0.1790  0.1438 -0.1970
  423DPPI   C3B 6597   7.705  10.837   8.632  0.1574  0.1844  0.3044
  423DPPI   C4B 6598   7.754  10.629   8.193 -0.1222  0.0399  0.1100
  424DPPI    C1 6599  10.916   7.181  10.443 -0.0416  0.0258 -0.0132
  424DPPI    C2 6600  11.068   6.983  10.756 -0.1130 -0.1947 -0.1159
  424DPPI    C3 6601  10.734   7.199  10.799  0.1945  0.2545  0.0998
  424DPPI   PO4 6602  10.841   7.104  10.197  0.0861  0.2122  0.0614
  424DPPI   GL1 6603  10.784   7.006   9.797  0.1151 -0.1645  0.0611
  424DPPI   GL2 6604  11.121   7.103   9.666 -0.0131 -0.0894 -0.1719
  424DPPI   C1A 6605  10.785   6.949   9.372 -0.0820 -0.0976 -0.0332
  424DPPI   C2A 6606  10.625   6.951   9.012  0.1659 -0.0546 -0.1797
  424DPPI   C3A 6607  10.648   6.929   8.610 -0.0261  0.1680  0.0076
  424DPPI   C4A 6608  10.671   6.866   8.216  0.0412  0.0580  0.2012
  424DPPI   C1B 6609  11.194   7.252   9.234  0.0113  0.0683 -0.0540
  424DPPI   C2B 6610  11.125   7.212   8.848 -0.3707 -0.1132  0.2413
  424DPPI   C3B 6611  11.003   7.178   8.395 -0.2215  0.4233  0.0040
  424DPPI   C4B 6612  10.880   7.200   7.966 -0.0080  0.2180 -0.0503
  425DPPI    C1 6613  15.866  13.349  10.226 -0.0485 -0.1020 -0.2979
  425DPPI    C2 6614  15.877  12.964  10.333  0.0006  0.0254  0.1811
  425DPPI    C3 6615  15.786  13.244  10.604 -0.0991  0.3480 -0.1770
  425DPPI   PO4 6616  16.134  13.434  10.240  0.0847 -0.0929  0.0042
  425DPPI   GL1 6617  16.391  13.630   9.977  0.0710  0.0293  0.1068
  425DPPI   GL2 6618  16.634  13.903  10.007 -0.2273  0.3175 -0.0035
  425DPPI   C1A 6619  16.618  13.398   9.495 -0.0144 -0.0401 -0.2061
  425DPPI   C2A 6620  16.645  13.474   8.954  0.0407  0.1382  0.0240
  425DPPI   C3A 6621  16.633  13.640   8.560  0.0995  0.0854 -0.1161
  425DPPI   C4A 6622  16.663  13.779   8.168 -0.5877 -0.2598 -0.3003
  425DPPI   C1B 6623  16.502  13.891   9.606 -0.3767  0.0243 -0.0935
  425DPPI   C2B 6624  16.382  13.763   9.272  0.0382 -0.3672  0.1060
  425DPPI   C3B 6625  16.456  13.910   8.913  0.3012  0.0604  0.0694
  425DPPI   C4B 6626  16.199  13.861   8.639 -0.2757  0.0766  0.0627
  426DPPI    C1 6627   9.720  13.177  10.997  0.0646  0.1482  0.0345
  426DPPI    C2 6628   9.515  12.980  11.278  0.2040 -0.1624 -0.0766
  426DPPI    C3 6629   9.814  13.224  11.383 -0.0781  0.1279  0.0723
  426DPPI   PO4 6630   9.665  13.019  10.780 -0.1042  0.1580  0.0346
  426DPPI   GL1 6631   9.552  12.824  10.296  0.3196 -0.3090 -0.0052
  426DPPI   GL2 6632   9.627  12.547  10.206 -0.0781  0.2007  0.3581
  426DPPI   C1A 6633   9.421  12.875   9.786  0.1298  0.1741 -0.2225
  426DPPI   C2A 6634   9.527  12.751   9.417  0.1920 -0.0223  0.1271
  426DPPI   C3A 6635   9.554  12.765   9.029 -0.2339  0.1248  0.1562
  426DPPI   C4A 6636   9.422  12.667   8.627 -0.1745 -0.0101 -0.0198
  426DPPI   C1B 6637   9.866  12.554   9.888 -0.0321  0.2285  0.0262
  426DPPI   C2B 6638   9.992  12.714   9.494  0.1479 -0.3162 -0.0211
  426DPPI   C3B 6639  10.006  12.506   9.078  0.0577 -0.2503 -0.3821
  426DPPI   C4B 6640   9.890  12.541   8.690 -0.0699  0.1824  0.0176
  427DPPI    C1 6641  10.181   4.484  10.582  0.0526  0.0556  0.2321
  427DPPI    C2 6642  10.162   4.094  10.496  0.0944  0.0517  0.2400
  427DPPI    C3 6643  10.004   4.232  10.837  0.0669  0.0439  0.2304
  427DPPI   PO4 6644  10.355   4.553  10.382 -0.1283 -0.2144 -0.1328
  427DPPI   GL1 6645  10.525   4.164  10.086 -0.1815 -0.0017  0.3178
  427DPPI   GL2 6646  10.654   4.518   9.957 -0.2041  0.0961 -0.1670
  427DPPI   C1A 6647  10.287   4.094   9.705 -0.2000 -0.1118 -0.3089
  427DPPI   C2A 6648  10.236   4.307   9.312 -0.7276  0.0059  0.2062
  427DPPI   C3A 6649  10.204   4.382   8.899  0.0483  0.0289  0.2809
  427DPPI   C4A 6650   9.992   4.290   8.615  0.1225  0.0914  0.0125
  427DPPI   C1B 6651  10.743   4.501   9.556 -0.1028  0.3639 -0.1675
  427DPPI   C2B 6652  11.018   4.339   9.283 -0.0731  0.1166  0.0107
  427DPPI   C3B 6653  11.304   4.078   9.417  0.3883 -0.0072  0.0851
  427DPPI   C4B 6654  11.636   3.776   9.356 -0.1801  0.0048 -0.0288
  428DPPI    C1 6655  11.295   7.458  10.612 -0.0387  0.2435  0.0250
  428DPPI    C2 6656  11.518   7.128  10.577  0.0697  0.3118  0.0693
  428DPPI    C3 6657  11.668   7.453  10.756 -0.0516  0.3712  0.0637
  428DPPI   PO4 6658  11.222   7.606  10.333 -0.0030  0.1573  0.2318
  428DPPI   GL1 6659  11.039   7.580   9.911  0.2648  0.2436  0.2030
  428DPPI   GL2 6660  11.327   7.681   9.845  0.1299 -0.1068  0.1267
  428DPPI   C1A 6661  10.764   7.479   9.509 -0.0231 -0.0554 -0.0945
  428DPPI   C2A 6662  10.730   7.452   9.102  0.1700 -0.1688  0.0028
  428DPPI   C3A 6663  10.581   7.463   8.688  0.5311 -0.1580  0.1452
  428DPPI   C4A 6664  10.486   7.396   8.271  0.1242 -0.3218 -0.0495
  428DPPI   C1B 6665  11.204   7.858   9.462  0.3284 -0.0726  0.1917
  428DPPI   C2B 6666  11.271   8.093   9.139  0.2334 -0.2580  0.0046
  428DPPI   C3B 6667  11.435   8.110   8.707  0.0236  0.1341 -0.0499
  428DPPI   C4B 6668  11.688   8.033   8.269  0.0970  0.2206  0.0595
  429DPPI    C1 6669  11.995  11.225  10.504  0.0070  0.0973  0.0663
  429DPPI    C2 6670  11.691  11.447  10.637  0.0869  0.2409  0.0113
  429DPPI    C3 6671  11.956  11.297  10.895 -0.0423  0.0969  0.0615
  429DPPI   PO4 6672  12.036  11.420  10.294 -0.0823  0.2122  0.0638
  429DPPI   GL1 6673  11.924  11.592   9.852 -0.2250 -0.0571  0.1434
  429DPPI   GL2 6674  12.163  11.860   9.958 -0.0108 -0.0977  0.0280
  429DPPI   C1A 6675  11.919  11.291   9.489 -0.1371  0.5232 -0.0827
  429DPPI   C2A 6676  11.851  11.263   9.119  0.0535 -0.0280 -0.0310
  429DPPI   C3A 6677  11.890  11.220   8.760 -0.2078  0.2347  0.1105
  429DPPI   C4A 6678  11.645  11.367   8.486 -0.0961 -0.3067 -0.2719
  429DPPI   C1B 6679  12.146  11.851   9.477  0.2215 -0.2860 -0.1014
  429DPPI   C2B 6680  12.109  11.779   9.092  0.2994  0.0739  0.2940
  429DPPI   C3B 6681  12.167  11.649   8.653  0.3244  0.1063 -0.4556
  429DPPI   C4B 6682  12.059  11.453   8.237 -0.0414 -0.0948  0.0660
  430DPPI    C1 6683   1.338   4.062  11.092 -0.1109 -0.2473  0.1482
  430DPPI    C2 6684   0.974   4.213  11.023 -0.0993 -0.1859  0.2198
  430DPPI    C3 6685   1.078   4.104  11.393  0.0984  0.1827  0.2767
  430DPPI   PO4 6686   1.276   3.827  10.859  0.1774 -0.2674 -0.3218
  430DPPI   GL1 6687   1.398   3.720  10.484  0.1539  0.1297 -0.2823
  430DPPI   GL2 6688   1.658   3.952  10.543  0.0437  0.1079 -0.4420
  430DPPI   C1A 6689   1.487   3.602  10.043 -0.1139 -0.2385  0.2544
  430DPPI   C2A 6690   1.349   3.500   9.649 -0.1667 -0.0844  0.2250
  430DPPI   C3A 6691   1.430   3.428   9.129 -0.3902 -0.0321  0.0646
  430DPPI   C4A 6692   1.299   3.114   8.778 -0.2417  0.0011 -0.0153
  430DPPI   C1B 6693   1.511   4.054  10.154 -0.1057  0.0979 -0.0410
  430DPPI   C2B 6694   1.546   4.012   9.731  0.0092  0.0505 -0.0181
  430DPPI   C3B 6695   1.649   3.853   9.385 -0.0791 -0.1187  0.0891
  430DPPI   C4B 6696   1.910   3.902   8.953  0.0988 -0.0931 -0.0592
  431DPPI    C1 6697   7.060   6.828  10.962  0.0652 -0.1541 -0.1145
  431DPPI    C2 6698   7.365   7.087  10.971 -0.0810  0.0139  0.0641
  431DPPI    C3 6699   7.276   6.871  11.296  0.0533 -0.2786 -0.0904
  431DPPI   PO4 6700   7.155   6.677  10.721 -0.1234  0.1611 -0.3420
  431DPPI   GL1 6701   7.006   6.497  10.480 -0.2039  0.0882  0.1182
  431DPPI   GL2 6702   6.955   6.156  10.429 -0.0853 -0.2110  0.1197
  431DPPI   C1A 6703   6.786   6.641  10.145  0.0004  0.0532 -0.1768
  431DPPI   C2A 6704   6.734   6.482   9.701  0.0399  0.4634 -0.0450
  431DPPI   C3A 6705   7.020   6.641   9.417 -0.0657 -0.1987 -0.0245
  431DPPI   C4A 6706   6.945   6.640   9.026 -0.0222 -0.0115 -0.4269
  431DPPI   C1B 6707   6.785   6.045   9.941  0.1075  0.0633 -0.1667
  431DPPI   C2B 6708   6.730   5.894   9.548  0.1254  0.0754 -0.0597
  431DPPI   C3B 6709   6.714   6.211   9.253  0.2106 -0.0365  0.3620
  431DPPI   C4B 6710   6.916   6.181   8.808  0.1479 -0.1179  0.1139
  432DPPI    C1 6711  11.654   9.185  10.523  0.0938  0.0053 -0.0898
  432DPPI    C2 6712  12.050   9.207  10.469  0.0760  0.2481 -0.1295
  432DPPI    C3 6713  11.889   9.327  10.814  0.0769 -0.2512  0.0523
  432DPPI   PO4 6714  11.565   9.316  10.261 -0.1031 -0.0106 -0.0850
  432DPPI   GL1 6715  11.695   9.438   9.813  0.4572  0.4340  0.0057
  432DPPI   GL2 6716  11.986   9.330   9.973  0.1514  0.1390 -0.3508
  432DPPI   C1A 6717  11.665   9.087   9.555  0.1157  0.1300  0.2679
  432DPPI   C2A 6718  11.777   8.993   9.148 -0.2126 -0.2171 -0.0355
  432DPPI   C3A 6719  11.815   8.988   8.665 -0.0132  0.0506  0.1751
  432DPPI   C4A 6720  12.058   8.743   8.461  0.3204  0.2694  0.1445
  432DPPI   C1B 6721  12.048   9.454   9.490  0.0004  0.2498 -0.1299
  432DPPI   C2B 6722  12.187   9.314   9.143 -0.1295 -0.2204  0.0555
  432DPPI   C3B 6723  12.337   9.005   8.938 -0.2897 -0.1428  0.0370
  432DPPI   C4B 6724  12.532   8.674   9.125 -0.2611  0.1740  0.2068
  433DPPI    C1 6725   3.842  15.479  10.764  0.0323  0.3395 -0.0387
  433DPPI    C2 6726   3.750  15.756  11.038 -0.0444  0.2098  0.0677
  433DPPI    C3 6727   3.735  15.367  11.132 -0.1084  0.1627 -0.1320
  433DPPI   PO4 6728   4.123  15.518  10.701 -0.0748  0.2543  0.1584
  433DPPI   GL1 6729   4.203  15.357  10.332 -0.2243  0.0048  0.3174
  433DPPI   GL2 6730   3.997  15.154  10.171 -0.2366 -0.0678  0.0832
  433DPPI   C1A 6731   4.557  15.404  10.111 -0.1314 -0.2404 -0.1594
  433DPPI   C2A 6732   4.714  15.280   9.702 -0.2084  0.0333  0.0175
  433DPPI   C3A 6733   4.894  15.110   9.395 -0.1387 -0.4574  0.1237
  433DPPI   C4A 6734   4.771  14.925   8.992  0.2269  0.0086 -0.2972
  433DPPI   C1B 6735   4.143  15.188   9.786 -0.2109 -0.1553 -0.0180
  433DPPI   C2B 6736   4.211  15.284   9.372  0.1456 -0.2890  0.2419
  433DPPI   C3B 6737   4.454  15.334   9.108 -0.0217  0.2163  0.1984
  433DPPI   C4B 6738   4.697  15.286   8.724 -0.1605  0.1058 -0.1647
  434DPPI    C1 6739  16.767  17.892  10.766  0.0036 -0.1232  0.0031
  434DPPI    C2 6740  16.708  17.562  10.984 -0.2208 -0.1239 -0.0559
  434DPPI    C3 6741  16.555  17.912  11.104  0.1974  0.0059  0.1186
  434DPPI   PO4 6742  17.055  17.799  10.605  0.3597 -0.1088 -0.3998
  434DPPI   GL1 6743  17.104  17.590  10.285  0.1940 -0.1052 -0.1257
  434DPPI   GL2 6744  17.187  17.288  10.165  0.0187 -0.1383 -0.1247
  434DPPI   C1A 6745  16.703  17.503  10.052  0.0376 -0.4217  0.0301
  434DPPI   C2A 6746  16.608  17.470   9.607  0.0229  0.0906 -0.3529
  434DPPI   C3A 6747  16.585  17.408   9.172 -0.0586  0.0276  0.1030
  434DPPI   C4A 6748  16.537  17.308   8.773  0.1351 -0.1476  0.0849
  434DPPI   C1B 6749  17.139  17.262   9.738 -0.0847 -0.0852  0.2130
  434DPPI   C2B 6750  16.949  17.102   9.399  0.0423 -0.2724 -0.0376
  434DPPI   C3B 6751  16.914  16.993   8.961 -0.0990 -0.2052  0.2538
  434DPPI   C4B 6752  17.011  16.835   8.555  0.1012 -0.0373  0.0758
  435DPPI    C1 6753   2.161   5.332  10.758 -0.0036  0.0632  0.0179
  435DPPI    C2 6754   2.527   5.268  10.609 -0.0536 -0.0843 -0.0432
  435DPPI    C3 6755   2.482   5.364  10.995  0.0727  0.2505 -0.1083
  435DPPI   PO4 6756   1.980   5.144  10.577  0.1783  0.1117  0.1918
  435DPPI   GL1 6757   1.837   5.084  10.227 -0.1027  0.1872  0.2096
  435DPPI   GL2 6758   2.070   5.116  10.080  0.2922  0.3444  0.1344
  435DPPI   C1A 6759   1.586   4.981   9.869 -0.2847 -0.3949 -0.0652
  435DPPI   C2A 6760   1.327   4.993   9.573 -0.0733  0.0042 -0.3043
  435DPPI   C3A 6761   1.468   4.846   9.229  0.0492 -0.2399  0.0759
  435DPPI   C4A 6762   1.603   4.812   8.817 -0.0879  0.0919 -0.1003
  435DPPI   C1B 6763   2.398   5.133   9.761 -0.1595  0.0182 -0.4683
  435DPPI   C2B 6764   2.451   5.198   9.357  0.0389 -0.0596  0.2030
  435DPPI   C3B 6765   2.500   5.158   8.917  0.0258  0.2353  0.1235
  435DPPI   C4B 6766   2.731   5.123   8.562  0.1346  0.0793  0.2044
  436DPPI    C1 6767   5.600  10.360  10.782  0.1008  0.0994 -0.0380
  436DPPI    C2 6768   5.916  10.509  10.587  0.2246  0.2312  0.2578
  436DPPI    C3 6769   5.958  10.371  10.960 -0.0187  0.0237  0.2112
  436DPPI   PO4 6770   5.497  10.201  10.650 -0.4498  0.2316 -0.1819
  436DPPI   GL1 6771   5.505  10.277  10.212 -0.1279 -0.1325 -0.4005
  436DPPI   GL2 6772   5.781  10.140  10.221  0.0345 -0.0410  0.0015
  436DPPI   C1A 6773   5.429  10.407   9.812 -0.0452  0.4360  0.0402
  436DPPI   C2A 6774   5.473  10.359   9.436 -0.0529 -0.1124  0.1555
  436DPPI   C3A 6775   5.416  10.376   8.997 -0.2139 -0.3812  0.0113
  436DPPI   C4A 6776   5.565  10.261   8.624  0.1149 -0.0322 -0.2699
  436DPPI   C1B 6777   5.813  10.099   9.770  0.0384 -0.0461  0.2696
  436DPPI   C2B 6778   5.847  10.016   9.282  0.0213 -0.1565  0.2294
  436DPPI   C3B 6779   5.891   9.941   8.947 -0.0135 -0.2305  0.1001
  436DPPI   C4B 6780   5.985   9.963   8.480 -0.3624  0.1074 -0.2174
  437DPPI    C1 6781   2.114   6.690  11.007 -0.0678 -0.1717  0.0104
  437DPPI    C2 6782   2.512   6.731  11.012 -0.0896  0.0802 -0.1423
  437DPPI    C3 6783   2.326   6.547  11.315  0.1566 -0.1853 -0.1478
  437DPPI   PO4 6784   2.075   6.632  10.635 -0.0550 -0.5314 -0.1058
  437DPPI   GL1 6785   2.330   6.749  10.286  0.1009 -0.0879 -0.0975
  437DPPI   GL2 6786   2.650   6.797  10.448  0.0872  0.2740  0.2655
  437DPPI   C1A 6787   2.327   6.830   9.815 -0.0838 -0.1741  0.1766
  437DPPI   C2A 6788   2.113   7.036   9.518 -0.0657  0.1553  0.0313
  437DPPI   C3A 6789   2.200   7.139   9.222 -0.0780 -0.0535  0.0758
  437DPPI   C4A 6790   2.567   7.217   9.047  0.2022 -0.2327 -0.0061
  437DPPI   C1B 6791   2.782   6.736   9.989  0.1960 -0.0598 -0.2148
  437DPPI   C2B 6792   3.028   6.806   9.589 -0.1462 -0.0020  0.4694
  437DPPI   C3B 6793   3.338   7.013   9.298  0.0622 -0.1412 -0.1188
  437DPPI   C4B 6794   3.148   7.411   9.233  0.2860  0.5071  0.2461
  438DPPI    C1 6795   5.597  14.679  11.132  0.0872  0.1005  0.0263
  438DPPI    C2 6796   5.216  14.796  11.167  0.0490 -0.0565  0.1457
  438DPPI    C3 6797   5.462  14.817  11.482  0.0914 -0.1222  0.1172
  438DPPI   PO4 6798   5.721  14.794  10.866 -0.2808 -0.2773  0.3440
  438DPPI   GL1 6799   5.894  14.731  10.452  0.0148 -0.0646 -0.0922
  438DPPI   GL2 6800   6.125  14.984  10.316 -0.1101  0.0266  0.2542
  438DPPI   C1A 6801   5.867  14.345  10.100  0.1247  0.1169 -0.4451
  438DPPI   C2A 6802   5.785  14.234   9.631 -0.1441  0.0287 -0.1106
  438DPPI   C3A 6803   5.776  14.369   9.085 -0.1059 -0.0296 -0.0366
  438DPPI   C4A 6804   5.961  14.374   8.679 -0.1296  0.0005  0.0010
  438DPPI   C1B 6805   6.201  14.724   9.924  0.0035  0.0844 -0.0616
  438DPPI   C2B 6806   6.255  14.622   9.450 -0.2551 -0.1435 -0.1898
  438DPPI   C3B 6807   6.326  14.678   9.038  0.0978  0.0205  0.0494
  438DPPI   C4B 6808   6.489  14.488   8.642 -0.4227  0.1821 -0.0797
  439DPPI    C1 6809  11.157  11.397  10.770  0.0363 -0.1102 -0.0456
  439DPPI    C2 6810  11.158  11.087  11.022  0.1942 -0.0120  0.0762
  439DPPI    C3 6811  11.422  11.384  11.069  0.2403 -0.0038 -0.2189
  439DPPI   PO4 6812  11.084  11.278  10.540 -0.0138 -0.0887  0.0615
  439DPPI   GL1 6813  11.006  11.412  10.122 -0.0499  0.1513  0.2596
  439DPPI   GL2 6814  10.824  11.244  10.030  0.1647 -0.2691 -0.0574
  439DPPI   C1A 6815  11.126  11.224   9.617 -0.1866 -0.0529  0.1628
  439DPPI   C2A 6816  11.403  11.064   9.240  0.0779  0.1405  0.1655
  439DPPI   C3A 6817  11.372  11.099   8.799 -0.0710  0.0109 -0.0457
  439DPPI   C4A 6818  11.128  10.898   8.413 -0.1444 -0.2102 -0.1873
  439DPPI   C1B 6819  10.607  11.317   9.628 -0.1233  0.1447 -0.1349
  439DPPI   C2B 6820  10.701  11.261   9.221 -0.3370  0.2643  0.1233
  439DPPI   C3B 6821  10.830  11.374   8.853  0.5051 -0.1814  0.1861
  439DPPI   C4B 6822  11.003  11.371   8.458 -0.1454  0.0596 -0.0032
  440DPPI    C1 6823   5.856  11.924  10.715 -0.0903 -0.0071 -0.0379
  440DPPI    C2 6824   5.828  11.779  11.087 -0.3453  0.2123  0.0312
  440DPPI    C3 6825   5.908  11.533  10.782 -0.3083  0.0033  0.2074
  440DPPI   PO4 6826   6.011  12.011  10.677  0.4075 -0.1156 -0.0640
  440DPPI   GL1 6827   6.215  12.165  10.285  0.0184 -0.1274 -0.0834
  440DPPI   GL2 6828   6.528  12.049  10.256 -0.2540  0.1953 -0.2787
  440DPPI   C1A 6829   6.266  12.196   9.841  0.5142  0.0779 -0.0579
  440DPPI   C2A 6830   6.342  12.171   9.449 -0.0647 -0.1325 -0.1542
  440DPPI   C3A 6831   6.341  12.055   9.001  0.5522  0.1390  0.0411
  440DPPI   C4A 6832   6.410  11.958   8.597  0.3844 -0.0223  0.0777
  440DPPI   C1B 6833   6.737  12.313  10.000  0.0487  0.2123  0.0838
  440DPPI   C2B 6834   6.818  12.350   9.510  0.0862 -0.1061 -0.0789
  440DPPI   C3B 6835   6.866  12.201   9.205  0.2005 -0.4421 -0.0386
  440DPPI   C4B 6836   6.719  12.285   8.883 -0.0060  0.0576 -0.1243
  441DPPI    C1 6837  16.315   4.793  10.402 -0.0365 -0.2869  0.1170
  441DPPI    C2 6838  16.644   4.885  10.610 -0.0687 -0.0479  0.0659
  441DPPI    C3 6839  16.284   4.913  10.782 -0.0847  0.0053  0.0237
  441DPPI   PO4 6840  16.394   4.664  10.209 -0.4220  0.0183 -0.0370
  441DPPI   GL1 6841  16.653   4.390   9.970 -0.2896 -0.0040  0.0348
  441DPPI   GL2 6842  16.310   4.236   9.877  0.2421  0.0051 -0.1196
  441DPPI   C1A 6843  16.934   4.330   9.558 -0.1913 -0.4051 -0.0415
  441DPPI   C2A 6844  16.939   4.317   9.189 -0.3726 -0.2064 -0.0480
  441DPPI   C3A 6845  16.997   4.396   8.795  0.1425  0.0994 -0.2114
  441DPPI   C4A 6846  17.187   4.247   8.530 -0.0130  0.4335  0.2655
  441DPPI   C1B 6847  16.409   4.321   9.387 -0.3479 -0.0060 -0.1592
  441DPPI   C2B 6848  16.497   4.358   8.912  0.0496  0.3531 -0.5008
  441DPPI   C3B 6849  16.484   4.280   8.485  0.2089 -0.1542 -0.1496
  441DPPI   C4B 6850  16.319   4.386   8.071  0.1712  0.2498  0.0338
  442DPPI    C1 6851  13.688   2.972  10.983  0.1439 -0.0604  0.1304
  442DPPI    C2 6852  14.045   2.857  10.843  0.1393  0.0974 -0.0156
  442DPPI    C3 6853  14.020   3.050  11.193  0.1998  0.1097 -0.0180
  442DPPI   PO4 6854  13.558   3.092  10.746 -0.0692  0.4684 -0.1957
  442DPPI   GL1 6855  13.688   3.128  10.265  0.1804  0.0460  0.0705
  442DPPI   GL2 6856  13.871   2.869  10.325  0.2371 -0.0857  0.1744
  442DPPI   C1A 6857  13.687   3.122   9.839 -0.4045 -0.0987  0.0505
  442DPPI   C2A 6858  13.851   2.901   9.475 -0.3792 -0.2082 -0.0321
  442DPPI   C3A 6859  13.851   2.935   9.083  0.2470  0.2052 -0.2241
  442DPPI   C4A 6860  13.737   2.896   8.648  0.0817 -0.2921  0.0084
  442DPPI   C1B 6861  13.647   2.618  10.104 -0.0305  0.0586 -0.0990
  442DPPI   C2B 6862  13.576   2.469   9.666  0.2897 -0.1706  0.0956
  442DPPI   C3B 6863  13.631   2.404   9.309  0.0916  0.1121 -0.1301
  442DPPI   C4B 6864  13.696   2.408   8.912  0.1948 -0.0631 -0.3127
  443DPPI    C1 6865   4.557   8.658  10.275 -0.1436 -0.0225  0.1074
  443DPPI    C2 6866   4.426   8.812  10.621 -0.0751  0.0806  0.0878
  443DPPI    C3 6867   4.684   9.018  10.395 -0.1297  0.0192 -0.0315
  443DPPI   PO4 6868   4.527   8.395  10.268  0.1780 -0.1134  0.1976
  443DPPI   GL1 6869   4.615   8.200   9.918 -0.2122  0.0901 -0.1840
  443DPPI   GL2 6870   4.792   8.216   9.816  0.2410 -0.0516  0.0290
  443DPPI   C1A 6871   4.498   8.556   9.644  0.0365  0.3452  0.1394
  443DPPI   C2A 6872   4.636   8.641   9.315  0.3952 -0.3296  0.1248
  443DPPI   C3A 6873   4.886   8.457   9.026 -0.1712 -0.2905 -0.4215
  443DPPI   C4A 6874   5.058   8.286   8.768 -0.0270 -0.0155 -0.0898
  443DPPI   C1B 6875   4.899   8.206   9.453  0.1275  0.1153 -0.0780
  443DPPI   C2B 6876   4.928   7.928   9.084 -0.0441 -0.3545 -0.0310
  443DPPI   C3B 6877   4.909   7.752   8.646 -0.2803  0.0058  0.2150
  443DPPI   C4B 6878   5.152   7.756   8.294 -0.2765  0.2627  0.2007
  444DPPI    C1 6879   2.098  16.137  11.435 -0.0247 -0.2625  0.1224
  444DPPI    C2 6880   2.424  16.275  11.250 -0.2252 -0.0379 -0.0702
  444DPPI    C3 6881   2.331  16.407  11.616 -0.1138 -0.0859 -0.0239
  444DPPI   PO4 6882   2.042  15.965  11.160 -0.3737  0.0177  0.0743
  444DPPI   GL1 6883   2.321  15.937  10.682  0.3670 -0.2837  0.0121
  444DPPI   GL2 6884   2.549  16.016  10.478  0.0424 -0.2347  0.1076
  444DPPI   C1A 6885   1.991  15.870  10.516  0.0964  0.0896  0.0975
  444DPPI   C2A 6886   1.862  16.012  10.088  0.1891 -0.0987 -0.1905
  444DPPI   C3A 6887   1.754  16.116   9.706  0.1294  0.2575 -0.3125
  444DPPI   C4A 6888   1.474  16.281   9.451  0.1750  0.2002  0.1111
  444DPPI   C1B 6889   2.619  16.119  10.041  0.1080  0.1185  0.0220
  444DPPI   C2B 6890   2.668  16.131   9.621  0.1363  0.1775  0.0828
  444DPPI   C3B 6891   2.615  16.304   9.195  0.0524  0.2916 -0.3309
  444DPPI   C4B 6892   2.792  16.261   8.777  0.1571  0.2227 -0.0282
  445DPPI    C1 6893   9.230   6.792  10.021 -0.2305 -0.0459 -0.0806
  445DPPI    C2 6894   9.410   7.010  10.304 -0.0709  0.0698 -0.2684
  445DPPI    C3 6895   9.439   7.118   9.920 -0.0088 -0.2704 -0.3628
  445DPPI   PO4 6896   9.297   6.624   9.965 -0.0043  0.6121  0.0430
  445DPPI   GL1 6897   9.646   6.668   9.663 -0.0765  0.4285  0.2514
  445DPPI   GL2 6898   9.365   6.765   9.487 -0.1058 -0.1762 -0.2636
  445DPPI   C1A 6899   9.753   6.432   9.263  0.0568  0.0674  0.0207
  445DPPI   C2A 6900   9.751   6.333   8.833  0.2330 -0.2732 -0.0641
  445DPPI   C3A 6901   9.699   6.104   8.414 -0.0817  0.1353 -0.2439
  445DPPI   C4A 6902   9.951   6.132   8.001  0.1414  0.2039  0.2592
  445DPPI   C1B 6903   9.238   6.501   9.144 -0.1009  0.1621 -0.3530
  445DPPI   C2B 6904   9.222   6.418   8.808 -0.1237  0.0441 -0.1930
  445DPPI   C3B 6905   9.045   6.292   8.334 -0.3204  0.0231  0.0212
  445DPPI   C4B 6906   8.841   5.991   8.094  0.0726  0.2707  0.1567
  446DPPI    C1 6907   5.443   6.261  10.885  0.0856  0.2434 -0.0161
  446DPPI    C2 6908   5.195   6.232  10.572 -0.1072  0.2785  0.1315
  446DPPI    C3 6909   5.127   6.017  10.903  0.3495 -0.1067 -0.0124
  446DPPI   PO4 6910   5.700   6.221  10.805  0.1186 -0.2633  0.2589
  446DPPI   GL1 6911   5.878   6.156  10.407  0.0385 -0.2595  0.0017
  446DPPI   GL2 6912   5.659   6.284  10.269 -0.0396 -0.0177  0.0284
  446DPPI   C1A 6913   5.861   5.919  10.048 -0.1033  0.0045 -0.2904
  446DPPI   C2A 6914   5.916   5.840   9.654  0.1485 -0.0394 -0.0127
  446DPPI   C3A 6915   5.965   5.789   9.190 -0.2880 -0.0762  0.1596
  446DPPI   C4A 6916   6.109   5.609   8.779  0.3918  0.0645 -0.0143
  446DPPI   C1B 6917   5.576   6.303   9.785 -0.0965  0.0156 -0.1470
  446DPPI   C2B 6918   5.576   6.167   9.309  0.0196  0.1061 -0.1066
  446DPPI   C3B 6919   5.788   6.165   8.923 -0.0771  0.0317  0.0068
  446DPPI   C4B 6920   5.902   6.076   8.679 -0.1926 -0.2172 -0.1930
  447DPPI    C1 6921   0.432   4.273  10.968  0.2453 -0.0529 -0.0842
  447DPPI    C2 6922   0.510   4.072  11.304  0.0147  0.0346  0.0240
  447DPPI    C3 6923   0.586   4.464  11.284 -0.0427  0.0446  0.0007
  447DPPI   PO4 6924   0.528   4.173  10.789  0.0377 -0.1748  0.3535
  447DPPI   GL1 6925   0.370   4.371  10.401  0.4266 -0.0343 -0.1673
  447DPPI   GL2 6926   0.567   4.569  10.299 -0.3064  0.0818 -0.1570
  447DPPI   C1A 6927   0.618   4.265   9.933 -0.2059  0.2455  0.1951
  447DPPI   C2A 6928   0.671   4.145   9.548  0.3929  0.2864 -0.0733
  447DPPI   C3A 6929   0.788   4.356   9.256 -0.4127 -0.1457  0.1413
  447DPPI   C4A 6930   0.771   4.542   8.911  0.3182 -0.2728  0.1488
  447DPPI   C1B 6931   0.325   4.711  10.013 -0.2541  0.1273  0.1300
  447DPPI   C2B 6932   0.284   5.057   9.813  0.2068 -0.0417  0.1069
  447DPPI   C3B 6933   0.030   5.100   9.501  0.0016 -0.0129 -0.0526
  447DPPI   C4B 6934  -0.032   5.231   9.115  0.0901  0.0705 -0.0035
  448DPPI    C1 6935   0.595  17.670  11.010  0.0181  0.1119 -0.0579
  448DPPI    C2 6936   0.950  17.503  11.089 -0.0040  0.0224 -0.1446
  448DPPI    C3 6937   0.823  17.815  11.304  0.1547  0.0943 -0.1539
  448DPPI   PO4 6938   0.637  17.691  10.685  0.0107  0.1026  0.1708
  448DPPI   GL1 6939   0.490  17.444  10.308  0.1901  0.0149 -0.0920
  448DPPI   GL2 6940   0.305  17.707  10.252 -0.4021 -0.1062 -0.0465
  448DPPI   C1A 6941   0.403  17.486   9.838 -0.0222  0.1090  0.1161
  448DPPI   C2A 6942   0.573  17.361   9.438  0.3627  0.0372  0.2618
  448DPPI   C3A 6943   0.444  17.354   8.955  0.0973  0.4040 -0.3023
  448DPPI   C4A 6944   0.114  17.449   8.625  0.1554  0.1156 -0.0734
  448DPPI   C1B 6945   0.059  17.811   9.897 -0.0938 -0.2131 -0.1888
  448DPPI   C2B 6946   0.187  17.693   9.476  0.2212 -0.1860  0.1538
  448DPPI   C3B 6947   0.175  17.757   9.043 -0.2118 -0.1798 -0.3254
  448DPPI   C4B 6948   0.219  17.967   8.559  0.2773  0.1383  0.1208
  449DPPI    C1 6949  15.439   5.910  10.840 -0.0598 -0.2400 -0.0029
  449DPPI    C2 6950  15.400   5.951  11.236 -0.2277 -0.3025 -0.0122
  449DPPI    C3 6951  15.669   5.695  11.087  0.1836  0.0788  0.0542
  449DPPI   PO4 6952  15.419   6.094  10.735  0.2896  0.1369  0.3222
  449DPPI   GL1 6953  15.496   6.277  10.441  0.2150 -0.1724 -0.1537
  449DPPI   GL2 6954  15.322   6.551  10.383  0.0766  0.0267 -0.0092
  449DPPI   C1A 6955  15.468   6.269   9.997  0.0776 -0.2498  0.0220
  449DPPI   C2A 6956  15.536   6.409   9.581 -0.1172 -0.0964 -0.0955
  449DPPI   C3A 6957  15.522   6.360   9.104  0.0069 -0.4679 -0.1258
  449DPPI   C4A 6958  15.495   6.392   8.691 -0.0639  0.0012  0.0182
  449DPPI   C1B 6959  15.061   6.557   9.834  0.1092 -0.4714  0.2041
  449DPPI   C2B 6960  15.098   6.519   9.389  0.0395  0.2434  0.0877
  449DPPI   C3B 6961  15.082   6.585   8.936  0.0401  0.1884  0.0214
  449DPPI   C4B 6962  15.181   6.919   8.570 -0.2288  0.0244  0.3226
  450DPPI    C1 6963   9.393  14.383  11.293  0.1787  0.1012  0.0551
  450DPPI    C2 6964   9.468  14.008  11.408  0.0318  0.0329 -0.0686
  450DPPI    C3 6965   9.326  14.273  11.672 -0.0531 -0.0519 -0.0284
  450DPPI   PO4 6966   9.279  14.381  11.024  0.0176  0.2386 -0.1448
  450DPPI   GL1 6967   9.414  14.456  10.681 -0.0669  0.1472 -0.2865
  450DPPI   GL2 6968   9.377  14.176  10.561 -0.1356  0.2376  0.3530
  450DPPI   C1A 6969   9.162  14.661  10.354 -0.0524  0.0231 -0.0311
  450DPPI   C2A 6970   9.095  14.610   9.867 -0.2163  0.2427 -0.0427
  450DPPI   C3A 6971   9.167  14.456   9.448 -0.0201 -0.2134 -0.1450
  450DPPI   C4A 6972   9.311  14.396   9.095  0.2916 -0.0743 -0.0367
  450DPPI   C1B 6973   9.208  14.196  10.204 -0.1474 -0.3091  0.0116
  450DPPI   C2B 6974   9.148  14.066   9.730  0.0577 -0.3683  0.2013
  450DPPI   C3B 6975   9.011  13.942   9.339  0.0384 -0.0063  0.2673
  450DPPI   C4B 6976   8.977  14.018   8.929 -0.0280 -0.0479  0.4314
  451DPPI    C1 6977   4.836   2.206  10.550 -0.1024  0.0330 -0.2078
  451DPPI    C2 6978   4.857   2.132  10.943 -0.4001 -0.3879 -0.2636
  451DPPI    C3 6979   5.042   1.889  10.684 -0.0845 -0.0307 -0.3833
  451DPPI   PO4 6980   4.567   2.373  10.548  0.2206 -0.1307 -0.3610
  451DPPI   GL1 6981   4.235   2.479  10.306  0.2485 -0.1237 -0.0931
  451DPPI   GL2 6982   4.260   2.258  10.047 -0.0086  0.3811  0.0287
  451DPPI   C1A 6983   3.910   2.573   9.947  0.0041  0.0075 -0.0756
  451DPPI   C2A 6984   3.705   2.228   9.697  0.0680  0.1485  0.1513
  451DPPI   C3A 6985   3.739   1.951   9.393 -0.2192 -0.0010 -0.0309
  451DPPI   C4A 6986   4.060   1.750   9.066  0.2632 -0.2004 -0.0576
  451DPPI   C1B 6987   4.188   2.172   9.553  0.1646  0.3287 -0.2089
  451DPPI   C2B 6988   4.084   2.263   9.207  0.1817 -0.0033  0.1638
  451DPPI   C3B 6989   3.874   2.124   8.804 -0.1856 -0.0882 -0.3001
  451DPPI   C4B 6990   3.561   2.057   8.520  0.0463  0.1196 -0.3283
  452DPPI    C1 6991   9.130   9.983  10.159 -0.2715  0.3461  0.2105
  452DPPI    C2 6992   9.384   9.779  10.391  0.0322  0.2058 -0.2301
  452DPPI    C3 6993   8.991   9.771  10.468  0.1090  0.0263  0.1707
  452DPPI   PO4 6994   9.263  10.123  10.036  0.2672 -0.2516 -0.0200
  452DPPI   GL1 6995   9.453  10.291   9.705  0.2214 -0.1527  0.1744
  452DPPI   GL2 6996   9.448   9.967   9.590  0.3013 -0.3444 -0.0470
  452DPPI   C1A 6997   9.221  10.214   9.207  0.0454 -0.0249  0.1273
  452DPPI   C2A 6998   8.989  10.171   8.852  0.0126 -0.0490  0.2740
  452DPPI   C3A 6999   9.053   9.943   8.507  0.0350  0.1560 -0.2207
  452DPPI   C4A 7000   8.956   9.794   8.094 -0.4450 -0.2420  0.1092
  452DPPI   C1B 7001   9.587   9.908   9.159  0.0587  0.1646  0.1278
  452DPPI   C2B 7002  10.073  10.010   8.957  0.0306  0.1430 -0.0152
  452DPPI   C3B 7003  10.316   9.981   8.558  0.0649  0.2916  0.0625
  452DPPI   C4B 7004  10.350   9.940   8.062 -0.0041 -0.3266 -0.1344
  453DPPI    C1 7005  10.203  16.423  10.864  0.0779 -0.0167 -0.1650
  453DPPI    C2 7006   9.809  16.396  10.801 -0.0112  0.1579  0.2780
  453DPPI    C3 7007  10.035  16.066  10.794 -0.1747  0.0468  0.0957
  453DPPI   PO4 7008  10.264  16.583  10.624  0.1388 -0.1619 -0.1468
  453DPPI   GL1 7009  10.069  16.625  10.209 -0.2105 -0.3165  0.2290
  453DPPI   GL2 7010   9.975  16.341  10.304  0.1438  0.1627 -0.4860
  453DPPI   C1A 7011  10.023  16.607   9.767  0.2867  0.2454  0.0496
  453DPPI   C2A 7012  10.075  16.510   9.294 -0.1314 -0.0578  0.0449
  453DPPI   C3A 7013  10.039  16.477   8.926 -0.0327 -0.1426 -0.1003
  453DPPI   C4A 7014  10.142  16.422   8.546 -0.2331 -0.1218 -0.0722
  453DPPI   C1B 7015   9.680  16.267   9.963  0.0780  0.1655  0.1067
  453DPPI   C2B 7016   9.632  16.343   9.564 -0.1573 -0.0506  0.0121
  453DPPI   C3B 7017   9.712  16.111   9.211 -0.1854 -0.0236 -0.3032
  453DPPI   C4B 7018   9.926  15.942   8.878 -0.2562  0.4126 -0.0778
  454DPPI    C1 7019  11.945   1.135  10.953 -0.0459 -0.1127 -0.1494
  454DPPI    C2 7020  11.562   1.117  10.840 -0.1481 -0.2357  0.2032
  454DPPI    C3 7021  11.677   1.384  11.115  0.0489 -0.1043 -0.0030
  454DPPI   PO4 7022  12.143   1.134  10.667 -0.0218 -0.0209  0.0483
  454DPPI   GL1 7023  12.279   0.921  10.262  0.0031 -0.0182 -0.0898
  454DPPI   GL2 7024  12.224   0.626  10.181  0.3425  0.1240 -0.0483
  454DPPI   C1A 7025  12.514   0.942   9.828  0.0609 -0.0548 -0.1459
  454DPPI   C2A 7026  12.582   0.973   9.381 -0.1316 -0.1159 -0.1356
  454DPPI   C3A 7027  12.702   1.137   8.981 -0.0008  0.0020  0.0087
  454DPPI   C4A 7028  12.857   1.363   8.629  0.2984 -0.0323  0.0428
  454DPPI   C1B 7029  12.222   0.588   9.742  0.1305 -0.0049 -0.1639
  454DPPI   C2B 7030  12.339   0.540   9.276 -0.0776 -0.3349  0.0958
  454DPPI   C3B 7031  12.255   0.743   8.929 -0.1521  0.1867  0.4260
  454DPPI   C4B 7032  12.235   0.835   8.505  0.1683  0.2312 -0.1165
  455DPPI    C1 7033  17.954   3.180  10.706  0.1349 -0.0244  0.2562
  455DPPI    C2 7034  17.871   3.551  10.832 -0.0232  0.1415 -0.3096
  455DPPI    C3 7035  18.169   3.345  11.000 -0.0125  0.4749  0.0948
  455DPPI   PO4 7036  17.673   3.125  10.495  0.1122  0.0815 -0.2803
  455DPPI   GL1 7037  17.684   3.178  10.181 -0.1720  0.1750  0.1485
  455DPPI   GL2 7038  18.004   3.252  10.067 -0.1422 -0.1247 -0.0500
  455DPPI   C1A 7039  17.389   3.223   9.783 -0.3735 -0.1451  0.2553
  455DPPI   C2A 7040  17.371   3.309   9.356  0.0918  0.0672  0.0476
  455DPPI   C3A 7041  17.202   3.453   9.052 -0.1957  0.0123  0.2545
  455DPPI   C4A 7042  17.236   3.678   8.628 -0.1223  0.0137  0.0754
  455DPPI   C1B 7043  17.929   3.220   9.671 -0.0066  0.2649 -0.0370
  455DPPI   C2B 7044  18.111   3.247   9.332  0.0499 -0.3834 -0.0894
  455DPPI   C3B 7045  18.290   3.321   8.972 -0.1055  0.0009 -0.0682
  455DPPI   C4B 7046  18.356   3.607   8.655  0.0848  0.3584 -0.2566
  456DPPI    C1 7047  10.136   2.174  10.708 -0.0174  0.1497  0.0798
  456DPPI    C2 7048  10.405   1.888  10.783 -0.0476  0.0986 -0.0064
  456DPPI    C3 7049  10.171   2.024  11.077 -0.1741 -0.1099 -0.0088
  456DPPI   PO4 7050  10.065   2.135  10.476 -0.2652  0.3083 -0.0224
  456DPPI   GL1 7051   9.969   2.319  10.168 -0.2863 -0.0640 -0.3308
  456DPPI   GL2 7052  10.313   2.303  10.024  0.0448  0.4676 -0.2010
  456DPPI   C1A 7053   9.937   2.331   9.712  0.4260 -0.0921 -0.0180
  456DPPI   C2A 7054   9.543   2.295   9.397  0.0548 -0.2735 -0.0499
  456DPPI   C3A 7055   9.368   2.502   9.119 -0.0677  0.1252 -0.4113
  456DPPI   C4A 7056   9.023   2.644   8.915 -0.0890  0.0596 -0.3111
  456DPPI   C1B 7057  10.368   2.490   9.663 -0.5085 -0.2082  0.0985
  456DPPI   C2B 7058  10.302   2.520   9.290 -0.1588  0.3310 -0.0434
  456DPPI   C3B 7059  10.078   2.317   8.978  0.0735 -0.1922  0.3277
  456DPPI   C4B 7060  10.039   2.047   8.676  0.3003 -0.3409  0.1916
  457DPPI    C1 7061   9.492   4.696  10.538  0.0475  0.0835  0.0925
  457DPPI    C2 7062   9.783   4.876  10.745  0.1991  0.0795 -0.1133
  457DPPI    C3 7063   9.516   5.095  10.544  0.1098  0.0814  0.0062
  457DPPI   PO4 7064   9.680   4.407  10.365  0.3093 -0.0238  0.0367
  457DPPI   GL1 7065  10.001   4.423  10.106  0.1688 -0.0525 -0.4068
  457DPPI   GL2 7066  10.108   4.554   9.870 -0.1631 -0.1216 -0.1456
  457DPPI   C1A 7067   9.806   4.234   9.751 -0.1920  0.0193 -0.1213
  457DPPI   C2A 7068   9.756   4.069   9.345 -0.2551  0.0090  0.4294
  457DPPI   C3A 7069   9.854   3.872   8.939 -0.1788  0.0287  0.0510
  457DPPI   C4A 7070   9.769   3.631   8.614 -0.4819 -0.1480 -0.0497
  457DPPI   C1B 7071  10.391   4.796   9.626  0.0352 -0.0514  0.2148
  457DPPI   C2B 7072  10.497   4.770   9.228 -0.0207 -0.0939  0.2267
  457DPPI   C3B 7073  10.667   4.533   8.961  0.2228 -0.1581 -0.0732
  457DPPI   C4B 7074  11.013   4.490   8.713 -0.0224  0.1784 -0.0305
  458DPPI    C1 7075   9.771   7.506  10.106  0.3217 -0.1671 -0.0789
  458DPPI    C2 7076   9.716   7.637  10.480  0.0579 -0.2559 -0.0842
  458DPPI    C3 7077   9.400   7.545  10.253  0.2097 -0.0413 -0.3881
  458DPPI   PO4 7078   9.962   7.258  10.067 -0.2687 -0.0703 -0.1003
  458DPPI   GL1 7079   9.983   7.078   9.642 -0.4060  0.2117 -0.2358
  458DPPI   GL2 7080  10.290   7.082   9.600 -0.3438  0.0098 -0.1109
  458DPPI   C1A 7081   9.769   7.142   9.283  0.0658  0.0916  0.0250
  458DPPI   C2A 7082   9.616   6.866   9.059  0.2312  0.0485 -0.1853
  458DPPI   C3A 7083   9.622   6.860   8.730  0.1034  0.1541  0.2120
  458DPPI   C4A 7084   9.395   7.002   8.400 -0.0755  0.0157  0.1342
  458DPPI   C1B 7085  10.157   6.756   9.247 -0.2332 -0.0381 -0.3502
  458DPPI   C2B 7086  10.153   6.820   8.792 -0.2034  0.2070  0.0310
  458DPPI   C3B 7087  10.166   6.931   8.363 -0.0397  0.2905 -0.0709
  458DPPI   C4B 7088  10.060   7.372   8.024  0.0959 -0.2157  0.0271
  459DPPI    C1 7089   7.980  17.616  11.004 -0.1581 -0.2530 -0.0839
  459DPPI    C2 7090   7.786  17.270  11.055  0.0257 -0.3014  0.3287
  459DPPI    C3 7091   8.018  17.413  11.347  0.2791 -0.0337  0.0035
  459DPPI   PO4 7092   7.916  17.658  10.697 -0.1536 -0.1075 -0.0658
  459DPPI   GL1 7093   8.000  17.357  10.336  0.0747 -0.0276 -0.1204
  459DPPI   GL2 7094   8.113  17.156  10.167  0.1799 -0.1461  0.0836
  459DPPI   C1A 7095   7.717  17.229   9.947  0.0796 -0.0825  0.1138
  459DPPI   C2A 7096   7.802  17.093   9.573 -0.2473  0.1400  0.0071
  459DPPI   C3A 7097   7.810  16.963   9.240 -0.0937 -0.2668 -0.1394
  459DPPI   C4A 7098   7.726  17.083   8.805  0.0045  0.0801  0.4358
  459DPPI   C1B 7099   8.252  16.777   9.862 -0.3133  0.1557  0.0135
  459DPPI   C2B 7100   8.325  16.832   9.426  0.0952 -0.0541 -0.1146
  459DPPI   C3B 7101   8.229  16.934   8.930 -0.1479 -0.0187 -0.2004
  459DPPI   C4B 7102   8.189  17.237   8.541 -0.1289 -0.1334  0.0414
  460DPPI    C1 7103  16.674   7.599  10.806  0.1199  0.1287 -0.1455
  460DPPI    C2 7104  16.483   7.941  10.886 -0.1013 -0.0333  0.0342
  460DPPI    C3 7105  16.663   7.739  11.181  0.1286 -0.0141 -0.0910
  460DPPI   PO4 7106  16.903   7.765  10.558 -0.0797 -0.2347 -0.0898
  460DPPI   GL1 7107  17.133   7.686  10.165  0.0066  0.1442 -0.0259
  460DPPI   GL2 7108  17.451   7.496  10.278  0.1692  0.0401 -0.0038
  460DPPI   C1A 7109  17.046   7.679   9.724  0.1722 -0.0343 -0.1278
  460DPPI   C2A 7110  16.809   7.740   9.353  0.0247  0.1733 -0.1840
  460DPPI   C3A 7111  16.756   7.743   8.925  0.2468  0.0495 -0.3418
  460DPPI   C4A 7112  17.006   7.683   8.481 -0.0262 -0.1752  0.3699
  460DPPI   C1B 7113  17.623   7.778  10.047  0.4004  0.3870  0.0487
  460DPPI   C2B 7114  17.528   7.987   9.752 -0.3320  0.2076 -0.1108
  460DPPI   C3B 7115  17.359   7.820   9.306 -0.1308 -0.2385  0.0985
  460DPPI   C4B 7116  17.332   7.828   8.833  0.2141 -0.0860 -0.2628
  461DPPI    C1 7117   9.595  15.802  10.951  0.3116 -0.0870 -0.1150
  461DPPI    C2 7118   9.629  15.723  11.342  0.0792  0.0117 -0.0729
  461DPPI    C3 7119   9.655  16.100  11.211  0.1290 -0.0183 -0.1498
  461DPPI   PO4 7120   9.399  15.735  10.869  0.0089  0.3284 -0.0289
  461DPPI   GL1 7121   9.278  15.527  10.524  0.2014 -0.0229  0.0400
  461DPPI   GL2 7122   9.043  15.608  10.519 -0.0685  0.0210 -0.0799
  461DPPI   C1A 7123   9.504  15.679  10.066  0.2522  0.1501 -0.0027
  461DPPI   C2A 7124   9.604  15.835   9.589 -0.0770 -0.3518  0.1930
  461DPPI   C3A 7125   9.606  15.598   9.197 -0.0341  0.0550  0.1989
  461DPPI   C4A 7126   9.234  15.433   8.935  0.3173  0.0919  0.1993
  461DPPI   C1B 7127   8.981  15.575  10.103  0.0392 -0.1258  0.2326
  461DPPI   C2B 7128   9.086  15.467   9.717  0.0918 -0.0627 -0.0697
  461DPPI   C3B 7129   9.126  15.252   9.385 -0.1131  0.1587  0.0609
  461DPPI   C4B 7130   8.834  15.237   9.139 -0.1946  0.1135 -0.0046
  462DPPI    C1 7131   9.990  12.341  10.831 -0.1400 -0.0135  0.1349
  462DPPI    C2 7132  10.350  12.508  10.786  0.0166 -0.3970 -0.0834
  462DPPI    C3 7133  10.058  12.710  10.970  0.2519  0.0355 -0.1704
  462DPPI   PO4 7134  10.011  12.184  10.534 -0.2470 -0.1005 -0.2094
  462DPPI   GL1 7135   9.984  12.130  10.114  0.2861 -0.1371  0.2726
  462DPPI   GL2 7136   9.728  11.894  10.160  0.1815 -0.1047  0.1870
  462DPPI   C1A 7137   9.893  11.917   9.700  0.1730  0.0411  0.1506
  462DPPI   C2A 7138   9.889  11.726   9.281  0.0423 -0.2410  0.1045
  462DPPI   C3A 7139   9.929  11.510   8.845  0.3523 -0.0268 -0.2579
  462DPPI   C4A 7140   9.903  11.197   8.625  0.2683 -0.1087 -0.0680
  462DPPI   C1B 7141   9.424  11.849   9.819  0.0538  0.3439  0.0061
  462DPPI   C2B 7142   9.398  11.828   9.434 -0.0458 -0.1294 -0.0802
  462DPPI   C3B 7143   9.363  11.806   8.997 -0.2340  0.0616 -0.0404
  462DPPI   C4B 7144   9.289  11.577   8.674  0.0250  0.1020 -0.0901
  463DPPI    C1 7145   5.688   9.459  10.856  0.0844 -0.1670  0.0405
  463DPPI    C2 7146   5.952   9.598  11.122 -0.1310  0.1591  0.0907
  463DPPI    C3 7147   5.751   9.260  11.196  0.2125 -0.0506  0.0858
  463DPPI   PO4 7148   5.493   9.627  10.809  0.3029 -0.0236 -0.0723
  463DPPI   GL1 7149   5.169   9.855  10.535  0.4414  0.1586 -0.4090
  463DPPI   GL2 7150   5.410   9.788  10.328  0.0319  0.0596  0.1756
  463DPPI   C1A 7151   5.015  10.145  10.232 -0.1109 -0.5600  0.3734
  463DPPI   C2A 7152   5.007  10.171   9.673  0.1083 -0.1847 -0.0095
  463DPPI   C3A 7153   4.964  10.211   9.272 -0.1598  0.4448 -0.0736
  463DPPI   C4A 7154   5.019  10.165   8.870 -0.3298 -0.1475 -0.0198
  463DPPI   C1B 7155   5.319   9.842   9.850  0.0591 -0.1179  0.0450
  463DPPI   C2B 7156   5.312   9.816   9.417  0.3057 -0.2092  0.0088
  463DPPI   C3B 7157   5.334   9.770   8.919  0.3667  0.1129 -0.2170
  463DPPI   C4B 7158   5.494   9.785   8.457 -0.1384  0.0379 -0.0270
  464DPPI    C1 7159  14.629  17.840  10.835  0.2568 -0.0463 -0.1203
  464DPPI    C2 7160  14.657  17.969  11.213  0.2949 -0.0936 -0.1068
  464DPPI    C3 7161  14.628  18.233  10.913 -0.4066 -0.0558 -0.0220
  464DPPI   PO4 7162  14.875  17.786  10.668 -0.3468  0.1475  0.1759
  464DPPI   GL1 7163  14.898  17.523  10.248  0.3061  0.0533  0.2431
  464DPPI   GL2 7164  14.823  17.902  10.073 -0.3381  0.1260 -0.0581
  464DPPI   C1A 7165  14.956  17.350   9.793  0.3133  0.0272  0.1380
  464DPPI   C2A 7166  14.983  17.454   9.341 -0.0574 -0.3850  0.0686
  464DPPI   C3A 7167  14.996  17.418   8.856  0.0039 -0.2493  0.1546
  464DPPI   C4A 7168  14.951  17.350   8.410  0.0414 -0.0851 -0.0027
  464DPPI   C1B 7169  14.851  17.889   9.671  0.2040  0.0087  0.3084
  464DPPI   C2B 7170  14.744  17.870   9.318 -0.0024 -0.0686  0.1109
  464DPPI   C3B 7171  14.696  17.866   8.939  0.0119 -0.0146  0.0482
  464DPPI   C4B 7172  14.617  17.711   8.563 -0.2831  0.1477 -0.0736
  465DPPI    C1 7173   5.677  13.323  10.801 -0.0432 -0.2230  0.0202
  465DPPI    C2 7174   5.770  13.712  10.777 -0.2552 -0.1800 -0.1353
  465DPPI    C3 7175   6.056  13.442  10.848 -0.1493  0.0293  0.2654
  465DPPI   PO4 7176   5.587  13.263  10.591  0.2641  0.0950  0.3628
  465DPPI   GL1 7177   5.382  13.042  10.214  0.2103  0.0295 -0.1109
  465DPPI   GL2 7178   5.701  13.118  10.139  0.0172 -0.0966  0.1345
  465DPPI   C1A 7179   5.369  12.831   9.726 -0.2643 -0.0138  0.0903
  465DPPI   C2A 7180   5.495  12.771   9.235 -0.1774 -0.0653 -0.1407
  465DPPI   C3A 7181   5.721  12.757   8.841 -0.1755  0.0074  0.0479
  465DPPI   C4A 7182   5.738  12.644   8.401  0.5204 -0.2641 -0.0550
  465DPPI   C1B 7183   5.727  13.229   9.659 -0.1216 -0.3267 -0.0174
  465DPPI   C2B 7184   5.760  13.223   9.169 -0.1991 -0.0895  0.0500
  465DPPI   C3B 7185   5.820  13.269   8.687 -0.0002  0.1232  0.3515
  465DPPI   C4B 7186   6.103  13.134   8.416  0.0077 -0.0453 -0.1092
  466DPPI    C1 7187   2.901   9.081  10.578  0.0788 -0.1010  0.0270
  466DPPI    C2 7188   2.646   9.247  10.318  0.0913  0.1094  0.1460
  466DPPI    C3 7189   2.527   8.942  10.548  0.0889 -0.0971 -0.1233
  466DPPI   PO4 7190   3.186   8.993  10.314  0.0874  0.0518  0.3965
  466DPPI   GL1 7191   3.258   8.952   9.934 -0.2145 -0.0611  0.1341
  466DPPI   GL2 7192   3.157   9.236   9.820 -0.0077 -0.0381 -0.1075
  466DPPI   C1A 7193   3.083   8.757   9.572 -0.2122  0.0783  0.2566
  466DPPI   C2A 7194   3.121   8.791   9.084 -0.1625  0.3381 -0.0852
  466DPPI   C3A 7195   3.165   8.976   8.710 -0.0693 -0.0704  0.0150
  466DPPI   C4A 7196   3.472   9.149   8.503 -0.2276  0.1137 -0.2701
  466DPPI   C1B 7197   3.315   9.175   9.412 -0.2406  0.0983 -0.1698
  466DPPI   C2B 7198   3.437   9.214   9.029 -0.0138 -0.1080  0.2391
  466DPPI   C3B 7199   3.823   9.211   8.847  0.0723  0.0708  0.1575
  466DPPI   C4B 7200   3.944   8.941   8.561  0.1468 -0.1126  0.0228
  467DPPI    C1 7201  16.088  14.436  10.497  0.1980 -0.1950 -0.1936
  467DPPI    C2 7202  15.955  14.781  10.345  0.0874 -0.1454  0.0113
  467DPPI    C3 7203  16.348  14.711  10.369  0.1078 -0.1001 -0.1745
  467DPPI   PO4 7204  15.834  14.277  10.328  0.1343 -0.0128 -0.1988
  467DPPI   GL1 7205  15.697  14.369   9.866  0.1254  0.1919 -0.2011
  467DPPI   GL2 7206  15.859  14.637   9.710 -0.0758 -0.1410 -0.0326
  467DPPI   C1A 7207  15.632  14.217   9.420  0.1034 -0.1602 -0.0565
  467DPPI   C2A 7208  15.573  14.140   9.064 -0.1766  0.2107  0.5473
  467DPPI   C3A 7209  15.216  14.171   8.852 -0.1106  0.1045  0.1960
  467DPPI   C4A 7210  14.874  14.160   8.683  0.2716 -0.0851 -0.0596
  467DPPI   C1B 7211  15.810  14.696   9.308  0.0881  0.1503  0.0600
  467DPPI   C2B 7212  15.836  14.547   9.022 -0.1215 -0.1709  0.3658
  467DPPI   C3B 7213  15.891  14.323   8.646 -0.1442  0.2470  0.2122
  467DPPI   C4B 7214  15.619  14.291   8.324  0.0073  0.2901  0.1051
  468DPPI    C1 7215  13.935  12.235  10.997  0.0311  0.0934  0.0172
  468DPPI    C2 7216  13.552  12.312  11.080 -0.0398 -0.0676 -0.1524
  468DPPI    C3 7217  13.823  12.309  11.374 -0.2047 -0.1628  0.0009
  468DPPI   PO4 7218  14.000  12.307  10.761 -0.0733 -0.0330 -0.1632
  468DPPI   GL1 7219  14.082  12.163  10.355  0.1793  0.0102 -0.1266
  468DPPI   GL2 7220  13.947  11.740  10.217 -0.2149 -0.2195 -0.0818
  468DPPI   C1A 7221  14.197  12.397   9.965  0.0730  0.2198  0.1916
  468DPPI   C2A 7222  14.255  12.551   9.530  0.1270  0.0199 -0.2508
  468DPPI   C3A 7223  14.340  12.327   9.130  0.2282  0.1400  0.2409
  468DPPI   C4A 7224  14.459  12.377   8.653  0.1779 -0.0228  0.0158
  468DPPI   C1B 7225  13.955  11.640   9.736  0.0892  0.1696  0.3358
  468DPPI   C2B 7226  14.091  11.508   9.292  0.3331  0.0161 -0.0833
  468DPPI   C3B 7227  14.417  11.712   9.014  0.4746  0.0392  0.0724
  468DPPI   C4B 7228  14.609  11.946   8.773 -0.1523  0.3914  0.0309
  469DPPI    C1 7229  11.663  13.478  10.746 -0.1322  0.1228 -0.0391
  469DPPI    C2 7230  11.534  13.144  10.924  0.2767 -0.1286 -0.2001
  469DPPI    C3 7231  11.908  13.273  10.987  0.1325  0.2857 -0.1637
  469DPPI   PO4 7232  11.469  13.654  10.877 -0.0422 -0.2854  0.0596
  469DPPI   GL1 7233  11.321  13.833  10.479 -0.4184  0.2861 -0.1201
  469DPPI   GL2 7234  11.638  13.840  10.377 -0.3114  0.0357  0.4327
  469DPPI   C1A 7235  11.022  13.549   9.993  0.1727 -0.0919 -0.2387
  469DPPI   C2A 7236  10.855  13.657   9.624 -0.1306  0.1706  0.1965
  469DPPI   C3A 7237  10.727  13.611   9.316  0.0919 -0.1932  0.1295
  469DPPI   C4A 7238  10.973  13.429   8.911 -0.1589  0.0506 -0.1042
  469DPPI   C1B 7239  11.638  13.684   9.920 -0.2651  0.0944 -0.0973
  469DPPI   C2B 7240  11.566  13.725   9.530  0.2563 -0.2222  0.2226
  469DPPI   C3B 7241  11.369  13.832   9.137  0.3584  0.0358 -0.1427
  469DPPI   C4B 7242  11.147  13.928   8.705  0.0820  0.1086  0.1266
  470DPPI    C1 7243  13.127   8.282  10.491  0.0706  0.0428  0.1298
  470DPPI    C2 7244  13.425   8.101  10.687  0.0496 -0.0109  0.1121
  470DPPI    C3 7245  13.441   8.138  10.289 -0.1022 -0.2711  0.0796
  470DPPI   PO4 7246  12.857   8.114  10.493 -0.1753 -0.4374  0.0977
  470DPPI   GL1 7247  12.752   8.061  10.034  0.0860 -0.0738 -0.4245
  470DPPI   GL2 7248  12.395   8.114   9.952 -0.1454  0.1003 -0.4141
  470DPPI   C1A 7249  12.832   8.167   9.622 -0.2389 -0.1570 -0.2544
  470DPPI   C2A 7250  12.758   8.152   9.206  0.1124 -0.2022  0.1128
  470DPPI   C3A 7251  12.950   8.327   8.900  0.0536  0.2858  0.3805
  470DPPI   C4A 7252  13.233   8.279   8.597 -0.3339 -0.1131 -0.1610
  470DPPI   C1B 7253  12.314   8.103   9.469 -0.0322  0.2133  0.0809
  470DPPI   C2B 7254  12.283   8.133   9.104  0.0165  0.0206 -0.0616
  470DPPI   C3B 7255  12.503   8.010   8.799 -0.1393 -0.1041 -0.3194
  470DPPI   C4B 7256  12.663   8.082   8.440 -0.1031 -0.2059 -0.1947
  471DPPI    C1 7257   9.058  16.662  11.156  0.1116 -0.0478 -0.2820
  471DPPI    C2 7258   9.413  16.506  11.256  0.1062  0.2863  0.2991
  471DPPI    C3 7259   9.125  16.543  11.532 -0.2515  0.3704 -0.0759
  471DPPI   PO4 7260   8.968  16.490  11.004 -0.1015 -0.0515 -0.1360
  471DPPI   GL1 7261   8.969  16.439  10.508 -0.3407  0.0159  0.1001
  471DPPI   GL2 7262   9.055  16.788  10.313 -0.1449 -0.0794  0.1379
  471DPPI   C1A 7263   9.165  16.119  10.114 -0.2397 -0.0879 -0.1117
  471DPPI   C2A 7264   9.104  16.011   9.791 -0.0464  0.0687  0.2725
  471DPPI   C3A 7265   9.208  16.156   9.263  0.4257 -0.0870 -0.3292
  471DPPI   C4A 7266   9.043  16.359   8.930 -0.2622 -0.3654  0.2274
  471DPPI   C1B 7267   8.807  16.535  10.042 -0.2891 -0.0502 -0.1166
  471DPPI   C2B 7268   8.583  16.338   9.721 -0.2737  0.0974  0.1409
  471DPPI   C3B 7269   8.740  16.058   9.483 -0.1443 -0.0803 -0.1448
  471DPPI   C4B 7270   8.886  15.733   9.251 -0.3065 -0.2432  0.1006
  472DPPI    C1 7271   1.194   0.388  11.053 -0.0045 -0.1087  0.0846
  472DPPI    C2 7272   1.301   0.007  11.109  0.1006 -0.0725  0.1329
  472DPPI    C3 7273   1.130   0.212  11.406  0.0310 -0.0860  0.1023
  472DPPI   PO4 7274   1.316   0.288  10.675  0.0605  0.0403 -0.1174
  472DPPI   GL1 7275   1.561   0.354  10.241 -0.0093  0.3360  0.0422
  472DPPI   GL2 7276   1.580   0.104  10.080  0.0849  0.2210  0.1084
  472DPPI   C1A 7277   1.707   0.671   9.980 -0.0300 -0.1706 -0.0390
  472DPPI   C2A 7278   1.471   0.798   9.498  0.0540  0.1064  0.0323
  472DPPI   C3A 7279   1.056   0.938   9.257  0.0697  0.1304  0.1439
  472DPPI   C4A 7280   0.888   1.032   8.849  0.0157  0.4528 -0.0441
  472DPPI   C1B 7281   1.702   0.161   9.661  0.1184 -0.2141  0.2560
  472DPPI   C2B 7282   1.676   0.328   9.185 -0.1053 -0.1572 -0.0010
  472DPPI   C3B 7283   1.453   0.214   8.794 -0.1760  0.2303 -0.2759
  472DPPI   C4B 7284   1.105   0.240   8.534 -0.1710 -0.2398  0.2850
  473PYPI    C1 7285  11.758   7.370   9.942 -0.0649  0.2191 -0.2524
  473PYPI    C2 7286  11.891   7.238  10.296 -0.1890  0.0632 -0.2625
  473PYPI    C3 7287  11.707   7.593  10.270 -0.2669  0.0314 -0.1534
  473PYPI   PO4 7288  11.642   7.071   9.788  0.1226  0.0488 -0.0497
  473PYPI   GL1 7289  11.671   6.984   9.315 -0.0446  0.5145  0.0620
  473PYPI   GL2 7290  12.022   7.176   9.284 -0.0270 -0.0921  0.3449
  473PYPI   C1A 7291  11.536   6.868   8.872 -0.0544 -0.2943  0.2612
  473PYPI   C2A 7292  11.442   7.006   8.408  0.0289 -0.1455  0.2756
  473PYPI   D3A 7293  11.250   6.793   8.060  0.0232 -0.0581  0.1118
  473PYPI   C4A 7294  11.297   6.922   7.696  0.0349  0.1219  0.2683
  473PYPI   C1B 7295  12.013   7.131   8.774 -0.1750  0.1501  0.2922
  473PYPI   C2B 7296  11.916   7.061   8.297  0.1648  0.0781  0.1717
  473PYPI   C3B 7297  11.676   7.139   7.917 -0.1297  0.0233 -0.1482
  473PYPI   C4B 7298  11.878   7.306   7.563  0.1158 -0.0512  0.1015
  474PYPI    C1 7299  10.866  10.425  10.641  0.0514 -0.0206  0.2344
  474PYPI    C2 7300  10.628  10.219  10.888 -0.1891  0.1515  0.1497
  474PYPI    C3 7301  10.763  10.581  10.995  0.2023 -0.0283  0.2826
  474PYPI   PO4 7302  10.773  10.401  10.392  0.1458  0.0784  0.0025
  474PYPI   GL1 7303  10.946  10.365   9.973  0.1285  0.1194  0.0194
  474PYPI   GL2 7304  10.726  10.206   9.956  0.0914 -0.1139 -0.1060
  474PYPI   C1A 7305  11.171  10.132   9.599 -0.1108  0.0476 -0.0201
  474PYPI   C2A 7306  11.079   9.896   9.247 -0.1047  0.2184 -0.0365
  474PYPI   D3A 7307  11.012   9.516   9.190 -0.1265  0.0171  0.0618
  474PYPI   C4A 7308  11.382   9.339   8.909  0.4239 -0.0263  0.2049
  474PYPI   C1B 7309  10.299  10.158   9.784  0.0317  0.0934  0.0078
  474PYPI   C2B 7310   9.978  10.077   9.426 -0.0391 -0.1207 -0.0516
  474PYPI   C3B 7311   9.708  10.366   9.251  0.0997 -0.2506  0.2072
  474PYPI   C4B 7312   9.568  10.378   8.869 -0.0283  0.2019 -0.1213
  475PYPI    C1 7313  13.480  17.265  10.556  0.1495 -0.1987 -0.2147
  475PYPI    C2 7314  13.383  17.040  10.872  0.2025  0.1031  0.0212
  475PYPI    C3 7315  13.478  16.867  10.525  0.1962 -0.2343  0.1842
  475PYPI   PO4 7316  13.677  17.501  10.520  0.3848 -0.0354 -0.2489
  475PYPI   GL1 7317  13.910  17.623  10.275 -0.1965 -0.3128 -0.3742
  475PYPI   GL2 7318  13.811  17.871  10.101 -0.3136  0.2305 -0.0694
  475PYPI   C1A 7319  13.910  17.472   9.762 -0.2285  0.0704 -0.0240
  475PYPI   C2A 7320  13.886  17.567   9.389 -0.1164  0.3587 -0.2658
  475PYPI   D3A 7321  13.879  17.402   8.974 -0.1211  0.4148 -0.0987
  475PYPI   C4A 7322  13.941  16.932   8.857 -0.0018  0.0064  0.1794
  475PYPI   C1B 7323  13.681  17.941   9.677 -0.4771  0.1233 -0.2384
  475PYPI   C2B 7324  13.589  18.031   9.242 -0.1574  0.1842  0.0386
  475PYPI   C3B 7325  13.782  18.017   8.857  0.3142 -0.0773 -0.0524
  475PYPI   C4B 7326  13.513  18.098   8.591  0.0286  0.0713  0.0519
  476PYPI    C1 7327  11.322  16.782  10.760  0.0330 -0.0676 -0.0652
  476PYPI    C2 7328  11.314  17.167  10.867 -0.0006 -0.0434 -0.1540
  476PYPI    C3 7329  11.345  16.882  11.146  0.0566  0.0248 -0.0905
  476PYPI   PO4 7330  11.358  16.812  10.444  0.0348 -0.2316 -0.3046
  476PYPI   GL1 7331  11.390  16.724  10.051  0.2931 -0.3180 -0.3331
  476PYPI   GL2 7332  11.676  16.567  10.166  0.3936 -0.3853 -0.0452
  476PYPI   C1A 7333  11.272  16.552   9.699 -0.0479  0.1134  0.0441
  476PYPI   C2A 7334  11.074  16.391   9.362  0.0730  0.0037 -0.2690
  476PYPI   D3A 7335  10.996  16.468   8.940  0.0060  0.2227 -0.1364
  476PYPI   C4A 7336  11.182  16.168   8.763  0.1291 -0.0050  0.1801
  476PYPI   C1B 7337  11.860  16.524   9.707  0.2147 -0.0515 -0.3530
  476PYPI   C2B 7338  11.855  16.636   9.352  0.2497 -0.1105  0.0428
  476PYPI   C3B 7339  12.212  16.649   9.086 -0.1157  0.1447 -0.2238
  476PYPI   C4B 7340  12.357  16.619   8.644  0.1307  0.0592  0.0962
  477PYPI    C1 7341   3.554  11.312  10.510 -0.2626 -0.1329 -0.0170
  477PYPI    C2 7342   3.337  11.618  10.649  0.0168  0.1382 -0.1645
  477PYPI    C3 7343   3.702  11.548  10.798 -0.1390 -0.2768  0.0392
  477PYPI   PO4 7344   3.535  11.375  10.232  0.2090  0.0015  0.0039
  477PYPI   GL1 7345   3.758  11.384   9.911  0.0370  0.0553  0.0381
  477PYPI   GL2 7346   3.966  11.495  10.001 -0.2076 -0.1214  0.4509
  477PYPI   C1A 7347   3.685  11.273   9.495  0.0055 -0.1869 -0.2096
  477PYPI   C2A 7348   3.730  11.172   9.092 -0.0288  0.0663 -0.1192
  477PYPI   D3A 7349   3.912  11.243   8.714  0.3975 -0.0229 -0.2809
  477PYPI   C4A 7350   4.061  11.393   8.294 -0.1403  0.0378 -0.0960
  477PYPI   C1B 7351   4.152  11.443   9.578 -0.2463  0.2060 -0.1183
  477PYPI   C2B 7352   4.340  11.375   9.133  0.2085  0.0698  0.2798
  477PYPI   C3B 7353   4.365  11.353   8.706 -0.0175  0.0963  0.1341
  477PYPI   C4B 7354   4.503  11.549   8.384  0.1669 -0.2706  0.1865
  478PYPI    C1 7355  12.812  17.178  10.712  0.1015  0.1331  0.2239
  478PYPI    C2 7356  12.906  16.903  10.987  0.2211 -0.0482  0.0053
  478PYPI    C3 7357  12.629  17.181  11.068 -0.0778 -0.3781  0.1441
  478PYPI   PO4 7358  12.951  17.125  10.560  0.0099  0.1476 -0.0671
  478PYPI   GL1 7359  13.010  16.853  10.259  0.1338 -0.0023 -0.0788
  478PYPI   GL2 7360  13.175  17.079  10.028  0.3270 -0.1955  0.0207
  478PYPI   C1A 7361  12.690  16.926   9.892 -0.0220  0.0064  0.1736
  478PYPI   C2A 7362  12.659  16.940   9.474 -0.0982 -0.2073  0.2972
  478PYPI   D3A 7363  12.551  17.098   9.063  0.2001 -0.1336 -0.2773
  478PYPI   C4A 7364  12.510  17.513   8.954  0.2361  0.1562  0.1033
  478PYPI   C1B 7365  13.187  17.042   9.590  0.0198  0.0263  0.1069
  478PYPI   C2B 7366  13.093  16.858   9.203  0.0081  0.0659  0.3405
  478PYPI   C3B 7367  12.974  16.903   8.779  0.0899 -0.2609  0.2056
  478PYPI   C4B 7368  12.758  16.953   8.461  0.2646 -0.2101  0.1892
  479PYPI    C1 7369   9.211  17.068  10.669 -0.3150 -0.0989  0.1223
  479PYPI    C2 7370   9.465  17.060  10.978 -0.0576  0.1202 -0.0784
  479PYPI    C3 7371   9.385  16.724  10.777 -0.0777  0.0136  0.1057
  479PYPI   PO4 7372   9.138  17.298  10.494 -0.0037  0.1950 -0.2621
  479PYPI   GL1 7373   9.063  17.341  10.144  0.3677  0.4004  0.5400
  479PYPI   GL2 7374   9.294  17.284   9.978  0.0232  0.3887  0.1955
  479PYPI   C1A 7375   8.883  17.541   9.817  0.0414  0.0638 -0.1551
  479PYPI   C2A 7376   8.855  17.498   9.465  0.0447 -0.0886  0.0233
  479PYPI   D3A 7377   9.063  17.433   9.102 -0.2525 -0.0161  0.0813
  479PYPI   C4A 7378   9.016  17.771   8.719 -0.1020  0.3081 -0.1239
  479PYPI   C1B 7379   9.248  17.151   9.467 -0.3151 -0.2424 -0.1220
  479PYPI   C2B 7380   9.138  16.927   9.115 -0.0469  0.3772  0.2242
  479PYPI   C3B 7381   8.738  16.762   8.872  0.0019  0.1126 -0.0577
  479PYPI   C4B 7382   8.596  16.910   8.506  0.0939 -0.2653  0.0540
  480PYPI    C1 7383   4.807   0.323  10.998 -0.0237 -0.0149 -0.2118
  480PYPI    C2 7384   5.173   0.163  11.023  0.0322  0.1733  0.2812
  480PYPI    C3 7385   5.127   0.561  11.032 -0.1742  0.1572  0.0401
  480PYPI   PO4 7386   4.692   0.128  10.804  0.3024  0.0478  0.0338
  480PYPI   GL1 7387   4.830   0.101  10.421  0.2194 -0.1957  0.1459
  480PYPI   GL2 7388   5.017   0.402  10.571  0.0275  0.1532  0.3116
  480PYPI   C1A 7389   4.654   0.174  10.013 -0.0343  0.1286 -0.4127
  480PYPI   C2A 7390   4.681   0.195   9.513 -0.4082  0.4112 -0.2224
  480PYPI   D3A 7391   4.822   0.049   9.231 -0.2459  0.1965  0.0906
  480PYPI   C4A 7392   4.421   0.164   8.957 -0.1786 -0.1099 -0.2687
  480PYPI   C1B 7393   5.165   0.623  10.120  0.1258  0.0538 -0.0310
  480PYPI   C2B 7394   4.932   0.571   9.820  0.0225 -0.1353 -0.1004
  480PYPI   C3B 7395   4.757   0.782   9.492 -0.2122  0.0256 -0.2333
  480PYPI   C4B 7396   4.893   1.002   9.206  0.0283 -0.0824  0.1667
  481PYPI    C1 7397  10.862   6.547  10.144 -0.1837 -0.1124 -0.0916
  481PYPI    C2 7398  10.635   6.711  10.428 -0.0531 -0.1363  0.0275
  481PYPI    C3 7399  10.784   6.344  10.479 -0.0278 -0.1400 -0.0714
  481PYPI   PO4 7400  11.142   6.739  10.039  0.0160  0.1751 -0.0815
  481PYPI   GL1 7401  11.401   6.664   9.769  0.1640 -0.0325  0.1798
  481PYPI   GL2 7402  11.609   6.453   9.578  0.0505 -0.1186  0.1008
  481PYPI   C1A 7403  11.225   6.682   9.376 -0.1112  0.1481 -0.1196
  481PYPI   C2A 7404  11.052   6.695   8.929  0.0612 -0.0523  0.0196
  481PYPI   D3A 7405  11.053   6.604   8.496  0.2083 -0.0009  0.3139
  481PYPI   C4A 7406  11.036   6.359   8.265 -0.0525  0.0278  0.3802
  481PYPI   C1B 7407  11.684   6.326   9.171 -0.1369  0.1927  0.3054
  481PYPI   C2B 7408  11.503   6.356   8.779  0.1521 -0.1746 -0.4689
  481PYPI   C3B 7409  11.505   6.457   8.346 -0.0100 -0.1891  0.2281
  481PYPI   C4B 7410  11.823   6.186   8.095 -0.0206 -0.0515  0.0074
  482PYPI    C1 7411   2.561   7.787  10.448 -0.0502 -0.0073  0.0609
  482PYPI    C2 7412   2.555   7.392  10.387 -0.3875 -0.0130  0.1126
  482PYPI    C3 7413   2.846   7.556  10.607 -0.0862 -0.1941 -0.1412
  482PYPI   PO4 7414   2.665   8.008  10.380  0.1203 -0.0683  0.0656
  482PYPI   GL1 7415   2.656   8.234  10.007 -0.1317  0.0371 -0.1448
  482PYPI   GL2 7416   2.878   8.314   9.983 -0.0497 -0.0535  0.3574
  482PYPI   C1A 7417   2.512   8.144   9.644 -0.0218 -0.1981 -0.0660
  482PYPI   C2A 7418   2.426   8.173   9.235 -0.0070  0.1362  0.1784
  482PYPI   D3A 7419   2.560   8.217   8.765 -0.0862 -0.0976  0.2396
  482PYPI   C4A 7420   2.586   8.413   8.368 -0.3724  0.0816 -0.0790
  482PYPI   C1B 7421   2.969   8.281   9.506  0.3910  0.0281 -0.2371
  482PYPI   C2B 7422   2.879   8.358   9.075  0.0618  0.1011 -0.3103
  482PYPI   C3B 7423   3.018   8.515   8.707  0.0498 -0.2381 -0.1237
  482PYPI   C4B 7424   3.012   8.667   8.360 -0.0949 -0.1848 -0.0186
  483PYPI    C1 7425   3.115   1.694  11.038 -0.1640  0.0244  0.1502
  483PYPI    C2 7426   2.806   1.835  11.249 -0.1303 -0.1457  0.3156
  483PYPI    C3 7427   3.054   1.567  11.412  0.0925 -0.0276  0.1760
  483PYPI   PO4 7428   3.029   1.595  10.719 -0.1576 -0.2060  0.0301
  483PYPI   GL1 7429   2.958   1.358  10.305 -0.1173  0.0756  0.0711
  483PYPI   GL2 7430   2.880   1.040  10.276 -0.2392 -0.0826 -0.2211
  483PYPI   C1A 7431   3.023   1.317   9.834  0.3006 -0.0139  0.0538
  483PYPI   C2A 7432   2.945   1.259   9.380 -0.1088  0.4677 -0.2569
  483PYPI   D3A 7433   2.986   1.220   8.859  0.0939 -0.0999  0.0710
  483PYPI   C4A 7434   3.182   1.414   8.633  0.0479 -0.2484  0.2696
  483PYPI   C1B 7435   2.708   0.915   9.902 -0.1852  0.0261  0.3608
  483PYPI   C2B 7436   2.930   0.761   9.552 -0.1661 -0.4136  0.3002
  483PYPI   C3B 7437   3.286   0.794   9.221 -0.2443  0.0631  0.0241
  483PYPI   C4B 7438   3.588   0.654   8.977 -0.0309  0.1842  0.1379
  484PYPI    C1 7439   8.695  10.692  10.694 -0.1514 -0.0916  0.0575
  484PYPI    C2 7440   8.565  11.009  10.900 -0.2189  0.0259 -0.1625
  484PYPI    C3 7441   8.911  10.834  10.999 -0.1878  0.1597 -0.0315
  484PYPI   PO4 7442   8.683  10.711  10.443 -0.0290 -0.0607 -0.3757
  484PYPI   GL1 7443   8.717  10.918   9.993 -0.1489 -0.0184 -0.0870
  484PYPI   GL2 7444   8.425  11.030   9.846 -0.1414 -0.0780 -0.2835
  484PYPI   C1A 7445   8.860  11.058   9.571  0.0552  0.0900 -0.2697
  484PYPI   C2A 7446   8.872  11.064   9.129  0.0363  0.0591  0.3255
  484PYPI   D3A 7447   8.898  11.172   8.697  0.2672  0.1493 -0.0866
  484PYPI   C4A 7448   8.696  10.944   8.429 -0.1424  0.1012 -0.1767
  484PYPI   C1B 7449   8.404  10.935   9.380  0.0753  0.0329  0.0601
  484PYPI   C2B 7450   8.310  10.898   9.040  0.0774 -0.0256  0.0198
  484PYPI   C3B 7451   8.211  10.885   8.629 -0.4619  0.1241  0.0482
  484PYPI   C4B 7452   8.121  10.973   8.256  0.2874  0.0199  0.0316
  485PYPI    C1 7453  11.415   6.332  10.229 -0.0289 -0.1400 -0.1262
  485PYPI    C2 7454  11.688   6.431  10.504 -0.0846 -0.1727 -0.0589
  485PYPI    C3 7455  11.314   6.569  10.534 -0.0471 -0.0334 -0.2143
  485PYPI   PO4 7456  11.454   6.038  10.190  0.1593  0.1337 -0.0959
  485PYPI   GL1 7457  11.496   5.867   9.796 -0.0159 -0.0006 -0.2393
  485PYPI   GL2 7458  11.187   5.707   9.840 -0.1591 -0.0227 -0.5014
  485PYPI   C1A 7459  11.716   5.927   9.471 -0.0890 -0.1765  0.1687
  485PYPI   C2A 7460  11.932   5.878   9.075 -0.0931  0.0707 -0.2059
  485PYPI   D3A 7461  11.819   6.097   8.564 -0.2017 -0.2082 -0.0044
  485PYPI   C4A 7462  11.362   5.976   8.351 -0.0446 -0.0209  0.1264
  485PYPI   C1B 7463  11.007   5.592   9.425  0.2203  0.0970 -0.0769
  485PYPI   C2B 7464  11.004   5.598   8.934  0.3581  0.0077  0.1816
  485PYPI   C3B 7465  10.645   5.437   8.561  0.1949 -0.3651  0.2032
  485PYPI   C4B 7466  10.233   5.272   8.270  0.1197 -0.0430 -0.1126
  486PYPI    C1 7467   7.637   4.140  10.617 -0.1805  0.0004  0.2512
  486PYPI    C2 7468   7.391   3.866  10.773  0.1031 -0.2430  0.2807
  486PYPI    C3 7469   7.671   4.036  11.002  0.0096 -0.0180  0.2305
  486PYPI   PO4 7470   7.704   4.004  10.347 -0.0862 -0.1442  0.1841
  486PYPI   GL1 7471   7.438   4.003  10.027 -0.0008 -0.0850 -0.3401
  486PYPI   GL2 7472   7.281   3.857   9.738 -0.0117  0.1752  0.1835
  486PYPI   C1A 7473   7.024   4.322   9.893 -0.0927 -0.0002  0.2696
  486PYPI   C2A 7474   7.152   4.572   9.547 -0.3883  0.0799 -0.4049
  486PYPI   D3A 7475   7.336   4.684   9.168 -0.0030 -0.0741 -0.1075
  486PYPI   C4A 7476   7.650   4.591   8.832  0.2006  0.0511  0.1124
  486PYPI   C1B 7477   7.142   3.623   9.373 -0.0441  0.1360 -0.3564
  486PYPI   C2B 7478   7.145   3.707   8.994 -0.0783 -0.1349  0.0151
  486PYPI   C3B 7479   7.229   3.763   8.611  0.0213 -0.0376  0.0332
  486PYPI   C4B 7480   7.458   4.140   8.460  0.2498  0.1673 -0.1322
  487PYPI    C1 7481  12.436   5.335  10.518  0.0328  0.0934 -0.0157
  487PYPI    C2 7482  12.702   5.621  10.430 -0.0377  0.0774 -0.2913
  487PYPI    C3 7483  12.626   5.528  10.812  0.2487  0.1776 -0.2075
  487PYPI   PO4 7484  12.225   5.381  10.332  0.1107  0.0825  0.0039
  487PYPI   GL1 7485  12.282   5.612   9.989 -0.0537  0.1786  0.0527
  487PYPI   GL2 7486  12.329   5.254   9.842 -0.0462  0.1052  0.1472
  487PYPI   C1A 7487  12.224   5.807   9.517  0.1192  0.0724  0.0356
  487PYPI   C2A 7488  12.388   5.665   9.121 -0.0581  0.0898 -0.0584
  487PYPI   D3A 7489  12.216   5.612   8.675  0.1116  0.5187  0.1051
  487PYPI   C4A 7490  11.966   5.640   8.329 -0.3499 -0.0386 -0.3908
  487PYPI   C1B 7491  12.420   5.183   9.397  0.0027  0.4284  0.0964
  487PYPI   C2B 7492  12.694   5.252   9.039  0.3225 -0.2369  0.1696
  487PYPI   C3B 7493  12.818   5.445   8.639 -0.0379  0.2988  0.1091
  487PYPI   C4B 7494  13.132   5.804   8.529  0.0604  0.0943  0.1795
  488PYPI    C1 7495   8.137   6.291  10.755  0.1511  0.0951  0.3838
  488PYPI    C2 7496   8.076   5.961  10.973 -0.1408  0.1329  0.3634
  488PYPI    C3 7497   7.804   6.255  10.975 -0.1517  0.1318 -0.0548
  488PYPI   PO4 7498   8.370   6.062  10.606  0.2259  0.1053  0.1153
  488PYPI   GL1 7499   8.281   5.950  10.213 -0.0926  0.0623  0.1418
  488PYPI   GL2 7500   8.205   6.372  10.167 -0.1345  0.1542 -0.1028
  488PYPI   C1A 7501   8.348   5.714   9.830  0.0161  0.0220  0.1912
  488PYPI   C2A 7502   8.607   5.821   9.469  0.0614 -0.2347 -0.2276
  488PYPI   D3A 7503   8.549   5.752   9.064  0.0967  0.3553  0.1220
  488PYPI   C4A 7504   8.353   6.010   8.859  0.0070  0.4689  0.2471
  488PYPI   C1B 7505   8.190   6.231   9.810  0.1157  0.0224  0.3295
  488PYPI   C2B 7506   8.213   6.081   9.334 -0.0178  0.2251 -0.0009
  488PYPI   C3B 7507   8.046   5.728   9.174  0.0720 -0.0310  0.1241
  488PYPI   C4B 7508   8.215   5.411   9.159  0.0738  0.2465 -0.1392
  489PYPI    C1 7509  14.388   6.678  10.956 -0.0365 -0.2619  0.1754
  489PYPI    C2 7510  14.666   6.452  10.779 -0.0047 -0.2381  0.1950
  489PYPI    C3 7511  14.749   6.638  11.123  0.0936  0.1009 -0.0077
  489PYPI   PO4 7512  14.306   6.801  10.638  0.1793  0.1510  0.2004
  489PYPI   GL1 7513  14.138   6.739  10.282  0.0959 -0.0579 -0.1085
  489PYPI   GL2 7514  13.880   6.653  10.321  0.1312 -0.0383 -0.2479
  489PYPI   C1A 7515  14.321   6.632   9.907 -0.3383 -0.2186 -0.3002
  489PYPI   C2A 7516  14.641   6.461   9.642 -0.0659  0.3870 -0.0704
  489PYPI   D3A 7517  14.618   6.517   9.265  0.0730  0.3267 -0.0398
  489PYPI   C4A 7518  14.734   6.874   9.093 -0.1439 -0.2135  0.0212
  489PYPI   C1B 7519  13.736   6.749   9.879  0.0242  0.0845 -0.3457
  489PYPI   C2B 7520  13.813   6.680   9.446 -0.4314  0.0106  0.0230
  489PYPI   C3B 7521  13.712   6.739   9.058 -0.1370  0.0738 -0.0430
  489PYPI   C4B 7522  13.555   6.592   8.690 -0.3614 -0.0731 -0.1643
  490PYPI    C1 7523   9.331  11.917  10.584 -0.3361 -0.2307 -0.0585
  490PYPI    C2 7524   9.030  11.911  10.848 -0.1647  0.0003  0.1473
  490PYPI    C3 7525   9.408  11.940  10.976 -0.0729  0.0204 -0.1209
  490PYPI   PO4 7526   9.258  12.079  10.475 -0.0427  0.1181  0.0093
  490PYPI   GL1 7527   9.221  12.299  10.116 -0.3891  0.2382  0.1019
  490PYPI   GL2 7528   8.874  12.465  10.007  0.0449  0.0680  0.0989
  490PYPI   C1A 7529   9.467  12.313   9.760  0.1417  0.1173  0.2794
  490PYPI   C2A 7530   9.607  12.263   9.299 -0.4085  0.1108 -0.1745
  490PYPI   D3A 7531   9.564  12.223   8.907  0.4292 -0.0763 -0.1427
  490PYPI   C4A 7532   9.507  11.984   8.536  0.1082  0.0011  0.3006
  490PYPI   C1B 7533   8.905  12.669   9.730 -0.0036  0.0326  0.0670
  490PYPI   C2B 7534   8.893  12.787   9.444 -0.0021  0.0142  0.0409
  490PYPI   C3B 7535   8.785  12.986   9.203  0.0379  0.3719  0.2486
  490PYPI   C4B 7536   8.784  13.128   8.690 -0.2438  0.1500  0.0494
  491PYPI    C1 7537   7.275   2.125  10.865  0.0606  0.0184 -0.0032
  491PYPI    C2 7538   7.529   1.875  11.047  0.0970 -0.0672 -0.1699
  491PYPI    C3 7539   7.326   2.144  11.261  0.1855 -0.1256 -0.0111
  491PYPI   PO4 7540   7.324   2.209  10.691  0.1713  0.0178  0.1051
  491PYPI   GL1 7541   7.763   2.170  10.383  0.1021 -0.1351  0.1875
  491PYPI   GL2 7542   7.711   2.442  10.373  0.0494  0.1213  0.3287
  491PYPI   C1A 7543   7.616   2.052   9.997  0.0674  0.1154  0.1964
  491PYPI   C2A 7544   7.443   1.980   9.631  0.0912  0.0456 -0.0815
  491PYPI   D3A 7545   7.235   1.741   9.312  0.3834  0.0854 -0.3427
  491PYPI   C4A 7546   7.388   1.826   8.855 -0.2041 -0.0969  0.1357
  491PYPI   C1B 7547   7.952   2.419   9.988 -0.0050  0.4978 -0.0783
  491PYPI   C2B 7548   7.979   2.448   9.607 -0.0106  0.5263  0.1809
  491PYPI   C3B 7549   8.027   2.390   9.181 -0.4165  0.0275  0.1582
  491PYPI   C4B 7550   7.802   2.388   8.932 -0.1854 -0.1150  0.2485
  492PYPI    C1 7551  16.826  10.534  10.157  0.0963 -0.0695  0.0314
  492PYPI    C2 7552  17.140  10.716   9.988  0.1031 -0.0036  0.1150
  492PYPI    C3 7553  17.194  10.473  10.302  0.0888 -0.1146  0.0320
  492PYPI   PO4 7554  16.736  10.417   9.912  0.0365  0.2469  0.1935
  492PYPI   GL1 7555  16.877  10.359   9.470 -0.3262  0.3545 -0.2629
  492PYPI   GL2 7556  16.496  10.221   9.509  0.1173  0.1190  0.0298
  492PYPI   C1A 7557  16.960  10.390   9.036 -0.1601 -0.1218  0.0704
  492PYPI   C2A 7558  16.908  10.466   8.602 -0.1726 -0.0365 -0.3357
  492PYPI   D3A 7559  16.872  10.324   8.192  0.0226 -0.0459 -0.1250
  492PYPI   C4A 7560  16.566  10.527   7.919 -0.1304 -0.1540  0.0055
  492PYPI   C1B 7561  16.542   9.993   9.115  0.1333 -0.1910 -0.0582
  492PYPI   C2B 7562  16.488   9.647   8.777  0.1006  0.2608  0.0524
  492PYPI   C3B 7563  16.227   9.641   8.351 -0.1134  0.0688 -0.1001
  492PYPI   C4B 7564  16.056   9.665   7.922 -0.0994  0.0361  0.0142
  493PYPI    C1 7565  11.466  15.535  10.752 -0.1197  0.0626  0.5142
  493PYPI    C2 7566  11.639  15.174  10.741 -0.0853  0.0869  0.0398
  493PYPI    C3 7567  11.254  15.209  10.844 -0.0970 -0.0887  0.0582
  493PYPI   PO4 7568  11.527  15.740  10.477 -0.0556  0.0229 -0.1743
  493PYPI   GL1 7569  11.372  15.680  10.105 -0.0245 -0.4393  0.2361
  493PYPI   GL2 7570  11.292  15.389  10.254  0.0521  0.0892 -0.1933
  493PYPI   C1A 7571  11.339  15.705   9.647 -0.0350  0.2208 -0.0920
  493PYPI   C2A 7572  11.192  15.866   9.305 -0.0511 -0.1458  0.1677
  493PYPI   D3A 7573  10.910  15.871   9.083  0.0684  0.3627  0.0162
  493PYPI   C4A 7574  10.862  15.629   8.698  0.0954 -0.0179  0.0400
  493PYPI   C1B 7575  11.517  15.308   9.888  0.1068  0.2225 -0.1151
  493PYPI   C2B 7576  11.567  15.247   9.548 -0.0116 -0.1461 -0.1559
  493PYPI   C3B 7577  11.439  15.439   9.190  0.0267 -0.3128  0.0619
  493PYPI   C4B 7578  11.350  15.671   8.794 -0.0724 -0.0863 -0.0115
  494PYPI    C1 7579   5.409  13.961  11.018 -0.1327  0.0119  0.1837
  494PYPI    C2 7580   5.172  14.191  11.244  0.0874  0.3174  0.1114
  494PYPI    C3 7581   5.197  13.798  11.315 -0.1922  0.3348  0.3231
  494PYPI   PO4 7582   5.343  13.957  10.760 -0.0124  0.0696 -0.0234
  494PYPI   GL1 7583   5.116  14.082  10.400  0.1315 -0.0415 -0.0796
  494PYPI   GL2 7584   4.837  13.884  10.372  0.2763 -0.2739  0.3122
  494PYPI   C1A 7585   5.394  14.085  10.081 -0.0016 -0.3169 -0.0189
  494PYPI   C2A 7586   5.309  14.023   9.619  0.0998 -0.1768  0.2376
  494PYPI   D3A 7587   5.481  14.002   9.248 -0.2100  0.0086  0.2222
  494PYPI   C4A 7588   5.361  14.113   8.782  0.0813  0.0232 -0.2337
  494PYPI   C1B 7589   4.969  13.744   9.937  0.0646  0.0206 -0.3651
  494PYPI   C2B 7590   4.947  13.656   9.522 -0.0103 -0.2524  0.1898
  494PYPI   C3B 7591   4.889  13.485   9.079  0.2022  0.0826 -0.1606
  494PYPI   C4B 7592   4.773  13.087   8.964 -0.4142 -0.2364  0.1040
  495PYPI    C1 7593   7.073   8.703  11.045  0.0746 -0.1364  0.0874
  495PYPI    C2 7594   7.185   8.360  10.872  0.0398 -0.1078  0.0082
  495PYPI    C3 7595   6.904   8.357  11.156  0.1041 -0.1559  0.0716
  495PYPI   PO4 7596   7.112   8.834  10.793 -0.0221 -0.1632  0.3221
  495PYPI   GL1 7597   7.035   8.943  10.310 -0.1258 -0.0628 -0.0843
  495PYPI   GL2 7598   6.776   8.910  10.231 -0.1155 -0.2683 -0.2790
  495PYPI   C1A 7599   7.191   8.769   9.966  0.1421  0.0508 -0.1908
  495PYPI   C2A 7600   7.366   8.557   9.620  0.0907  0.0732 -0.1675
  495PYPI   D3A 7601   7.396   8.459   9.173  0.2203 -0.1424  0.1875
  495PYPI   C4A 7602   7.717   8.480   9.013  0.0881 -0.2176  0.0788
  495PYPI   C1B 7603   6.760   9.186   9.816  0.0842  0.0121 -0.1438
  495PYPI   C2B 7604   6.711   9.216   9.318  0.3684 -0.4456  0.2759
  495PYPI   C3B 7605   6.706   9.129   8.888 -0.0418  0.1590  0.2924
  495PYPI   C4B 7606   6.597   9.271   8.517 -0.0364 -0.0385 -0.0617
  496PYPI    C1 7607   2.759  15.856  11.114  0.0334  0.2555  0.0344
  496PYPI    C2 7608   2.815  15.562  11.379  0.0053 -0.0010 -0.2386
  496PYPI    C3 7609   2.464  15.755  11.365  0.0887  0.1805  0.0692
  496PYPI   PO4 7610   2.878  15.766  10.812 -0.2430  0.0469 -0.1372
  496PYPI   GL1 7611   2.825  15.369  10.502  0.0176 -0.0475  0.1167
  496PYPI   GL2 7612   3.081  15.146  10.396 -0.2782  0.0700  0.1104
  496PYPI   C1A 7613   2.707  15.434  10.121 -0.1081  0.0596  0.0009
  496PYPI   C2A 7614   2.764  15.314   9.672 -0.1249  0.1373 -0.4153
  496PYPI   D3A 7615   2.920  15.285   9.236 -0.1104  0.1056  0.1715
  496PYPI   C4A 7616   2.824  15.106   8.782  0.0904  0.0782 -0.0851
  496PYPI   C1B 7617   3.159  15.257   9.979 -0.1397 -0.1148  0.1099
  496PYPI   C2B 7618   3.247  15.364   9.592 -0.0923  0.0822  0.1712
  496PYPI   C3B 7619   3.431  15.267   9.168  0.0964 -0.1055 -0.1620
  496PYPI   C4B 7620   3.759  15.222   8.935  0.2959  0.0341  0.3021
  497PYPI    C1 7621   5.147  17.777  10.801 -0.3798  0.0469  0.1752
  497PYPI    C2 7622   5.125  17.453  11.034 -0.0588 -0.1448 -0.0532
  497PYPI    C3 7623   5.432  17.498  10.782 -0.3071  0.1454 -0.3127
  497PYPI   PO4 7624   4.874  17.758  10.725  0.2351  0.0783 -0.3151
  497PYPI   GL1 7625   4.628  17.603  10.397  0.2100 -0.1969  0.0747
  497PYPI   GL2 7626   4.572  17.309  10.212  0.1216  0.2606 -0.2160
  497PYPI   C1A 7627   4.794  17.727  10.098 -0.0103 -0.1319  0.0459
  497PYPI   C2A 7628   4.726  17.799   9.719  0.2254 -0.0175  0.1901
  497PYPI   D3A 7629   4.526  17.738   9.292  0.3042 -0.1318 -0.2054
  497PYPI   C4A 7630   4.126  17.565   9.236  0.1378 -0.2280 -0.1096
  497PYPI   C1B 7631   4.626  17.349   9.831  0.0399  0.1430 -0.0377
  497PYPI   C2B 7632   4.551  17.211   9.418 -0.0885 -0.3087  0.0132
  497PYPI   C3B 7633   4.592  17.277   9.000 -0.0567  0.1438 -0.0940
  497PYPI   C4B 7634   4.324  17.579   8.785 -0.0307  0.1989  0.0926
  498PYPI    C1 7635   3.268   5.522  10.550  0.0033 -0.2612 -0.0250
  498PYPI    C2 7636   2.970   5.522  10.818  0.0955 -0.3703  0.0789
  498PYPI    C3 7637   3.049   5.191  10.608  0.0145 -0.2809 -0.0947
  498PYPI   PO4 7638   3.406   5.716  10.718 -0.0257  0.1399  0.3797
  498PYPI   GL1 7639   3.562   5.937  10.446  0.2785  0.0873 -0.3060
  498PYPI   GL2 7640   3.906   5.944  10.210  0.0667  0.0929  0.2262
  498PYPI   C1A 7641   3.461   6.100  10.035 -0.2617  0.2737 -0.0350
  498PYPI   C2A 7642   3.590   6.061   9.576 -0.2039 -0.3604 -0.2596
  498PYPI   D3A 7643   3.704   5.875   9.225 -0.2998  0.0338  0.0236
  498PYPI   C4A 7644   3.741   5.781   8.822 -0.0228  0.1910 -0.0599
  498PYPI   C1B 7645   3.996   6.090   9.879  0.1704  0.0108  0.3679
  498PYPI   C2B 7646   4.139   6.079   9.437  0.2679 -0.2614 -0.0104
  498PYPI   C3B 7647   4.039   6.180   9.041  0.2091 -0.1263  0.1527
  498PYPI   C4B 7648   4.200   6.048   8.646  0.1499  0.2937 -0.0160
  499PYPI    C1 7649  14.664   5.977  10.771  0.0246  0.2806 -0.1239
  499PYPI    C2 7650  14.548   6.047  11.147 -0.2828 -0.1786 -0.1257
  499PYPI    C3 7651  14.937   6.055  11.053 -0.2123  0.0708  0.1696
  499PYPI   PO4 7652  14.469   5.859  10.656 -0.0445 -0.1031 -0.0000
  499PYPI   GL1 7653  14.178   5.876  10.253  0.0021 -0.2028 -0.0921
  499PYPI   GL2 7654  14.485   5.803  10.150  0.1676  0.2856 -0.1271
  499PYPI   C1A 7655  13.870   5.858   9.818  0.1035  0.0944  0.0542
  499PYPI   C2A 7656  13.824   5.550   9.481 -0.0392  0.0463 -0.0985
  499PYPI   D3A 7657  13.688   5.391   9.118  0.0667 -0.2145  0.1807
  499PYPI   C4A 7658  13.752   5.476   8.684  0.4213 -0.1908 -0.2444
  499PYPI   C1B 7659  14.501   5.926   9.789  0.0878  0.1960 -0.3811
  499PYPI   C2B 7660  14.576   6.051   9.392 -0.1444  0.0218 -0.1621
  499PYPI   C3B 7661  14.536   6.062   8.945 -0.0212 -0.3923 -0.4259
  499PYPI   C4B 7662  14.620   6.039   8.431 -0.0484  0.1212  0.1505
  500PYPI    C1 7663  18.007  10.857  10.300 -0.1527 -0.0969  0.0188
  500PYPI    C2 7664  17.974  11.135  10.586  0.0627 -0.1675  0.1146
  500PYPI    C3 7665  18.288  10.888  10.584  0.1233 -0.0930 -0.2502
  500PYPI   PO4 7666  17.848  10.970  10.074  0.0310 -0.2927  0.1330
  500PYPI   GL1 7667  17.822  10.831   9.704  0.2218 -0.4099  0.1900
  500PYPI   GL2 7668  17.501  10.840   9.717 -0.1989  0.0943  0.1232
  500PYPI   C1A 7669  17.727  10.774   9.275  0.1179  0.0432 -0.1946
  500PYPI   C2A 7670  17.734  10.733   8.829  0.2838 -0.1732 -0.0075
  500PYPI   D3A 7671  17.728  10.772   8.400  0.3931 -0.0417  0.1123
  500PYPI   C4A 7672  18.117  10.720   8.051  0.0662  0.3792  0.1451
  500PYPI   C1B 7673  17.213  10.721   9.404 -0.1367  0.0178 -0.1616
  500PYPI   C2B 7674  17.191  10.908   9.043 -0.1731 -0.2155  0.2403
  500PYPI   C3B 7675  17.131  10.894   8.592 -0.3543  0.0168  0.4358
  500PYPI   C4B 7676  17.257  10.610   8.255  0.1190 -0.0517 -0.0553
  501PYPI    C1 7677  14.834   2.578  10.719  0.1766 -0.1170 -0.0583
  501PYPI    C2 7678  14.488   2.633  10.911  0.2445  0.2020 -0.0223
  501PYPI    C3 7679  14.784   2.429  11.086  0.0424 -0.1605 -0.0937
  501PYPI   PO4 7680  14.729   2.453  10.457 -0.2437 -0.0624  0.1222
  501PYPI   GL1 7681  14.935   2.522  10.057  0.0576  0.1062  0.3238
  501PYPI   GL2 7682  14.955   2.231  10.032 -0.0129  0.2452  0.2492
  501PYPI   C1A 7683  15.142   2.467   9.609 -0.1072  0.1854  0.0707
  501PYPI   C2A 7684  15.066   2.458   9.126  0.0013  0.0578  0.1400
  501PYPI   D3A 7685  15.139   2.724   8.684  0.2790 -0.1127  0.3881
  501PYPI   C4A 7686  15.274   2.538   8.289 -0.0941  0.0547  0.1311
  501PYPI   C1B 7687  14.908   1.886   9.816  0.0024  0.2284  0.0582
  501PYPI   C2B 7688  14.974   1.893   9.398 -0.3837 -0.1327 -0.1103
  501PYPI   C3B 7689  14.957   1.933   8.967 -0.4186  0.2098  0.0570
  501PYPI   C4B 7690  15.019   1.696   8.568  0.2126  0.1169 -0.0776
  502PYPI    C1 7691   5.139   5.058  10.809 -0.1633  0.1336 -0.1747
  502PYPI    C2 7692   4.952   5.093  11.161  0.0200  0.0796 -0.0702
  502PYPI    C3 7693   5.351   5.107  11.145  0.0173 -0.0357 -0.2621
  502PYPI   PO4 7694   5.027   5.124  10.675  0.5754  0.0796 -0.2878
  502PYPI   GL1 7695   5.066   5.282  10.318 -0.0263 -0.1244  0.1312
  502PYPI   GL2 7696   5.388   5.287  10.400  0.1539  0.1202 -0.1778
  502PYPI   C1A 7697   5.003   5.351   9.904 -0.1709  0.1662  0.1228
  502PYPI   C2A 7698   4.893   5.454   9.512 -0.0614  0.0409  0.0463
  502PYPI   D3A 7699   4.806   5.794   9.191  0.0694 -0.0531 -0.0689
  502PYPI   C4A 7700   5.095   5.740   8.918 -0.0862  0.4735 -0.2368
  502PYPI   C1B 7701   5.371   5.634  10.127  0.0759  0.1271 -0.4199
  502PYPI   C2B 7702   5.342   5.827   9.654 -0.0010 -0.2066 -0.1728
  502PYPI   C3B 7703   5.503   5.671   9.263  0.0463 -0.1656  0.1641
  502PYPI   C4B 7704   5.568   5.538   8.850 -0.0232  0.2884 -0.1646
  503PYPI    C1 7705  14.460  11.559  10.993  0.0306  0.1592 -0.1571
  503PYPI    C2 7706  14.216  11.826  11.164  0.1524  0.0237  0.2390
  503PYPI    C3 7707  14.082  11.460  11.076  0.1039  0.0771  0.0885
  503PYPI   PO4 7708  14.624  11.637  10.753  0.0450  0.2875 -0.2366
  503PYPI   GL1 7709  14.622  11.674  10.238  0.0205 -0.0994  0.2455
  503PYPI   GL2 7710  14.463  11.831  10.331 -0.0305  0.1036  0.2611
  503PYPI   C1A 7711  14.757  11.671   9.885  0.0438  0.0737  0.3546
  503PYPI   C2A 7712  14.770  11.665   9.411  0.1958 -0.5614 -0.0179
  503PYPI   D3A 7713  14.949  11.527   8.967  0.3029 -0.3827 -0.0135
  503PYPI   C4A 7714  15.234  11.189   8.768  0.2250 -0.0927  0.0330
  503PYPI   C1B 7715  14.300  11.918   9.923 -0.2752 -0.3033 -0.2244
  503PYPI   C2B 7716  14.130  12.040   9.468 -0.2059 -0.1673  0.2400
  503PYPI   C3B 7717  14.002  11.997   8.993 -0.0704  0.1851  0.0837
  503PYPI   C4B 7718  13.775  11.926   8.641  0.2885 -0.3473  0.2536
  504PYPI    C1 7719   1.674   3.478  10.977  0.1536 -0.1167 -0.0446
  504PYPI    C2 7720   1.834   3.843  11.016  0.0995 -0.0932 -0.0402
  504PYPI    C3 7721   1.807   3.602  11.333 -0.0631 -0.0184  0.0033
  504PYPI   PO4 7722   1.775   3.393  10.723 -0.1334 -0.2589 -0.0239
  504PYPI   GL1 7723   2.057   3.401  10.423 -0.2590 -0.3632  0.0537
  504PYPI   GL2 7724   1.965   3.521  10.256 -0.1240 -0.4111  0.1015
  504PYPI   C1A 7725   2.279   3.228  10.070  0.1763 -0.2448  0.0757
  504PYPI   C2A 7726   2.358   3.272   9.636  0.0598 -0.3301  0.2241
  504PYPI   D3A 7727   2.506   3.176   9.255 -0.3175 -0.2996 -0.2123
  504PYPI   C4A 7728   2.659   3.080   8.811 -0.2591  0.3828 -0.0099
  504PYPI   C1B 7729   1.895   3.509   9.761 -0.2165  0.0141 -0.0890
  504PYPI   C2B 7730   1.996   3.478   9.325  0.0638 -0.0886  0.0777
  504PYPI   C3B 7731   2.121   3.353   8.898  0.0359 -0.0277  0.1199
  504PYPI   C4B 7732   2.260   3.210   8.540 -0.2017  0.1299  0.3852
  505PYPI    C1 7733   2.916   3.171  10.915 -0.0002  0.0159  0.1596
  505PYPI    C2 7734   2.765   3.540  10.881 -0.1269 -0.0500 -0.0062
  505PYPI    C3 7735   2.631   3.294  11.166 -0.1801 -0.0340 -0.0174
  505PYPI   PO4 7736   3.164   3.183  10.856 -0.0431 -0.1567 -0.0500
  505PYPI   GL1 7737   3.317   3.064  10.408 -0.1915 -0.0601 -0.0866
  505PYPI   GL2 7738   3.094   2.893  10.497  0.2969 -0.0687 -0.0472
  505PYPI   C1A 7739   3.462   2.850  10.089 -0.0718  0.2241 -0.3152
  505PYPI   C2A 7740   3.494   2.680   9.639 -0.0052 -0.0357 -0.1259
  505PYPI   D3A 7741   3.835   2.715   9.450  0.0174 -0.0958 -0.3365
  505PYPI   C4A 7742   4.261   2.763   9.567  0.0155 -0.2357  0.2677
  505PYPI   C1B 7743   2.969   2.738  10.065 -0.0833  0.2340  0.1768
  505PYPI   C2B 7744   3.012   2.611   9.649  0.0714  0.0266 -0.0786
  505PYPI   C3B 7745   3.152   2.490   9.296 -0.0850  0.2001  0.2065
  505PYPI   C4B 7746   3.604   2.351   9.190 -0.0983 -0.1583  0.1382
  506ERGO   ROH 7747  15.096  10.385   9.904  0.0030  0.1571 -0.1971
  506ERGO    R1 7748  15.008  10.309   9.646  0.2052  0.0298 -0.2320
  506ERGO    R2 7749  14.837  10.465   9.495 -0.1268 -0.2948 -0.2166
  506ERGO    R3 7750  15.033  10.442   9.308 -0.0333  0.1870 -0.1889
  506ERGO    R4 7751  14.791  10.503   9.154 -0.1102 -0.1771 -0.2050
  506ERGO    R5 7752  14.927  10.335   9.122  0.2154  0.0952 -0.2777
  506ERGO    C1 7753  14.949  10.503   8.780 -0.0129  0.3436 -0.1723
  506ERGO    C2 7754  14.828  10.469   8.394  0.6195  0.1001  0.0608
  507ERGO   ROH 7755  11.782   7.892   9.857  0.1854 -0.2382 -0.0572
  507ERGO    R1 7756  11.693   7.896   9.588  0.0881 -0.1391 -0.0244
  507ERGO    R2 7757  11.696   8.125   9.433  0.1543 -0.1103  0.0189
  507ERGO    R3 7758  11.839   7.969   9.263  0.0084 -0.1551 -0.0639
  507ERGO    R4 7759  11.771   8.206   9.106  0.1688 -0.0385  0.0398
  507ERGO    R5 7760  11.733   7.999   9.051 -0.0004  0.0115 -0.0370
  507ERGO    C1 7761  11.949   8.107   8.755  0.0401 -0.0389 -0.0258
  507ERGO    C2 7762  12.210   8.250   8.470  0.3960 -0.2015 -0.0796
  508ERGO   ROH 7763   0.887   2.706  10.129  0.1602  0.1416  0.0686
  508ERGO    R1 7764   0.809   2.625   9.869  0.0783  0.3435  0.0286
  508ERGO    R2 7765   0.842   2.786   9.647  0.4221  0.3466  0.0787
  508ERGO    R3 7766   0.974   2.569   9.549  0.0641  0.1293  0.0561
  508ERGO    R4 7767   0.831   2.678   9.318  0.0981  0.2891  0.1049
  508ERGO    R5 7768   0.823   2.473   9.391 -0.1611  0.3103  0.1532
  508ERGO    C1 7769   0.948   2.413   9.036 -0.4265  0.0516  0.0990
  508ERGO    C2 7770   1.030   2.347   8.699 -0.0965  0.2033 -0.1127
  509ERGO   ROH 7771  15.600   4.000   9.738 -0.0618  0.1953 -0.1247
  509ERGO    R1 7772  15.691   4.010   9.470 -0.0484  0.1253 -0.1220
  509ERGO    R2 7773  15.705   3.786   9.309 -0.1721  0.1093 -0.1032
  509ERGO    R3 7774  15.554   3.937   9.141 -0.0790  0.1828 -0.1233
  509ERGO    R4 7775  15.722   3.775   8.964 -0.2060  0.0157 -0.1032
  509ERGO    R5 7776  15.702   3.992   8.961 -0.0494  0.0350 -0.1494
  509ERGO    C1 7777  15.590   3.911   8.605 -0.1382  0.0302 -0.1219
  509ERGO    C2 7778  15.525   3.931   8.217  0.0618  0.1862  0.2288
  510ERGO   ROH 7779  11.713  17.135   9.884 -0.0278  0.1333 -0.1684
  510ERGO    R1 7780  11.564  16.991   9.690 -0.0142  0.0511 -0.1182
  510ERGO    R2 7781  11.333  17.091   9.577 -0.0230 -0.0105 -0.1527
  510ERGO    R3 7782  11.463  17.041   9.344 -0.0191 -0.0806 -0.1362
  510ERGO    R4 7783  11.178  17.023   9.276 -0.0194  0.0183 -0.1615
  510ERGO    R5 7784  11.331  16.871   9.238 -0.0714 -0.0422 -0.1330
  510ERGO    C1 7785  11.211  16.935   8.881 -0.0136 -0.0309 -0.1511
  510ERGO    C2 7786  10.981  16.811   8.597  0.1262  0.2002 -0.4156
  511ERGO   ROH 7787   5.971  12.637  10.191 -0.1321 -0.1571 -0.0626
  511ERGO    R1 7788   5.863  12.589   9.934  0.0126 -0.1445 -0.1271
  511ERGO    R2 7789   5.910  12.755   9.718 -0.0003 -0.0409 -0.0539
  511ERGO    R3 7790   5.993  12.525   9.600  0.2041  0.0499 -0.0907
  511ERGO    R4 7791   5.939  12.708   9.377 -0.1174 -0.0181 -0.0675
  511ERGO    R5 7792   5.858  12.507   9.403  0.1250 -0.1107 -0.0214
  511ERGO    C1 7793   6.034  12.464   9.068  0.0062  0.0804 -0.1098
  511ERGO    C2 7794   6.184  12.454   8.786  0.1646 -0.3328 -0.1072
  512ERGO   ROH 7795  17.352   2.240   9.671 -0.1165 -0.0963 -0.0584
  512ERGO    R1 7796  17.291   2.409   9.452 -0.1111 -0.0490 -0.0233
  512ERGO    R2 7797  17.468   2.452   9.243 -0.1524 -0.0961 -0.0657
  512ERGO    R3 7798  17.257   2.371   9.092 -0.2252  0.0041 -0.0191
  512ERGO    R4 7799  17.408   2.554   8.919 -0.1011 -0.1626 -0.0964
  512ERGO    R5 7800  17.196   2.566   8.967 -0.0914  0.0098 -0.0813
  512ERGO    C1 7801  17.175   2.537   8.587 -0.1398 -0.1071 -0.0705
  512ERGO    C2 7802  17.141   2.627   8.270 -0.0939 -0.1076  0.0047
  513ERGO   ROH 7803  13.894  10.880   9.881  0.1168  0.0881  0.0677
  513ERGO    R1 7804  13.885  11.053   9.657  0.1754  0.0035 -0.0016
  513ERGO    R2 7805  14.064  11.034   9.447  0.1512 -0.1621 -0.0151
  513ERGO    R3 7806  13.837  11.018   9.298  0.1274 -0.1225  0.0181
  513ERGO    R4 7807  14.056  10.980   9.106  0.0818 -0.1341 -0.0175
  513ERGO    R5 7808  13.894  11.125   9.092  0.1018 -0.1172  0.0189
  513ERGO    C1 7809  13.839  10.933   8.767  0.0190 -0.0807  0.0123
  513ERGO    C2 7810  13.811  10.978   8.279 -0.3621 -0.0210  0.0379
  514ERGO   ROH 7811   9.021   2.268  10.245  0.0437 -0.1722 -0.0413
  514ERGO    R1 7812   9.046   2.101  10.018 -0.0467 -0.1155 -0.0939
  514ERGO    R2 7813   8.872   2.114   9.804 -0.0948 -0.0178 -0.0508
  514ERGO    R3 7814   9.101   2.146   9.661 -0.1208 -0.0288 -0.0945
  514ERGO    R4 7815   8.917   2.011   9.477 -0.1234 -0.1240 -0.0217
  514ERGO    R5 7816   9.118   1.947   9.530 -0.1054 -0.0712 -0.0274
  514ERGO    C1 7817   9.159   1.982   9.153 -0.1643 -0.1962 -0.0456
  514ERGO    C2 7818   9.152   2.048   8.797 -0.0791  0.1177  0.0976
  515ERGO   ROH 7819   7.789  12.169  10.302 -0.0329 -0.2133  0.0272
  515ERGO    R1 7820   7.744  12.243  10.033  0.0167 -0.0403  0.0650
  515ERGO    R2 7821   7.941  12.357   9.875  0.1397 -0.2230  0.0810
  515ERGO    R3 7822   7.879  12.152   9.707 -0.1520 -0.0773  0.0050
  515ERGO    R4 7823   7.974  12.366   9.531  0.1938 -0.1588  0.0883
  515ERGO    R5 7824   7.785  12.259   9.515  0.0306  0.1307  0.0291
  515ERGO    C1 7825   7.935  12.180   9.174 -0.0486  0.0154  0.0212
  515ERGO    C2 7826   8.094  12.331   8.812  0.0949 -0.0742 -0.0278
  516ERGO   ROH 7827  17.800  12.165   9.944  0.1500 -0.1782 -0.0745
  516ERGO    R1 7828  17.633  12.162   9.716  0.0408 -0.1007  0.0022
  516ERGO    R2 7829  17.648  12.355   9.518 -0.0377 -0.0438  0.0456
  516ERGO    R3 7830  17.679  12.139   9.356 -0.1284 -0.0030 -0.0256
  516ERGO    R4 7831  17.609  12.358   9.174 -0.0552  0.0736  0.0487
  516ERGO    R5 7832  17.510  12.165   9.189 -0.1247  0.1098 -0.0080
  516ERGO    C1 7833  17.615  12.157   8.822 -0.1505  0.1804 -0.0162
  516ERGO    C2 7834  17.533  12.403   8.496 -0.1502 -0.1245 -0.0073
  517ERGO   ROH 7835  13.787   1.562   9.976  0.1358 -0.0716 -0.0491
  517ERGO    R1 7836  13.786   1.642   9.704  0.1626  0.0652 -0.0099
  517ERGO    R2 7837  14.015   1.644   9.549  0.1554  0.0245 -0.0199
  517ERGO    R3 7838  13.865   1.489   9.383  0.0663  0.1845 -0.0918
  517ERGO    R4 7839  14.105   1.553   9.228  0.2399 -0.1121  0.0422
  517ERGO    R5 7840  13.898   1.584   9.166  0.3083  0.1274 -0.0831
  517ERGO    C1 7841  14.017   1.353   8.886  0.2055 -0.0414  0.0109
  517ERGO    C2 7842  14.110   1.276   8.555  0.1204  0.3364  0.1027
  518ERGO   ROH 7843   7.389  13.468  10.368  0.0739 -0.2752  0.0665
  518ERGO    R1 7844   7.461  13.648  10.162  0.0367 -0.2124  0.1078
  518ERGO    R2 7845   7.656  13.590   9.974  0.0073 -0.1543  0.0559
  518ERGO    R3 7846   7.457  13.648   9.798 -0.0252 -0.1054  0.1088
  518ERGO    R4 7847   7.705  13.713   9.655 -0.0645  0.0451  0.1200
  518ERGO    R5 7848   7.534  13.844   9.685 -0.0945 -0.0203  0.2131
  518ERGO    C1 7849   7.548  13.839   9.304 -0.1367  0.2071  0.2069
  518ERGO    C2 7850   7.537  13.670   9.119 -0.1131  0.0094  0.0277
  519ERGO   ROH 7851   8.851   5.550   9.796  0.0091  0.0612 -0.0312
  519ERGO    R1 7852   8.837   5.312   9.643 -0.0441  0.0274  0.0250
  519ERGO    R2 7853   8.678   5.288   9.418 -0.0946 -0.0100  0.0612
  519ERGO    R3 7854   8.912   5.212   9.301 -0.1243 -0.0545  0.0317
  519ERGO    R4 7855   8.704   5.138   9.108 -0.1683 -0.1449  0.1196
  519ERGO    R5 7856   8.859   5.008   9.189 -0.1452 -0.1036  0.1346
  519ERGO    C1 7857   8.938   4.980   8.817 -0.2392 -0.2652  0.1259
  519ERGO    C2 7858   9.103   5.028   8.419 -0.1431  0.0244  0.0063
  520ERGO   ROH 7859  11.597   7.484   9.477  0.1963  0.1521  0.0685
  520ERGO    R1 7860  11.653   7.538   9.205  0.1031 -0.1117 -0.0068
  520ERGO    R2 7861  11.629   7.347   9.007 -0.1246 -0.2619  0.1604
  520ERGO    R3 7862  11.469   7.534   8.891 -0.0524 -0.2473  0.0843
  520ERGO    R4 7863  11.599   7.397   8.667  0.1793 -0.1390  0.1488
  520ERGO    R5 7864  11.596   7.612   8.704  0.1075 -0.1532  0.2285
  520ERGO    C1 7865  11.432   7.602   8.359  0.4241 -0.0536  0.0706
  520ERGO    C2 7866  11.321   7.440   8.076  0.1246 -0.0579 -0.1170
  521ERGO   ROH 7867  15.722   2.062   9.889  0.0067 -0.3591  0.0970
  521ERGO    R1 7868  15.622   1.921   9.665  0.1919 -0.3332 -0.0031
  521ERGO    R2 7869  15.445   2.033   9.485  0.1069 -0.4124  0.0382
  521ERGO    R3 7870  15.632   1.958   9.303  0.2142 -0.1121  0.0168
  521ERGO    R4 7871  15.397   2.026   9.143  0.1383 -0.2905  0.0301
  521ERGO    R5 7872  15.509   1.839   9.136  0.3536 -0.1702 -0.0537
  521ERGO    C1 7873  15.545   1.950   8.773  0.2573  0.0623  0.0054
  521ERGO    C2 7874  15.565   2.120   8.365 -0.0124  0.0815  0.1417
  522ERGO   ROH 7875   4.033  15.967  10.436 -0.1043  0.1996 -0.1275
  522ERGO    R1 7876   4.140  15.948  10.175 -0.0533  0.1206 -0.0999
  522ERGO    R2 7877   4.083  15.736  10.006  0.0175  0.0483 -0.0273
  522ERGO    R3 7878   4.009  15.934   9.836  0.0128 -0.0320 -0.1215
  522ERGO    R4 7879   4.133  15.731   9.665 -0.1580 -0.2050 -0.0530
  522ERGO    R5 7880   4.186  15.942   9.674 -0.0621 -0.2155 -0.2197
  522ERGO    C1 7881   4.093  15.914   9.305 -0.2645 -0.4280 -0.1563
  522ERGO    C2 7882   4.134  15.698   9.095  0.0147  0.1913  0.1444
  523ERGO   ROH 7883   4.892  12.192  10.155 -0.2156  0.1080  0.0188
  523ERGO    R1 7884   4.936  12.071   9.903 -0.2812  0.0574  0.0320
  523ERGO    R2 7885   4.739  12.056   9.709 -0.2907  0.1343  0.0400
  523ERGO    R3 7886   4.928  12.176   9.555 -0.2341  0.0198  0.0183
  523ERGO    R4 7887   4.757  12.034   9.364 -0.2663  0.0011  0.0491
  523ERGO    R5 7888   4.973  12.018   9.381 -0.2683 -0.0626  0.0793
  523ERGO    C1 7889   4.944  12.134   9.019 -0.1990 -0.1839  0.0341
  523ERGO    C2 7890   5.108  12.092   8.735 -0.0383 -0.0243  0.3621
  524ERGO   ROH 7891   3.939  12.049   9.933  0.1441 -0.0948  0.0868
  524ERGO    R1 7892   4.005  11.924   9.688  0.1134 -0.0261  0.0430
  524ERGO    R2 7893   4.032  12.064   9.452  0.1046  0.0431  0.0833
  524ERGO    R3 7894   4.275  11.943   9.445  0.0944  0.0255  0.0256
  524ERGO    R4 7895   4.221  12.017   9.166 -0.0276 -0.0896  0.0169
  524ERGO    R5 7896   4.274  11.818   9.240 -0.0064 -0.0620  0.0782
  524ERGO    C1 7897   4.559  11.875   8.993 -0.1141 -0.1834 -0.0759
  524ERGO    C2 7898   4.646  11.985   8.589 -0.1109  0.0016 -0.0797
  525ERGO   ROH 7899  17.987   4.693  10.377 -0.1646 -0.0097  0.0257
  525ERGO    R1 7900  17.906   4.593  10.125 -0.2558  0.1221  0.0002
  525ERGO    R2 7901  17.743   4.736   9.953 -0.0226  0.3740 -0.0300
  525ERGO    R3 7902  17.945   4.692   9.777 -0.0380  0.0991  0.0188
  525ERGO    R4 7903  17.710   4.743   9.609  0.0482  0.2331 -0.0395
  525ERGO    R5 7904  17.842   4.570   9.598 -0.1150  0.1092  0.0638
  525ERGO    C1 7905  17.881   4.705   9.243  0.0751 -0.1071  0.0008
  525ERGO    C2 7906  17.742   4.861   8.986 -0.4453  0.0055 -0.3259
  526ERGO   ROH 7907  14.028   0.215   9.801  0.1600  0.0361  0.1227
  526ERGO    R1 7908  13.928   0.324   9.561  0.0531 -0.1173  0.0955
  526ERGO    R2 7909  14.084   0.472   9.388 -0.1112  0.0813  0.1108
  526ERGO    R3 7910  13.998   0.291   9.205  0.1631 -0.0552  0.1112
  526ERGO    R4 7911  14.055   0.533   9.049 -0.0290 -0.0279  0.0836
  526ERGO    R5 7912  13.868   0.421   9.050  0.0902 -0.2291  0.0248
  526ERGO    C1 7913  13.957   0.399   8.680  0.2764 -0.2196  0.0682
  526ERGO    C2 7914  14.185   0.552   8.508  0.0480 -0.0719  0.1074
  527ERGO   ROH 7915   5.680   7.582  10.112  0.0567  0.1489  0.0818
  527ERGO    R1 7916   5.528   7.478   9.897  0.0095 -0.1247  0.2420
  527ERGO    R2 7917   5.570   7.555   9.634 -0.3699 -0.0840  0.1899
  527ERGO    R3 7918   5.595   7.288   9.594  0.0251 -0.0554  0.2011
  527ERGO    R4 7919   5.633   7.407   9.329 -0.0783 -0.0022  0.2066
  527ERGO    R5 7920   5.491   7.250   9.381  0.1295 -0.2089  0.1741
  527ERGO    C1 7921   5.693   7.070   9.112  0.4624  0.0722  0.2269
  527ERGO    C2 7922   5.674   7.105   8.784 -0.1138  0.1509 -0.0058
  528ERGO   ROH 7923  14.728  13.926  10.015 -0.1853  0.1726 -0.0271
  528ERGO    R1 7924  14.861  14.018   9.784 -0.0452  0.1061  0.0248
  528ERGO    R2 7925  14.759  13.984   9.529  0.0535  0.1315 -0.0231
  528ERGO    R3 7926  14.792  14.254   9.515  0.1648  0.1167 -0.0203
  528ERGO    R4 7927  14.743  14.170   9.238 -0.0016  0.1579 -0.0019
  528ERGO    R5 7928  14.912  14.288   9.310  0.0826  0.0784 -0.0732
  528ERGO    C1 7929  14.765  14.531   9.055  0.0708  0.1594  0.0129
  528ERGO    C2 7930  14.854  14.750   8.726 -0.0480  0.2300  0.2004
  529ERGO   ROH 7931   8.552   0.992  10.475  0.1700  0.0737  0.0246
  529ERGO    R1 7932   8.507   1.099  10.217  0.0669  0.1192  0.0617
  529ERGO    R2 7933   8.709   1.209  10.064  0.0390 -0.0197 -0.0712
  529ERGO    R3 7934   8.622   1.031   9.879 -0.2187  0.0543 -0.0261
  529ERGO    R4 7935   8.763   1.236   9.724  0.2382 -0.2629 -0.0616
  529ERGO    R5 7936   8.559   1.166   9.691  0.1103  0.0992 -0.1134
  529ERGO    C1 7937   8.713   1.083   9.352  0.1124 -0.3349 -0.0137
  529ERGO    C2 7938   8.634   1.064   9.103 -0.3192 -0.2872  0.1926
  530ERGO   ROH 7939   8.489   9.150   9.855 -0.0886  0.1463  0.1201
  530ERGO    R1 7940   8.323   9.003   9.679 -0.0209  0.0453  0.1398
  530ERGO    R2 7941   8.162   9.124   9.490 -0.0801 -0.0540  0.1237
  530ERGO    R3 7942   8.293   8.959   9.319 -0.0015 -0.0145  0.1459
  530ERGO    R4 7943   8.057   9.049   9.169  0.0226 -0.0537  0.0900
  530ERGO    R5 7944   8.119   8.842   9.203  0.0551 -0.0419  0.0905
  530ERGO    C1 7945   8.120   8.850   8.822  0.1562 -0.0164  0.0912
  530ERGO    C2 7946   8.100   8.856   8.524  0.0172  0.0962 -0.0207
  531ERGO   ROH 7947  13.377  17.532  10.067 -0.1135 -0.1144 -0.0757
  531ERGO    R1 7948  13.325  17.456   9.799 -0.0705 -0.1060 -0.0869
  531ERGO    R2 7949  13.207  17.628   9.616 -0.1278 -0.1304 -0.0760
  531ERGO    R3 7950  13.427  17.568   9.468 -0.0955 -0.0297 -0.0686
  531ERGO    R4 7951  13.234  17.669   9.274 -0.1339 -0.1241 -0.0754
  531ERGO    R5 7952  13.340  17.480   9.264 -0.0459 -0.0730 -0.0695
  531ERGO    C1 7953  13.456  17.637   8.936 -0.1071 -0.0257 -0.0680
  531ERGO    C2 7954  13.595  17.570   8.590  0.0303  0.1956  0.1263
  532ERGO   ROH 7955   3.665   4.173  10.147 -0.4019 -0.2371  0.0562
  532ERGO    R1 7956   3.584   4.174   9.876 -0.2463 -0.0280  0.0073
  532ERGO    R2 7957   3.607   4.397   9.714  0.0258  0.0428  0.1351
  532ERGO    R3 7958   3.742   4.226   9.553 -0.0167  0.0185  0.1259
  532ERGO    R4 7959   3.676   4.454   9.380  0.0422  0.0412  0.1385
  532ERGO    R5 7960   3.632   4.244   9.341 -0.0095  0.0563  0.1270
  532ERGO    C1 7961   3.843   4.325   9.034  0.0119  0.0174  0.1318
  532ERGO    C2 7962   4.067   4.354   8.683  0.2826  0.1612  0.0886
  533ERGO   ROH 7963   8.468  12.668  10.445  0.1568  0.3106  0.0485
  533ERGO    R1 7964   8.440  12.703  10.166  0.0736  0.2129  0.0443
  533ERGO    R2 7965   8.193  12.730  10.044  0.0365  0.1447  0.1048
  533ERGO    R3 7966   8.303  12.957   9.944 -0.0168  0.1228 -0.0044
  533ERGO    R4 7967   8.183  12.825   9.711 -0.1047  0.0508  0.0813
  533ERGO    R5 7968   8.390  12.893   9.730 -0.1007  0.0676 -0.0221
  533ERGO    C1 7969   8.281  13.093   9.424 -0.2369 -0.0244 -0.0350
  533ERGO    C2 7970   8.373  13.392   9.143 -0.3152  0.0350 -0.2350
  534ERGO   ROH 7971   4.396  14.927  10.389  0.3831 -0.2219  0.3632
  534ERGO    R1 7972   4.466  14.945  10.116  0.2878  0.0149  0.3530
  534ERGO    R2 7973   4.724  14.908  10.026  0.1978 -0.2240  0.2025
  534ERGO    R3 7974   4.607  14.724   9.863 -0.1156  0.1249  0.0158
  534ERGO    R4 7975   4.855  14.799   9.725  0.2555 -0.4411  0.3036
  534ERGO    R5 7976   4.653  14.802   9.642  0.3282  0.1079  0.0854
  534ERGO    C1 7977   4.820  14.562   9.397 -0.0052 -0.2400  0.1872
  534ERGO    C2 7978   4.960  14.462   9.071 -0.1358 -0.4545  0.0860
  535ERGO   ROH 7979  11.639   4.612  10.016  0.0908  0.1108 -0.2088
  535ERGO    R1 7980  11.800   4.462   9.838  0.0941  0.0470 -0.1526
  535ERGO    R2 7981  11.693   4.297   9.644  0.0973 -0.0102 -0.1069
  535ERGO    R3 7982  11.849   4.445   9.478  0.1131 -0.0687 -0.1444
  535ERGO    R4 7983  11.781   4.207   9.322 -0.0368 -0.0278 -0.1391
  535ERGO    R5 7984  11.981   4.283   9.360  0.0078 -0.1181 -0.1940
  535ERGO    C1 7985  11.979   4.294   8.979 -0.0999 -0.0929 -0.1930
  535ERGO    C2 7986  11.944   4.361   8.636  0.1038  0.1027 -0.1744
  536ERGO   ROH 7987   1.989   3.981  10.084 -0.0706  0.0959 -0.0612
  536ERGO    R1 7988   1.987   4.167   9.870 -0.1314  0.0240 -0.1243
  536ERGO    R2 7989   2.218   4.249   9.742 -0.1380  0.1905 -0.0347
  536ERGO    R3 7990   2.085   4.168   9.520  0.0462 -0.0069 -0.0756
  536ERGO    R4 7991   2.341   4.273   9.420  0.0268  0.1335  0.0229
  536ERGO    R5 7992   2.141   4.332   9.354  0.0199 -0.0407 -0.1173
  536ERGO    C1 7993   2.287   4.211   9.023  0.2956 -0.0851  0.0181
  536ERGO    C2 7994   2.403   4.218   8.766  0.1578  0.0830  0.0035
  537ERGO   ROH 7995   2.598   8.723   9.701  0.1591 -0.2317 -0.1521
  537ERGO    R1 7996   2.572   8.638   9.432  0.0660 -0.0953 -0.1873
  537ERGO    R2 7997   2.408   8.767   9.250  0.0654  0.0477 -0.0882
  537ERGO    R3 7998   2.636   8.779   9.103  0.0353  0.0403 -0.1356
  537ERGO    R4 7999   2.422   8.853   8.916 -0.0108 -0.0605 -0.1198
  537ERGO    R5 8000   2.572   8.697   8.887  0.0110 -0.0422 -0.0962
  537ERGO    C1 8001   2.644   8.915   8.583 -0.0835 -0.1303 -0.1829
  537ERGO    C2 8002   2.657   9.207   8.514  0.0890 -0.2553 -0.0191
  538ERGO   ROH 8003   0.163  13.218   9.818  0.0974 -0.0394 -0.1698
  538ERGO    R1 8004   0.032  13.125   9.585  0.0092 -0.0286 -0.1261
  538ERGO    R2 8005  -0.197  13.244   9.486 -0.0173 -0.0055 -0.0526
  538ERGO    R3 8006  -0.051  13.259   9.257 -0.0874 -0.0201 -0.0971
  538ERGO    R4 8007  -0.329  13.258   9.167 -0.1042 -0.2275 -0.0270
  538ERGO    R5 8008  -0.171  13.124   9.100 -0.0443 -0.1599 -0.0064
  538ERGO    C1 8009  -0.269  13.281   8.767 -0.2208 -0.3704 -0.0540
  538ERGO    C2 8010  -0.138  13.456   8.455 -0.2232 -0.0264  0.0549
  539ERGO   ROH 8011   1.816  17.654  10.202  0.1621 -0.1094  0.0056
  539ERGO    R1 8012   1.739  17.675   9.931  0.1624  0.0965  0.0166
  539ERGO    R2 8013   1.902  17.788   9.738  0.2912 -0.0112  0.0408
  539ERGO    R3 8014   1.862  17.551   9.611 -0.0034  0.0793 -0.0367
  539ERGO    R4 8015   1.899  17.745   9.395 -0.1449  0.1391  0.0215
  539ERGO    R5 8016   1.732  17.608   9.418 -0.1923  0.2397  0.1462
  539ERGO    C1 8017   1.860  17.497   9.076 -0.6755  0.3118 -0.0626
  539ERGO    C2 8018   2.084  17.541   8.705  0.0724  0.0637 -0.7309
  540ERGO   ROH 8019   5.957  10.590  10.101  0.1411  0.1672 -0.0615
  540ERGO    R1 8020   5.874  10.610   9.831  0.0612  0.2106 -0.0346
  540ERGO    R2 8021   6.031  10.726   9.636  0.1280 -0.0105 -0.1189
  540ERGO    R3 8022   5.993  10.489   9.509 -0.2000  0.0049 -0.0560
  540ERGO    R4 8023   6.080  10.673   9.298 -0.0888 -0.1387 -0.1315
  540ERGO    R5 8024   5.900  10.549   9.297 -0.2299  0.0643 -0.0243
  540ERGO    C1 8025   6.072  10.419   8.982 -0.5229 -0.1987 -0.0798
  540ERGO    C2 8026   6.196  10.458   8.711 -0.1802  0.2547 -0.0810
  541ERGO   ROH 8027  16.305   4.822   9.750 -0.0077  0.1649  0.2522
  541ERGO    R1 8028  16.195   4.985   9.547  0.2003  0.2409  0.1976
  541ERGO    R2 8029  16.351   5.117   9.361  0.3688 -0.1514  0.0474
  541ERGO    R3 8030  16.191   4.989   9.183  0.0584  0.0168  0.1952
  541ERGO    R4 8031  16.347   5.179   9.021  0.3090 -0.3319  0.0147
  541ERGO    R5 8032  16.129   5.159   9.026  0.2710  0.0399  0.1338
  541ERGO    C1 8033  16.194   5.094   8.656 -0.0173 -0.2790  0.1343
  541ERGO    C2 8034  16.413   5.259   8.442  0.1268 -0.1710 -0.1085
  542ERGO   ROH 8035  11.598   2.362  10.143  0.1241 -0.3430  0.0182
  542ERGO    R1 8036  11.515   2.263   9.892  0.1461 -0.1916 -0.0500
  542ERGO    R2 8037  11.267   2.320   9.784  0.0462 -0.3455  0.0860
  542ERGO    R3 8038  11.415   2.405   9.572 -0.1054  0.0134  0.1177
  542ERGO    R4 8039  11.170   2.296   9.453 -0.0275 -0.1072  0.0882
  542ERGO    R5 8040  11.375   2.241   9.402  0.0076  0.1465 -0.0349
  542ERGO    C1 8041  11.253   2.361   9.061 -0.2128  0.3684  0.1191
  542ERGO    C2 8042  11.027   2.183   8.676 -0.3215  0.0638  0.0710
  543ERGO   ROH 8043  14.925   5.504  10.136 -0.1767  0.1437 -0.0271
  543ERGO    R1 8044  15.055   5.561   9.891 -0.1603  0.0680 -0.0356
  543ERGO    R2 8045  15.031   5.400   9.668 -0.1550  0.0070  0.0112
  543ERGO    R3 8046  14.956   5.632   9.548 -0.1357 -0.0240 -0.0630
  543ERGO    R4 8047  14.989   5.441   9.328 -0.1372 -0.0991 -0.0046
  543ERGO    R5 8048  15.083   5.638   9.345 -0.1242 -0.0968 -0.0606
  543ERGO    C1 8049  14.894   5.683   9.017 -0.1086 -0.1900 -0.0837
  543ERGO    C2 8050  14.721   5.612   8.740  0.0168  0.0351  0.1808
  544ERGO   ROH 8051   7.916  10.473   9.725 -0.0972  0.0046  0.0787
  544ERGO    R1 8052   7.948  10.563   9.459 -0.1031  0.0071  0.0775
  544ERGO    R2 8053   8.144  10.465   9.291  0.0011  0.1237  0.1197
  544ERGO    R3 8054   7.933  10.416   9.126  0.0629 -0.0308  0.0878
  544ERGO    R4 8055   8.167  10.424   8.949  0.0560  0.3048  0.1018
  544ERGO    R5 8056   7.983  10.540   8.928 -0.0670  0.1124  0.1477
  544ERGO    C1 8057   7.983  10.354   8.595  0.1459  0.2652  0.0616
  544ERGO    C2 8058   8.206  10.090   8.409  0.0971 -0.1939 -0.2845
  545ERGO   ROH 8059   0.817  12.299  10.032  0.1787 -0.1665 -0.1035
  545ERGO    R1 8060   0.838  12.477   9.813 -0.0915 -0.1918 -0.1527
  545ERGO    R2 8061   1.077  12.525   9.682 -0.1235  0.2620 -0.0532
  545ERGO    R3 8062   0.934  12.456   9.462  0.1201 -0.1142 -0.1025
  545ERGO    R4 8063   1.168  12.598   9.357 -0.1664  0.4607 -0.0229
  545ERGO    R5 8064   0.959  12.642   9.314 -0.2756 -0.0512 -0.1066
  545ERGO    C1 8065   1.087  12.574   8.961  0.0372  0.2232 -0.0516
  545ERGO    C2 8066   1.242  12.658   8.679 -0.2055  0.0962 -0.1133
  546ERGO   ROH 8067  16.361  15.744  10.167 -0.1240 -0.0064 -0.0058
  546ERGO    R1 8068  16.296  15.798   9.897 -0.0610  0.0857 -0.0024
  546ERGO    R2 8069  16.413  16.003   9.754  0.1606 -0.0248  0.0193
  546ERGO    R3 8070  16.473  15.804   9.579 -0.0456 -0.0742  0.0014
  546ERGO    R4 8071  16.484  16.050   9.419  0.1502 -0.0726  0.0100
  546ERGO    R5 8072  16.367  15.871   9.375 -0.0199  0.0313  0.0203
  546ERGO    C1 8073  16.581  15.890   9.059 -0.0495 -0.1465 -0.0120
  546ERGO    C2 8074  16.702  15.900   8.707 -0.0484  0.0462  0.0214
  547ERGO   ROH 8075  16.348   0.284   9.937  0.2718 -0.1314  0.1522
  547ERGO    R1 8076  16.468   0.133   9.730  0.0989 -0.3534  0.2104
  547ERGO    R2 8077  16.356  -0.099   9.631 -0.2897 -0.1481  0.1489
  547ERGO    R3 8078  16.379   0.029   9.392  0.0728 -0.1779  0.1625
  547ERGO    R4 8079  16.295  -0.243   9.323 -0.2284 -0.0708  0.1002
  547ERGO    R5 8080  16.468  -0.137   9.244 -0.0220 -0.2970  0.2381
  547ERGO    C1 8081  16.281  -0.207   8.919  0.1474 -0.0537  0.0847
  547ERGO    C2 8082  16.192  -0.117   8.606  0.2590 -0.1116  0.0889
  548ERGO   ROH 8083   5.379   0.116  10.475 -0.2358  0.0679 -0.2162
  548ERGO    R1 8084   5.280  -0.011  10.242 -0.1551  0.0200 -0.2223
  548ERGO    R2 8085   5.150   0.128  10.041  0.0611 -0.0020 -0.3608
  548ERGO    R3 8086   5.339   0.010   9.884  0.0869 -0.1840 -0.2016
  548ERGO    R4 8087   5.103   0.032   9.712  0.1615 -0.1200 -0.3436
  548ERGO    R5 8088   5.217  -0.149   9.753  0.0467 -0.1811 -0.1907
  548ERGO    C1 8089   5.252  -0.134   9.374  0.2442 -0.3598 -0.1840
  548ERGO    C2 8090   5.370  -0.066   9.134 -0.1284  0.0382  0.0470
  549ERGO   ROH 8091   9.626  16.943  10.113 -0.1005 -0.0068  0.1045
  549ERGO    R1 8092   9.525  16.800   9.891 -0.1115  0.0264  0.0880
  549ERGO    R2 8093   9.332  16.604   9.915 -0.1454  0.0578  0.0618
  549ERGO    R3 8094   9.202  16.755   9.729 -0.1099  0.0916  0.0648
  549ERGO    R4 8095   9.110  16.481   9.680 -0.0663  0.0887 -0.0292
  549ERGO    R5 8096   9.197  16.617   9.533 -0.0391  0.1374  0.0280
  549ERGO    C1 8097   8.859  16.551   9.369  0.0131  0.1388 -0.0796
  549ERGO    C2 8098   8.507  16.415   9.209  0.3849 -0.0559  0.3246
  550ERGO   ROH 8099  10.776   1.997  10.014 -0.1632 -0.2636  0.1705
  550ERGO    R1 8100  10.843   2.128   9.772  0.0007 -0.2544  0.2186
  550ERGO    R2 8101  10.833   2.002   9.526 -0.0104 -0.1946  0.1847
  550ERGO    R3 8102  10.673   2.212   9.461  0.1507 -0.0711  0.1852
  550ERGO    R4 8103  10.805   2.139   9.210  0.1425 -0.1263  0.2008
  550ERGO    R5 8104  10.800   2.337   9.301  0.2664 -0.1375  0.2272
  550ERGO    C1 8105  10.639   2.416   8.965  0.3828  0.0295  0.2107
  550ERGO    C2 8106  10.431   2.378   8.617 -0.4737 -0.2002  0.1059
  551ERGO   ROH 8107   3.538  11.839   9.893  0.2056  0.0715  0.2083
  551ERGO    R1 8108   3.558  11.726   9.634  0.2059 -0.1606  0.3062
  551ERGO    R2 8109   3.577  11.881   9.406 -0.2720 -0.3474  0.1222
  551ERGO    R3 8110   3.799  11.730   9.361 -0.0142  0.0230  0.1107
  551ERGO    R4 8111   3.738  11.851   9.101 -0.3511 -0.2352  0.0690
  551ERGO    R5 8112   3.766  11.638   9.143  0.0508 -0.1651  0.1805
  551ERGO    C1 8113   4.040  11.691   8.883 -0.1551  0.1778  0.0273
  551ERGO    C2 8114   4.178  11.902   8.650  0.3084  0.2650 -0.1638
  552ERGO   ROH 8115   4.271  10.025  10.346  0.2078 -0.0064 -0.0524
  552ERGO    R1 8116   4.431   9.992  10.115  0.0939 -0.1347 -0.1131
  552ERGO    R2 8117   4.364   9.817   9.911 -0.2060  0.0341 -0.1576
  552ERGO    R3 8118   4.391  10.039   9.756  0.0497  0.0589 -0.0854
  552ERGO    R4 8119   4.455   9.816   9.577 -0.1281  0.0349 -0.1375
  552ERGO    R5 8120   4.578   9.992   9.615  0.0421 -0.0914 -0.0546
  552ERGO    C1 8121   4.533  10.024   9.238  0.1574  0.0587 -0.0580
  552ERGO    C2 8122   4.586   9.900   8.917 -0.1795  0.0170 -0.1115
  553ERGO   ROH 8123  12.226   1.508  10.281  0.2158 -0.2526  0.0191
  553ERGO    R1 8124  12.270   1.405  10.021  0.2467 -0.0457 -0.0597
  553ERGO    R2 8125  12.109   1.470   9.806  0.1108 -0.0794  0.0288
  553ERGO    R3 8126  12.345   1.542   9.692  0.0047  0.2413 -0.0000
  553ERGO    R4 8127  12.165   1.500   9.466  0.0895 -0.2301  0.0118
  553ERGO    R5 8128  12.360   1.408   9.495  0.2482  0.1188  0.0977
  553ERGO    C1 8129  12.419   1.584   9.161 -0.0225 -0.0168 -0.0250
  553ERGO    C2 8130  12.537   1.668   8.864  0.2047 -0.1906 -0.1727
  554ERGO   ROH 8131  15.963  10.204   9.525 -0.1160 -0.0011  0.0757
  554ERGO    R1 8132  16.068  10.167   9.265 -0.0346 -0.0186  0.1104
  554ERGO    R2 8133  16.034   9.932   9.123  0.0212 -0.0341  0.1196
  554ERGO    R3 8134  15.934  10.100   8.933  0.0690 -0.0550  0.0762
  554ERGO    R4 8135  15.953   9.839   8.800 -0.0870 -0.1112  0.1686
  554ERGO    R5 8136  16.038  10.027   8.730 -0.0070 -0.1808  0.0831
  554ERGO    C1 8137  15.813   9.941   8.434 -0.1051 -0.1759  0.1562
  554ERGO    C2 8138  15.594   9.849   8.209 -0.0789 -0.1362  0.3702
  555ERGO   ROH 8139   2.603  12.240   9.827  0.0217  0.0458  0.1295
  555ERGO    R1 8140   2.606  12.113   9.574  0.1171  0.0924  0.1064
  555ERGO    R2 8141   2.394  11.963   9.480  0.2549 -0.1158  0.1113
  555ERGO    R3 8142   2.411  12.130   9.267  0.0503 -0.0538  0.1412
  555ERGO    R4 8143   2.259  11.901   9.168  0.2344 -0.1612  0.1292
  555ERGO    R5 8144   2.439  11.985   9.079  0.1332  0.0176  0.1025
  555ERGO    C1 8145   2.197  12.022   8.786  0.0304 -0.1295  0.1677
  555ERGO    C2 8146   2.166  11.988   8.408 -0.2149 -0.0458 -0.0372
  556ERGO   ROH 8147  12.570  11.366   9.845 -0.0769 -0.2276  0.0971
  556ERGO    R1 8148  12.422  11.362   9.604 -0.1092 -0.2744  0.1179
  556ERGO    R2 8149  12.507  11.493   9.376 -0.1976 -0.2246  0.1169
  556ERGO    R3 8150  12.476  11.248   9.263 -0.1108 -0.2288  0.1012
  556ERGO    R4 8151  12.475  11.435   9.036 -0.4718 -0.1761  0.1320
  556ERGO    R5 8152  12.324  11.284   9.082 -0.3153 -0.3081  0.2500
  556ERGO    C1 8153  12.428  11.170   8.733 -0.5500 -0.1517  0.1259
  556ERGO    C2 8154  12.347  11.146   8.431  0.2161 -0.2332  0.1233
  557ERGO   ROH 8155   0.698   9.327   9.823  0.1203  0.0141  0.0229
  557ERGO    R1 8156   0.821   9.322   9.568  0.0471  0.0747 -0.0145
  557ERGO    R2 8157   0.873   9.087   9.432  0.1206  0.0981 -0.0309
  557ERGO    R3 8158   0.733   9.209   9.234  0.0004  0.0325  0.0128
  557ERGO    R4 8159   0.901   9.014   9.095  0.0505  0.1209 -0.0418
  557ERGO    R5 8160   0.888   9.227   9.053 -0.0665  0.1128 -0.0348
  557ERGO    C1 8161   0.785   9.086   8.713 -0.1030  0.0725 -0.0071
  557ERGO    C2 8162   0.798   9.008   8.431 -0.1615 -0.1105 -0.2255
  558ERGO   ROH 8163   2.468   1.385  10.193 -0.1416  0.1793  0.0684
  558ERGO    R1 8164   2.335   1.396   9.943  0.0022  0.0078 -0.0165
  558ERGO    R2 8165   2.461   1.477   9.711  0.1050 -0.0502  0.0246
  558ERGO    R3 8166   2.372   1.238   9.617  0.2584 -0.1300  0.0743
  558ERGO    R4 8167   2.427   1.398   9.377 -0.0339 -0.0621  0.0397
  558ERGO    R5 8168   2.240   1.296   9.425  0.0818 -0.2348  0.1566
  558ERGO    C1 8169   2.324   1.128   9.093  0.0292 -0.1439  0.0952
  558ERGO    C2 8170   2.234   0.951   8.834  0.0899 -0.1220 -0.2610
  559ERGO   ROH 8171  13.802  16.228   9.889  0.1907 -0.2527  0.0345
  559ERGO    R1 8172  13.817  16.147   9.618  0.0879 -0.2307  0.0206
  559ERGO    R2 8173  13.659  15.945   9.514  0.0174 -0.1971  0.0515
  559ERGO    R3 8174  13.593  16.136   9.332 -0.0099 -0.1655  0.0957
  559ERGO    R4 8175  13.605  15.887   9.178  0.2469 -0.0853 -0.0060
  559ERGO    R5 8176  13.711  16.073   9.134  0.1435  0.0037  0.1342
  559ERGO    C1 8177  13.511  16.032   8.811  0.3548  0.0094  0.0021
  559ERGO    C2 8178  13.250  16.022   8.526 -0.0657 -0.1393 -0.0139
  560ERGO   ROH 8179   2.528   6.274  10.417 -0.1024  0.2543 -0.0308
  560ERGO    R1 8180   2.624   6.322  10.155 -0.1886  0.0933 -0.0929
  560ERGO    R2 8181   2.664   6.119   9.972 -0.1562 -0.0305  0.0517
  560ERGO    R3 8182   2.502   6.271   9.816 -0.2558 -0.2129 -0.0266
  560ERGO    R4 8183   2.658   6.110   9.627 -0.1886 -0.2519  0.0561
  560ERGO    R5 8184   2.638   6.327   9.627 -0.3042 -0.2591 -0.0772
  560ERGO    C1 8185   2.503   6.249   9.279 -0.3011 -0.5521 -0.0148
  560ERGO    C2 8186   2.615   6.154   9.042  0.0611 -0.0910  0.1106
  561ERGO   ROH 8187  12.310  14.668   9.781  0.0775 -0.0982  0.0804
  561ERGO    R1 8188  12.124  14.644   9.569  0.0095 -0.1311  0.1432
  561ERGO    R2 8189  12.132  14.804   9.345 -0.1456 -0.0737  0.1775
  561ERGO    R3 8190  12.136  14.566   9.214 -0.0870 -0.0411  0.1197
  561ERGO    R4 8191  12.109  14.767   9.002 -0.2500 -0.0009  0.1762
  561ERGO    R5 8192  11.980  14.594   9.034 -0.1634 -0.0659  0.1812
  561ERGO    C1 8193  12.100  14.522   8.679 -0.2558  0.0720  0.1211
  561ERGO    C2 8194  12.181  14.660   8.350 -0.1754 -0.1721  0.2396
  562ERGO   ROH 8195   1.789   7.581   9.636 -0.0476 -0.0422  0.0643
  562ERGO    R1 8196   1.834   7.397   9.425 -0.2399 -0.2249  0.1774
  562ERGO    R2 8197   1.641   7.220   9.338 -0.5778  0.2012  0.0200
  562ERGO    R3 8198   1.693   7.333   9.096 -0.0267  0.0124  0.0358
  562ERGO    R4 8199   1.561   7.080   9.032 -0.2807  0.1623 -0.0426
  562ERGO    R5 8200   1.753   7.149   8.955 -0.0521 -0.1438  0.2253
  562ERGO    C1 8201   1.563   7.105   8.627  0.4096 -0.0376 -0.0645
  562ERGO    C2 8202   1.408   7.327   8.308 -0.0200 -0.1086  0.1005
  563ERGO   ROH 8203   4.568  11.206  10.138 -0.0376 -0.0577 -0.0024
  563ERGO    R1 8204   4.667  11.068   9.911 -0.1055 -0.1868  0.0461
  563ERGO    R2 8205   4.505  10.996   9.699 -0.0783  0.1260 -0.0819
  563ERGO    R3 8206   4.692  11.131   9.553  0.2617 -0.1619  0.0710
  563ERGO    R4 8207   4.559  10.956   9.360 -0.1956  0.3696 -0.1318
  563ERGO    R5 8208   4.773  10.969   9.397 -0.1434 -0.2035 -0.1130
  563ERGO    C1 8209   4.764  11.059   9.026  0.0552  0.2412 -0.0174
  563ERGO    C2 8210   4.731  11.000   8.723 -0.2427  0.1242 -0.0858
  564ERGO   ROH 8211   5.699  13.769  10.274  0.1231 -0.0577  0.0319
  564ERGO    R1 8212   5.844  13.814  10.035  0.0537 -0.0592 -0.0102
  564ERGO    R2 8213   5.933  13.608   9.873 -0.0401 -0.0567 -0.0609
  564ERGO    R3 8214   5.799  13.745   9.681 -0.0744 -0.0092 -0.0048
  564ERGO    R4 8215   6.002  13.592   9.535 -0.1150  0.0014 -0.0800
  564ERGO    R5 8216   5.968  13.807   9.523 -0.1025  0.0088 -0.0308
  564ERGO    C1 8217   5.916  13.711   9.157 -0.1907  0.0798 -0.0382
  564ERGO    C2 8218   5.823  13.859   8.769 -0.3103 -0.0207 -0.0957
  565ERGO   ROH 8219   9.037   0.213  10.277 -0.1766 -0.1598 -0.0420
  565ERGO    R1 8220   8.915   0.110  10.044 -0.3073  0.1348 -0.1097
  565ERGO    R2 8221   8.870   0.264   9.819  0.2097  0.2553 -0.1479
  565ERGO    R3 8222   9.008   0.066   9.695 -0.2047 -0.1082 -0.0527
  565ERGO    R4 8223   8.842   0.184   9.484  0.2824  0.3740 -0.1822
  565ERGO    R5 8224   8.852  -0.027   9.538 -0.3275  0.3268 -0.1988
  565ERGO    C1 8225   8.956  -0.049   9.172 -0.0643  0.1019 -0.1129
  565ERGO    C2 8226   8.878   0.112   8.944 -0.0935 -0.1861  0.0952
  566ERGO   ROH 8227   1.689  10.204   9.688 -0.1092 -0.0651  0.2815
  566ERGO    R1 8228   1.692  10.146   9.411 -0.0201 -0.0165  0.2727
  566ERGO    R2 8229   1.544   9.942   9.299  0.0704 -0.0406  0.2000
  566ERGO    R3 8230   1.451  10.140   9.138  0.0527 -0.0421  0.2076
  566ERGO    R4 8231   1.375   9.891   9.002  0.1787 -0.0464  0.1386
  566ERGO    R5 8232   1.487  10.058   8.916  0.1501  0.0087  0.2028
  566ERGO    C1 8233   1.190  10.048   8.677  0.2251 -0.0511  0.1099
  566ERGO    C2 8234   1.022  10.149   8.488  0.1165 -0.1327  0.1031
  567ERGO   ROH 8235  17.937  17.292  10.065  0.2208  0.0333  0.0402
  567ERGO    R1 8236  17.998  17.336   9.792  0.1685 -0.1010  0.0089
  567ERGO    R2 8237  18.152  17.162   9.643 -0.1406 -0.3399 -0.0180
  567ERGO    R3 8238  17.937  17.165   9.476 -0.2019 -0.0732  0.0569
  567ERGO    R4 8239  18.167  17.119   9.301 -0.2860 -0.2381 -0.0408
  567ERGO    R5 8240  18.017  17.276   9.279 -0.1514 -0.0743  0.0661
  567ERGO    C1 8241  17.975  17.098   8.944 -0.4281  0.0714  0.0162
  567ERGO    C2 8242  18.137  16.889   8.558  0.1439 -0.1137 -0.0533
  568ERGO   ROH 8243   7.461  11.265   9.929 -0.2577  0.3792  0.2150
  568ERGO    R1 8244   7.458  11.228   9.649 -0.0947  0.2084  0.2336
  568ERGO    R2 8245   7.273  11.352   9.484 -0.0719  0.0174  0.0637
  568ERGO    R3 8246   7.495  11.439   9.354 -0.0489  0.0499  0.1236
  568ERGO    R4 8247   7.300  11.387   9.142  0.0865 -0.2130  0.0503
  568ERGO    R5 8248   7.502  11.307   9.154  0.1298 -0.0931  0.2179
  568ERGO    C1 8249   7.525  11.489   8.820  0.2003 -0.3165  0.0986
  568ERGO    C2 8250   7.454  11.680   8.597  0.0242  0.0329 -0.0824
  569ERGO   ROH 8251   0.641  11.112   9.632 -0.0188  0.0308  0.0059
  569ERGO    R1 8252   0.489  11.126   9.393  0.0418  0.1611 -0.0287
  569ERGO    R2 8253   0.534  11.318   9.198  0.2300  0.1489 -0.0169
  569ERGO    R3 8254   0.556  11.101   9.037  0.1097  0.1350 -0.0100
  569ERGO    R4 8255   0.635  11.325   8.868  0.0959  0.0716 -0.0586
  569ERGO    R5 8256   0.483  11.178   8.822  0.0512  0.1180  0.0165
  569ERGO    C1 8257   0.715  11.126   8.524 -0.0950  0.0135 -0.0766
  569ERGO    C2 8258   0.849  11.145   8.230  0.2045 -0.3397 -0.1835
  570ERGO   ROH 8259  17.527  16.959   9.981 -0.0161 -0.2552 -0.0290
  570ERGO    R1 8260  17.627  17.002   9.720  0.1171 -0.2175  0.0256
  570ERGO    R2 8261  17.639  16.802   9.530  0.0530 -0.1544 -0.0568
  570ERGO    R3 8262  17.498  16.979   9.381  0.2299  0.0067 -0.0322
  570ERGO    R4 8263  17.648  16.820   9.185  0.0487 -0.1240 -0.0537
  570ERGO    R5 8264  17.647  17.037   9.202  0.2750 -0.1280 -0.0331
  570ERGO    C1 8265  17.521  16.997   8.844  0.2120  0.0450 -0.0289
  570ERGO    C2 8266  17.549  16.968   8.480 -0.3493 -0.0483 -0.1702
  571ERGO   ROH 8267   4.825   1.976  10.098 -0.1920  0.1484  0.0117
  571ERGO    R1 8268   4.823   1.873   9.834  0.0383  0.1594  0.0032
  571ERGO    R2 8269   4.590   1.841   9.689  0.1106 -0.2536 -0.0395
  571ERGO    R3 8270   4.723   1.991   9.505 -0.1251  0.0056 -0.0027
  571ERGO    R4 8271   4.511   1.858   9.353  0.0768 -0.2754 -0.0323
  571ERGO    R5 8272   4.724   1.857   9.307  0.0782  0.0658 -0.0410
  571ERGO    C1 8273   4.589   2.009   8.985 -0.1642 -0.0447  0.0064
  571ERGO    C2 8274   4.356   2.091   8.703 -0.0839  0.0058 -0.0011
  572ERGO   ROH 8275   2.803   9.630   9.938  0.0029  0.2531  0.0468
  572ERGO    R1 8276   2.986   9.707   9.735 -0.0405  0.3044  0.0265
  572ERGO    R2 8277   3.002   9.576   9.492  0.1723  0.1168  0.1354
  572ERGO    R3 8278   2.965   9.825   9.392 -0.1084 -0.0054 -0.0790
  572ERGO    R4 8279   3.103   9.680   9.178  0.1335 -0.0074  0.0810
  572ERGO    R5 8280   3.164   9.870   9.266 -0.1264  0.1411 -0.0539
  572ERGO    C1 8281   3.126   9.975   8.902 -0.1525 -0.1945 -0.1520
  572ERGO    C2 8282   3.213  10.014   8.700 -0.0327 -0.2734  0.1602
  573ERGO   ROH 8283   6.299   2.677  10.245  0.3472  0.1288  0.0060
  573ERGO    R1 8284   6.114   2.628  10.036  0.2388 -0.0028  0.1302
  573ERGO    R2 8285   6.107   2.779   9.805 -0.0642  0.0313  0.1573
  573ERGO    R3 8286   6.131   2.537   9.684  0.0680  0.0715  0.1020
  573ERGO    R4 8287   6.024   2.715   9.476 -0.3319 -0.0060  0.2299
  573ERGO    R5 8288   5.939   2.524   9.540 -0.0687 -0.1068  0.2926
  573ERGO    C1 8289   5.998   2.451   9.170 -0.3636  0.0100  0.2202
  573ERGO    C2 8290   6.043   2.504   8.875  0.0328 -0.0754  0.1336
  574ERGO   ROH 8291   4.903   3.758  10.337 -0.1300 -0.2306  0.0209
  574ERGO    R1 8292   4.804   3.743  10.072 -0.1693 -0.2621  0.0375
  574ERGO    R2 8293   4.969   3.713   9.852 -0.1722  0.0777 -0.0147
  574ERGO    R3 8294   4.810   3.499   9.801  0.1291 -0.1410 -0.0690
  574ERGO    R4 8295   4.926   3.567   9.542 -0.1183  0.2237 -0.0919
  574ERGO    R5 8296   4.715   3.545   9.587 -0.0644 -0.1371  0.0155
  574ERGO    C1 8297   4.751   3.282   9.314  0.1959  0.1033 -0.1878
  574ERGO    C2 8298   4.602   3.077   9.091  0.1246 -0.2818  0.1944
  575ERGO   ROH 8299  17.274  13.178   9.801 -0.1952 -0.2462  0.0498
  575ERGO    R1 8300  17.252  13.117   9.525 -0.1099 -0.1953  0.0318
  575ERGO    R2 8301  17.070  13.242   9.358 -0.1183 -0.2269  0.0172
  575ERGO    R3 8302  17.292  13.296   9.211 -0.1045 -0.1134  0.0794
  575ERGO    R4 8303  17.094  13.207   9.015 -0.0431 -0.0820  0.0068
  575ERGO    R5 8304  17.295  13.128   9.042 -0.0303 -0.0433  0.0114
  575ERGO    C1 8305  17.317  13.238   8.678  0.0137  0.1090  0.0591
  575ERGO    C2 8306  17.436  13.373   8.341  0.2957 -0.1012 -0.1769
  576ERGO   ROH 8307   6.687   8.214  10.386 -0.0370 -0.0205 -0.1081
  576ERGO    R1 8308   6.638   8.278  10.115  0.0415 -0.0432 -0.1270
  576ERGO    R2 8309   6.603   8.538  10.026 -0.0481 -0.0623 -0.1439
  576ERGO    R3 8310   6.803   8.472   9.855  0.0487  0.0354 -0.0612
  576ERGO    R4 8311   6.693   8.720   9.747 -0.1376 -0.1139 -0.2073
  576ERGO    R5 8312   6.720   8.533   9.639  0.0516 -0.1369 -0.1099
  576ERGO    C1 8313   6.934   8.764   9.423 -0.0989 -0.0520 -0.1666
  576ERGO    C2 8314   7.074   8.838   9.161  0.1952 -0.0147  0.0567
  577ERGO   ROH 8315   7.520   2.716   9.893 -0.2865  0.1549 -0.0046
  577ERGO    R1 8316   7.498   2.501   9.709 -0.0111  0.1222 -0.0033
  577ERGO    R2 8317   7.257   2.424   9.598  0.0667 -0.2538  0.0738
  577ERGO    R3 8318   7.391   2.458   9.364 -0.0603 -0.0341  0.0307
  577ERGO    R4 8319   7.145   2.318   9.289  0.0533 -0.2637  0.0820
  577ERGO    R5 8320   7.348   2.257   9.241  0.0993 -0.0371 -0.0207
  577ERGO    C1 8321   7.205   2.288   8.889 -0.0737 -0.0632  0.0465
  577ERGO    C2 8322   7.383   2.291   8.621  0.2056  0.1298  0.3502
  578ERGO   ROH 8323  15.886   1.113  10.117  0.1969  0.0707  0.2495
  578ERGO    R1 8324  15.753   1.167   9.873  0.0927 -0.0266  0.2848
  578ERGO    R2 8325  15.731   1.421   9.769 -0.0284 -0.0588  0.2382
  578ERGO    R3 8326  15.841   1.306   9.549 -0.0699 -0.0677  0.2208
  578ERGO    R4 8327  15.608   1.453   9.447  0.0225  0.0987  0.2327
  578ERGO    R5 8328  15.653   1.242   9.415 -0.0968  0.0768  0.1834
  578ERGO    C1 8329  15.640   1.363   9.053  0.0132  0.1821  0.2133
  578ERGO    C2 8330  15.376   1.469   8.793  0.2739  0.1862 -0.2590
  579ERGO   ROH 8331   9.644   8.426   9.962 -0.3476 -0.0387  0.0549
  579ERGO    R1 8332   9.648   8.504   9.690 -0.0327  0.0036  0.0669
  579ERGO    R2 8333   9.883   8.550   9.551  0.1474 -0.3205  0.2432
  579ERGO    R3 8334   9.778   8.368   9.378 -0.0021 -0.1421  0.1444
  579ERGO    R4 8335   9.941   8.543   9.210  0.3101 -0.3251  0.2698
  579ERGO    R5 8336   9.731   8.494   9.180  0.2642 -0.0414  0.1481
  579ERGO    C1 8337   9.875   8.369   8.850  0.2645 -0.1603  0.1927
  579ERGO    C2 8338   9.939   8.215   8.645  0.2550  0.0790  0.0236
  580ERGO   ROH 8339  15.917   6.063  10.022 -0.0100  0.0041 -0.0847
  580ERGO    R1 8340  15.983   6.161   9.765 -0.1793  0.1307 -0.0813
  580ERGO    R2 8341  16.094   6.001   9.569  0.0716  0.3200 -0.0950
  580ERGO    R3 8342  15.884   6.091   9.422 -0.0852 -0.0073 -0.0821
  580ERGO    R4 8343  16.066   5.973   9.225  0.0871  0.2554 -0.0917
  580ERGO    R5 8344  15.983   6.174   9.220 -0.2243  0.1356 -0.0962
  580ERGO    C1 8345  15.853   6.042   8.887 -0.0512 -0.0894 -0.0777
  580ERGO    C2 8346  15.710   5.962   8.552  0.3839  0.0179  0.3556
  581ERGO   ROH 8347   0.612   0.512  10.250  0.1828  0.2810  0.1075
  581ERGO    R1 8348   0.738   0.546   9.999  0.1025 -0.0526  0.0177
  581ERGO    R2 8349   0.764   0.339   9.817 -0.4439 -0.1679  0.0522
  581ERGO    R3 8350   0.643   0.515   9.649 -0.1843  0.0488  0.0851
  581ERGO    R4 8351   0.762   0.316   9.472 -0.2727  0.0454  0.0340
  581ERGO    R5 8352   0.790   0.531   9.461 -0.0637  0.0261  0.1781
  581ERGO    C1 8353   0.646   0.467   9.114  0.0707  0.3730  0.0542
  581ERGO    C2 8354   0.735   0.565   8.758 -0.3049  0.0716 -0.1366
  582ERGO   ROH 8355   0.098   1.535   9.977  0.1493  0.1102 -0.0192
  582ERGO    R1 8356   0.267   1.648   9.780  0.1915 -0.0675 -0.0866
  582ERGO    R2 8357   0.426   1.493   9.614 -0.1622 -0.2494 -0.2694
  582ERGO    R3 8358   0.299   1.632   9.418 -0.0898  0.0402 -0.1179
  582ERGO    R4 8359   0.514   1.488   9.280 -0.3067 -0.1017 -0.3110
  582ERGO    R5 8360   0.474   1.702   9.271 -0.0709 -0.0486 -0.1365
  582ERGO    C1 8361   0.446   1.614   8.901 -0.3230  0.2561 -0.1930
  582ERGO    C2 8362   0.500   1.412   8.627  0.4217  0.0979 -0.1986
  583ERGO   ROH 8363  15.511   3.659  10.016 -0.1937 -0.0459  0.0582
  583ERGO    R1 8364  15.555   3.592   9.745 -0.1349 -0.0221  0.0613
  583ERGO    R2 8365  15.801   3.505   9.651 -0.1067  0.0139  0.0997
  583ERGO    R3 8366  15.655   3.295   9.559 -0.0634  0.0030  0.0587
  583ERGO    R4 8367  15.904   3.287   9.405 -0.0205  0.0354  0.1178
  583ERGO    R5 8368  15.702   3.289   9.324 -0.0035  0.0175  0.0689
  583ERGO    C1 8369  15.828   2.962   9.174  0.0703  0.0376  0.0899
  583ERGO    C2 8370  15.875   2.821   8.913 -0.1379  0.3759  0.1202
  584ERGO   ROH 8371   5.792   3.673  10.307 -0.0267 -0.1771  0.1366
  584ERGO    R1 8372   5.921   3.625  10.060  0.1685 -0.1030  0.2220
  584ERGO    R2 8373   5.805   3.686   9.817  0.1690 -0.4334  0.1327
  584ERGO    R3 8374   6.036   3.824   9.779 -0.0382 -0.0638  0.1635
  584ERGO    R4 8375   5.937   3.768   9.509  0.1900 -0.4156  0.1464
  584ERGO    R5 8376   6.135   3.722   9.586  0.2362 -0.0295  0.2822
  584ERGO    C1 8377   6.232   3.945   9.293  0.0078 -0.0584  0.1833
  584ERGO    C2 8378   6.173   4.114   8.997  0.0821  0.4037  0.1329
  585ERGO   ROH 8379  17.475  15.948   9.919  0.1321  0.0751 -0.1786
  585ERGO    R1 8380  17.587  15.874   9.670  0.0779  0.0710 -0.2030
  585ERGO    R2 8381  17.522  15.639   9.541  0.1825 -0.0202 -0.1014
  585ERGO    R3 8382  17.464  15.806   9.334 -0.0212 -0.1216 -0.1277
  585ERGO    R4 8383  17.528  15.548   9.208  0.1205 -0.1027 -0.0795
  585ERGO    R5 8384  17.619  15.741   9.162 -0.0426 -0.0509 -0.1692
  585ERGO    C1 8385  17.477  15.650   8.820 -0.1068 -0.2460 -0.0915
  585ERGO    C2 8386  17.388  15.574   8.560 -0.1740  0.0633 -0.0258
  586ERGO   ROH 8387   7.061  14.483  10.399  0.2565 -0.0958 -0.0433
  586ERGO    R1 8388   7.091  14.656  10.178 -0.0262 -0.0862 -0.0772
  586ERGO    R2 8389   7.322  14.664  10.025 -0.0169  0.2924 -0.0456
  586ERGO    R3 8390   7.149  14.620   9.820  0.0834 -0.0624 -0.0632
  586ERGO    R4 8391   7.384  14.741   9.694 -0.0194  0.1248 -0.0875
  586ERGO    R5 8392   7.178  14.809   9.676 -0.1007 -0.1276 -0.1934
  586ERGO    C1 8393   7.257  14.746   9.309  0.0733 -0.3059 -0.1281
  586ERGO    C2 8394   7.458  14.672   9.025 -0.2270 -0.0124 -0.1796
  587ERGO   ROH 8395   6.195   0.830  10.102  0.2536 -0.1332  0.0453
  587ERGO    R1 8396   6.160   0.689   9.858 -0.0208 -0.0595  0.0367
  587ERGO    R2 8397   5.926   0.699   9.712 -0.0371  0.3483  0.0664
  587ERGO    R3 8398   6.093   0.774   9.511  0.0691  0.0903  0.0574
  587ERGO    R4 8399   5.902   0.592   9.385 -0.0100  0.1398  0.1328
  587ERGO    R5 8400   6.119   0.577   9.379 -0.0260 -0.0138  0.2015
  587ERGO    C1 8401   6.045   0.599   9.005  0.1054 -0.2237  0.1630
  587ERGO    C2 8402   5.903   0.590   8.574  0.0503  0.2362  0.0765
  588ERGO   ROH 8403   3.213  12.954  10.037 -0.4591  0.0731  0.0075
  588ERGO    R1 8404   3.139  12.952   9.764 -0.1163  0.1731 -0.0938
  588ERGO    R2 8405   3.282  13.088   9.570  0.2154  0.1377  0.1019
  588ERGO    R3 8406   3.289  12.844   9.450  0.2273  0.1534  0.0757
  588ERGO    R4 8407   3.417  13.024   9.258  0.0360  0.1969  0.0126
  588ERGO    R5 8408   3.250  12.889   9.219  0.0670  0.1476  0.1088
  588ERGO    C1 8409   3.502  12.758   8.965 -0.0572  0.2461 -0.0640
  588ERGO    C2 8410   3.598  12.753   8.631  0.0544  0.1480 -0.3364
  589ERGO   ROH 8411  11.012   6.169   9.886 -0.0898 -0.1584  0.0598
  589ERGO    R1 8412  11.095   6.244   9.625 -0.1620 -0.0166  0.0764
  589ERGO    R2 8413  11.216   6.066   9.451  0.0044  0.1375  0.0323
  589ERGO    R3 8414  11.016   6.145   9.284 -0.0730 -0.0100  0.0533
  589ERGO    R4 8415  11.217   6.025   9.108 -0.0550  0.0323  0.0442
  589ERGO    R5 8416  11.129   6.223   9.089 -0.1556 -0.0150  0.0028
  589ERGO    C1 8417  11.030   6.075   8.751 -0.1624 -0.1674  0.0709
  589ERGO    C2 8418  10.860   5.866   8.448 -0.1601 -0.1556  0.0626
  590ERGO   ROH 8419   3.903   3.774  10.342 -0.2344 -0.0530  0.0037
  590ERGO    R1 8420   3.984   3.803  10.072 -0.1248  0.0148  0.0433
  590ERGO    R2 8421   3.931   3.612   9.879  0.0332  0.0217 -0.0071
  590ERGO    R3 8422   3.820   3.822   9.748  0.0127 -0.0023 -0.0282
  590ERGO    R4 8423   3.951   3.664   9.538 -0.1150 -0.1033 -0.0359
  590ERGO    R5 8424   3.980   3.876   9.577 -0.0543 -0.0937 -0.1227
  590ERGO    C1 8425   3.859   3.892   9.216 -0.2205 -0.1986 -0.0726
  590ERGO    C2 8426   3.933   3.869   8.852 -0.1826  0.2066 -0.2558
  591ERGO   ROH 8427  14.448   7.162  10.294 -0.0184 -0.0891  0.0094
  591ERGO    R1 8428  14.660   7.069  10.131  0.0128 -0.1146  0.0646
  591ERGO    R2 8429  14.620   6.967   9.878  0.0585 -0.1753  0.0799
  591ERGO    R3 8430  14.804   7.155   9.808  0.0585 -0.1796  0.0680
  591ERGO    R4 8431  14.805   6.963   9.586 -0.0597 -0.0990  0.0029
  591ERGO    R5 8432  14.978   7.031   9.701 -0.0037 -0.1656 -0.0466
  591ERGO    C1 8433  15.085   7.138   9.351 -0.1285 -0.0586 -0.0533
  591ERGO    C2 8434  15.241   7.299   9.081  0.2531 -0.2203 -0.0193
  592ERGO   ROH 8435   0.381   2.754  10.030 -0.1197 -0.0933 -0.0266
  592ERGO    R1 8436   0.341   2.663   9.766  0.0102 -0.0839 -0.0504
  592ERGO    R2 8437   0.186   2.799   9.583 -0.1352 -0.2221 -0.0345
  592ERGO    R3 8438   0.410   2.785   9.430 -0.1005  0.0719 -0.0171
  592ERGO    R4 8439   0.188   2.777   9.238 -0.0868 -0.4597 -0.0201
  592ERGO    R5 8440   0.352   2.633   9.254  0.1735 -0.1597  0.0855
  592ERGO    C1 8441   0.399   2.750   8.893 -0.0261 -0.3220  0.0047
  592ERGO    C2 8442   0.359   2.777   8.524  0.0663 -0.2133 -0.0275
  593ERGO   ROH 8443   7.940   2.940   9.899 -0.2216 -0.0114  0.1048
  593ERGO    R1 8444   7.791   3.002   9.667 -0.1859 -0.1014  0.0565
  593ERGO    R2 8445   7.882   2.946   9.412 -0.1070 -0.1205  0.0868
  593ERGO    R3 8446   7.643   2.817   9.390 -0.0607 -0.1997  0.0546
  593ERGO    R4 8447   7.723   2.874   9.113 -0.1261 -0.0126  0.0714
  593ERGO    R5 8448   7.533   2.927   9.207 -0.1317 -0.1379  0.1333
  593ERGO    C1 8449   7.407   2.711   8.919 -0.0938 -0.0242  0.0322
  593ERGO    C2 8450   7.451   2.756   8.587 -0.2188 -0.1777  0.0897
  594ERGO   ROH 8451   3.259  11.447   9.766  0.1566  0.1396  0.0101
  594ERGO    R1 8452   3.192  11.401   9.495  0.0634  0.1932  0.0226
  594ERGO    R2 8453   3.186  11.604   9.307  0.1044  0.2153  0.0390
  594ERGO    R3 8454   3.356  11.440   9.172 -0.0031  0.1491 -0.0152
  594ERGO    R4 8455   3.317  11.671   8.995  0.0173  0.1459 -0.0121
  594ERGO    R5 8456   3.288  11.461   8.943 -0.0751  0.1577  0.0103
  594ERGO    C1 8457   3.552  11.557   8.686 -0.1343  0.0433 -0.0928
  594ERGO    C2 8458   3.729  11.735   8.497 -0.0089 -0.4517 -0.1767
  595ERGO   ROH 8459  16.856   1.364   9.809 -0.1048  0.2229 -0.1102
  595ERGO    R1 8460  16.991   1.302   9.568  0.1044  0.2166  0.0063
  595ERGO    R2 8461  16.861   1.281   9.325  0.2519 -0.1525 -0.0488
  595ERGO    R3 8462  17.047   1.464   9.247  0.0449  0.0441 -0.0921
  595ERGO    R4 8463  16.971   1.326   9.001  0.1488 -0.0498 -0.0706
  595ERGO    R5 8464  17.173   1.352   9.078  0.1359  0.1702 -0.1081
  595ERGO    C1 8465  17.210   1.523   8.739 -0.1056  0.1946 -0.1239
  595ERGO    C2 8466  17.247   1.599   8.412  0.1454 -0.2274 -0.2125
  596ERGO   ROH 8467  16.125  12.184   9.773 -0.1683 -0.0802  0.1868
  596ERGO    R1 8468  15.986  12.138   9.531 -0.1319 -0.0052  0.1524
  596ERGO    R2 8469  16.065  12.250   9.291 -0.1029  0.0763  0.2038
  596ERGO    R3 8470  16.062  11.992   9.206 -0.0831  0.1046  0.1125
  596ERGO    R4 8471  16.209  12.137   8.998  0.0691  0.1650  0.2520
  596ERGO    R5 8472  16.036  12.008   8.969  0.0672  0.1941  0.0980
  596ERGO    C1 8473  16.290  11.829   8.748  0.1881  0.2432  0.1945
  596ERGO    C2 8474  16.457  11.436   8.679  0.0772 -0.0913 -0.3095
  597ERGO   ROH 8475   4.968   8.654  10.027  0.0701 -0.4595  0.0255
  597ERGO    R1 8476   5.008   8.796   9.786  0.1190 -0.2291  0.1647
  597ERGO    R2 8477   5.250   8.800   9.654  0.0797 -0.3244  0.0749
  597ERGO    R3 8478   5.101   8.715   9.443 -0.0907  0.0519  0.0398
  597ERGO    R4 8479   5.341   8.836   9.322  0.1558 -0.4022  0.0880
  597ERGO    R5 8480   5.133   8.885   9.277  0.2596  0.0405  0.0967
  597ERGO    C1 8481   5.253   8.777   8.931  0.0402 -0.0942  0.0626
  597ERGO    C2 8482   5.174   8.752   8.605 -0.1815  0.2912  0.0478
  598ERGO   ROH 8483   8.141  15.470  10.464 -0.1105  0.1609 -0.1666
  598ERGO    R1 8484   8.093  15.404  10.193 -0.2420  0.0554 -0.1176
  598ERGO    R2 8485   7.855  15.462  10.066 -0.1744  0.3185 -0.1173
  598ERGO    R3 8486   8.018  15.584   9.886 -0.0217 -0.0316 -0.2267
  598ERGO    R4 8487   7.784  15.499   9.729 -0.4375  0.6350 -0.0335
  598ERGO    R5 8488   7.994  15.454   9.686 -0.5763  0.0945 -0.2639
  598ERGO    C1 8489   7.896  15.635   9.364 -0.4473  0.4909 -0.0873
  598ERGO    C2 8490   7.958  15.741   9.081  0.0382  0.1735 -0.1667
  599ERGO   ROH 8491   0.559   3.880  10.341  0.0757 -0.0921 -0.1365
  599ERGO    R1 8492   0.552   3.762  10.084  0.0149  0.0099 -0.1823
  599ERGO    R2 8493   0.321   3.659   9.974 -0.0151  0.0721 -0.1771
  599ERGO    R3 8494   0.383   3.826   9.768 -0.0433  0.1481 -0.1240
  599ERGO    R4 8495   0.184   3.642   9.657 -0.0137  0.1468 -0.1817
  599ERGO    R5 8496   0.381   3.685   9.574 -0.0197  0.2069 -0.1685
  599ERGO    C1 8497   0.162   3.789   9.279 -0.0393  0.2615 -0.1346
  599ERGO    C2 8498   0.091   3.890   9.002  0.1714  0.0935  0.0585
  600ERGO   ROH 8499   4.897  12.719  10.061 -0.0354 -0.2282  0.0916
  600ERGO    R1 8500   4.872  12.580   9.816 -0.0184 -0.0773  0.0027
  600ERGO    R2 8501   4.750  12.691   9.594  0.0568  0.0863  0.0393
  600ERGO    R3 8502   4.985  12.627   9.473  0.0677  0.0987  0.0541
  600ERGO    R4 8503   4.808  12.709   9.254  0.0912  0.1191  0.0469
  600ERGO    R5 8504   4.920  12.522   9.268  0.0890  0.1194  0.0382
  600ERGO    C1 8505   5.063  12.659   8.942  0.1214  0.1496  0.0652
  600ERGO    C2 8506   5.241  12.596   8.716  0.1653  0.0247  0.0902
  601ERGO   ROH 8507   6.368  10.756   9.999  0.0749 -0.0096  0.0578
  601ERGO    R1 8508   6.527  10.683   9.776  0.0380 -0.0134  0.0322
  601ERGO    R2 8509   6.432  10.526   9.570 -0.0379  0.0908 -0.0157
  601ERGO    R3 8510   6.516  10.733   9.416  0.0509  0.1023  0.0480
  601ERGO    R4 8511   6.530  10.499   9.240  0.1673  0.1185  0.0418
  601ERGO    R5 8512   6.691  10.640   9.282  0.1361  0.1193  0.1490
  601ERGO    C1 8513   6.667  10.678   8.903  0.3702  0.1454  0.1350
  601ERGO    C2 8514   6.698  10.540   8.626 -0.1379 -0.0760 -0.0454
  602ERGO   ROH 8515   6.240   6.475  10.134 -0.0285  0.1521 -0.0428
  602ERGO    R1 8516   6.230   6.292   9.918  0.0484  0.1708 -0.0611
  602ERGO    R2 8517   6.051   6.316   9.710  0.0605  0.1337 -0.0698
  602ERGO    R3 8518   6.276   6.306   9.558  0.0742  0.2174 -0.0575
  602ERGO    R4 8519   6.056   6.248   9.371  0.1101 -0.0466 -0.0343
  602ERGO    R5 8520   6.235   6.127   9.404  0.2042  0.0986  0.0377
  602ERGO    C1 8521   6.271   6.198   9.031  0.1519 -0.0729 -0.0022
  602ERGO    C2 8522   6.409   6.116   8.708  0.0223 -0.0684 -0.2163
  603ERGO   ROH 8523  16.598  14.600   9.887 -0.1917 -0.0620  0.0781
  603ERGO    R1 8524  16.526  14.697   9.631 -0.1481 -0.0574  0.0685
  603ERGO    R2 8525  16.664  14.899   9.504 -0.1419 -0.0427  0.1082
  603ERGO    R3 8526  16.681  14.718   9.302 -0.0855 -0.0284  0.0983
  603ERGO    R4 8527  16.760  14.972   9.180  0.1667 -0.0509  0.1932
  603ERGO    R5 8528  16.604  14.836   9.109  0.1393  0.0468  0.0489
  603ERGO    C1 8529  16.831  14.844   8.802  0.3993 -0.0422  0.2335
  603ERGO    C2 8530  17.037  14.703   8.463  0.0429  0.1333 -0.1885
  604ERGO   ROH 8531   2.142  11.663   9.787 -0.1425 -0.1208  0.1940
  604ERGO    R1 8532   1.935  11.473   9.821 -0.1314 -0.1576  0.0561
  604ERGO    R2 8533   1.722  11.454   9.646 -0.0826 -0.1013 -0.0058
  604ERGO    R3 8534   1.799  11.194   9.631 -0.0561 -0.0888 -0.1031
  604ERGO    R4 8535   1.539  11.202   9.496 -0.2611 -0.1369  0.2619
  604ERGO    R5 8536   1.596  11.069   9.659 -0.0027 -0.1214  0.1935
  604ERGO    C1 8537   1.506  10.811   9.394 -0.3402 -0.1459  0.3263
  604ERGO    C2 8538   1.293  10.642   9.296 -0.2002 -0.0680 -0.0125
  605ERGO   ROH 8539  11.086  16.375  10.085 -0.1664  0.1299  0.1711
  605ERGO    R1 8540  10.872  16.259   9.940 -0.0780  0.0446  0.1113
  605ERGO    R2 8541  10.912  16.099   9.717  0.0550 -0.0422  0.2071
  605ERGO    R3 8542  10.760  15.923   9.858 -0.0044 -0.0034  0.1964
  605ERGO    R4 8543  10.711  15.854   9.578  0.3710 -0.2989  0.1869
  605ERGO    R5 8544  10.560  15.898   9.728  0.1583 -0.2448 -0.0272
  605ERGO    C1 8545  10.452  15.546   9.630  0.4991 -0.4120  0.1650
  605ERGO    C2 8546  10.332  15.221   9.668  0.1529  0.2928  0.1793
  606ERGO   ROH 8547   9.921  10.439   9.807  0.1842 -0.3415 -0.0553
  606ERGO    R1 8548  10.034  10.579   9.589  0.0020 -0.3109 -0.1334
  606ERGO    R2 8549  10.266  10.727   9.611 -0.1758  0.0063 -0.2140
  606ERGO    R3 8550  10.346  10.572   9.403  0.0132 -0.0145 -0.1264
  606ERGO    R4 8551  10.445  10.840   9.338 -0.0776 -0.0031 -0.1532
  606ERGO    R5 8552  10.322  10.713   9.211  0.0576 -0.0921 -0.1812
  606ERGO    C1 8553  10.624  10.761   8.983  0.1571 -0.0281 -0.0354
  606ERGO    C2 8554  10.953  10.929   8.983 -0.3229  0.0930 -0.0497
  607ERGO   ROH 8555  15.828  17.255   9.886  0.2308  0.0709 -0.1767
  607ERGO    R1 8556  15.685  17.184   9.653  0.1613  0.0176 -0.1196
  607ERGO    R2 8557  15.521  17.361   9.519  0.0024 -0.0524 -0.0316
  607ERGO    R3 8558  15.674  17.292   9.305 -0.0517  0.0494 -0.1027
  607ERGO    R4 8559  15.414  17.366   9.190 -0.1120 -0.0242  0.0063
  607ERGO    R5 8560  15.523  17.179   9.158 -0.0581  0.0269 -0.0723
  607ERGO    C1 8561  15.496  17.305   8.798 -0.2293  0.0878 -0.0383
  607ERGO    C2 8562  15.445  17.441   8.460 -0.0552  0.1445 -0.1136
  608ERGO   ROH 8563   3.410  14.749  10.336 -0.2087  0.1205 -0.0037
  608ERGO    R1 8564   3.378  14.847  10.073  0.0268  0.1839 -0.0119
  608ERGO    R2 8565   3.585  14.961   9.930  0.2110  0.0248  0.1195
  608ERGO    R3 8566   3.517  14.774   9.744  0.1537  0.1049  0.0594
  608ERGO    R4 8567   3.707  14.950   9.607  0.1956  0.0953  0.1113
  608ERGO    R5 8568   3.507  14.896   9.538  0.1802  0.1734  0.0999
  608ERGO    C1 8569   3.714  14.768   9.244  0.1328  0.2116  0.0501
  608ERGO    C2 8570   3.761  14.723   8.889  0.1956  0.2799 -0.0083
  609ERGO   ROH 8571   9.874   0.404   9.803  0.0553  0.2176  0.0288
  609ERGO    R1 8572   9.769   0.435   9.542  0.0015  0.1663  0.0460
  609ERGO    R2 8573   9.703   0.681   9.437  0.1879  0.1624 -0.0641
  609ERGO    R3 8574   9.868   0.604   9.235  0.0527 -0.0900 -0.0843
  609ERGO    R4 8575   9.652   0.753   9.103  0.2209  0.2078 -0.0605
  609ERGO    R5 8576   9.719   0.551   9.055 -0.0644  0.0974 -0.0539
  609ERGO    C1 8577   9.777   0.723   8.719  0.1130 -0.0027 -0.0775
  609ERGO    C2 8578   9.635   1.063   8.620  0.1604  0.0513  0.1999
  610ERGO   ROH 8579   1.566   8.622   9.866 -0.2060 -0.1755  0.0714
  610ERGO    R1 8580   1.601   8.484   9.621  0.0629 -0.0649  0.0452
  610ERGO    R2 8581   1.417   8.496   9.415  0.0787 -0.3131  0.0160
  610ERGO    R3 8582   1.633   8.574   9.270 -0.0128  0.0694  0.0713
  610ERGO    R4 8583   1.428   8.510   9.070  0.0947 -0.1396  0.0220
  610ERGO    R5 8584   1.631   8.430   9.078  0.2159  0.1484  0.0042
  610ERGO    C1 8585   1.638   8.590   8.732  0.0181  0.3206  0.0775
  610ERGO    C2 8586   1.575   8.491   8.383  0.2285 -0.1600 -0.2640
  611ERGO   ROH 8587  17.376   8.553   9.869 -0.0203 -0.1378  0.0806
  611ERGO    R1 8588  17.499   8.542   9.614  0.0518 -0.1171  0.1147
  611ERGO    R2 8589  17.745   8.422   9.572 -0.0068 -0.2458  0.1481
  611ERGO    R3 8590  17.607   8.282   9.384 -0.0301 -0.0974  0.0528
  611ERGO    R4 8591  17.829   8.406   9.238 -0.0252 -0.0072  0.1297
  611ERGO    R5 8592  17.617   8.420   9.188 -0.0287  0.0475  0.1515
  611ERGO    C1 8593  17.750   8.265   8.866 -0.0579  0.2711  0.0296
  611ERGO    C2 8594  17.908   8.183   8.614 -0.0987 -0.1389 -0.0689
  612ERGO   ROH 8595  14.027   9.375   9.912  0.1180  0.2478 -0.0224
  612ERGO    R1 8596  13.932   9.295   9.657  0.0335  0.2459  0.0105
  612ERGO    R2 8597  13.951   9.457   9.435  0.1914  0.1428 -0.0473
  612ERGO    R3 8598  14.075   9.240   9.327 -0.0281 -0.0239  0.0251
  612ERGO    R4 8599  13.928   9.363   9.103  0.1659  0.1137 -0.0381
  612ERGO    R5 8600  13.916   9.155   9.168 -0.0930  0.1325 -0.0014
  612ERGO    C1 8601  14.032   9.105   8.808 -0.0550 -0.0599  0.0349
  612ERGO    C2 8602  14.250   9.141   8.561 -0.1594  0.3031 -0.0019
  613ERGO   ROH 8603   7.880   9.965   9.691  0.0787 -0.3585  0.0070
  613ERGO    R1 8604   7.857  10.077   9.432  0.0067 -0.2253  0.0699
  613ERGO    R2 8605   8.037  10.022   9.229  0.0164 -0.0339  0.0212
  613ERGO    R3 8606   7.813   9.953   9.093  0.0342 -0.0606  0.0061
  613ERGO    R4 8607   8.031   9.910   8.902  0.0414 -0.0157  0.0145
  613ERGO    R5 8608   7.852  10.030   8.870  0.0278 -0.0438  0.0139
  613ERGO    C1 8609   7.816   9.780   8.584  0.0727 -0.0301 -0.0035
  613ERGO    C2 8610   8.014   9.575   8.366  0.1103 -0.1807 -0.0784
  614ERGO   ROH 8611  14.275   4.289  10.348  0.0152  0.3891  0.1220
  614ERGO    R1 8612  14.249   4.289  10.067  0.0623  0.2234  0.1159
  614ERGO    R2 8613  14.103   4.481   9.931  0.0161  0.0994 -0.0175
  614ERGO    R3 8614  14.335   4.514   9.793  0.0296  0.1036  0.0076
  614ERGO    R4 8615  14.128   4.494   9.586  0.0628  0.0568 -0.0153
  614ERGO    R5 8616  14.310   4.374   9.600  0.0703  0.0779  0.0234
  614ERGO    C1 8617  14.361   4.532   9.257  0.1025  0.0359  0.0098
  614ERGO    C2 8618  14.195   4.668   8.940  0.3259 -0.2142  0.0395
  615ERGO   ROH 8619   7.508   7.530  10.237 -0.1535  0.1321  0.0993
  615ERGO    R1 8620   7.407   7.533   9.973 -0.1183 -0.1245  0.0793
  615ERGO    R2 8621   7.179   7.396   9.899 -0.3747  0.1656  0.2916
  615ERGO    R3 8622   7.101   7.640   9.808  0.0905  0.1748 -0.1215
  615ERGO    R4 8623   7.010   7.450   9.602 -0.2628 -0.0007  0.1965
  615ERGO    R5 8624   7.134   7.628   9.571  0.0766 -0.2825 -0.1043
  615ERGO    C1 8625   6.839   7.711   9.344  0.2390 -0.0889 -0.2468
  615ERGO    C2 8626   6.824   7.799   8.986  0.1648 -0.0649  0.0463
  616ERGO   ROH 8627   5.320  16.574   9.986 -0.3937  0.0186 -0.0917
  616ERGO    R1 8628   5.379  16.544   9.710 -0.3250 -0.0330 -0.0719
  616ERGO    R2 8629   5.621  16.445   9.620 -0.1687  0.2678  0.0014
  616ERGO    R3 8630   5.462  16.270   9.486  0.0923 -0.0314  0.0711
  616ERGO    R4 8631   5.650  16.369   9.284 -0.1090  0.2413  0.0125
  616ERGO    R5 8632   5.433  16.370   9.270 -0.1182 -0.1248  0.0551
  616ERGO    C1 8633   5.517  16.160   8.962  0.1707 -0.0549  0.0846
  616ERGO    C2 8634   5.525  15.869   8.539  0.0773  0.0400 -0.4776
  617ERGO   ROH 8635  15.205   0.295  10.058  0.1926  0.1281 -0.0304
  617ERGO    R1 8636  15.065   0.320   9.813  0.0456 -0.1291  0.0228
  617ERGO    R2 8637  15.153   0.482   9.607 -0.3921  0.1424  0.0283
  617ERGO    R3 8638  15.133   0.253   9.462  0.0927  0.1183 -0.0157
  617ERGO    R4 8639  15.044   0.463   9.279 -0.4751 -0.0460  0.0662
  617ERGO    R5 8640  14.935   0.282   9.331 -0.0322 -0.3203  0.0659
  617ERGO    C1 8641  14.962   0.237   8.953 -0.0685 -0.1783  0.0469
  617ERGO    C2 8642  14.850   0.226   8.573  0.2562 -0.3186  0.1610
  618ERGO   ROH 8643   9.011   3.140  10.140 -0.1018  0.1619 -0.0157
  618ERGO    R1 8644   9.022   2.978   9.907  0.0320 -0.0052  0.1056
  618ERGO    R2 8645   8.963   2.708   9.911 -0.2047  0.0526  0.2270
  618ERGO    R3 8646   8.788   2.777   9.715  0.0810  0.0664 -0.0344
  618ERGO    R4 8647   8.916   2.532   9.617 -0.2180 -0.3097  0.4393
  618ERGO    R5 8648   8.901   2.721   9.511  0.1909 -0.4232  0.1395
  618ERGO    C1 8649   8.723   2.494   9.263  0.0425 -0.5077  0.3175
  618ERGO    C2 8650   8.654   2.312   9.146 -0.0957 -0.2183 -0.3211
  619ERGO   ROH 8651   9.636   4.695   9.989 -0.0634 -0.3567  0.0914
  619ERGO    R1 8652   9.609   4.741   9.711 -0.0623 -0.1845  0.1191
  619ERGO    R2 8653   9.794   4.651   9.527 -0.0435 -0.0377  0.0681
  619ERGO    R3 8654   9.576   4.537   9.411 -0.0210  0.0005 -0.0138
  619ERGO    R4 8655   9.780   4.539   9.201  0.0929 -0.1176  0.0887
  619ERGO    R5 8656   9.578   4.620   9.187  0.1227 -0.0566 -0.0365
  619ERGO    C1 8657   9.567   4.366   8.902  0.1937 -0.1283  0.0236
  619ERGO    C2 8658   9.510   4.065   8.625  0.0947  0.2322 -0.3041
  620ERGO   ROH 8659  10.974   5.230  10.070  0.0870  0.0222 -0.0396
  620ERGO    R1 8660  11.044   5.170   9.802  0.0062 -0.0398 -0.0468
  620ERGO    R2 8661  10.983   4.928   9.683 -0.1287 -0.0235 -0.0071
  620ERGO    R3 8662  10.868   5.088   9.494 -0.0924  0.0073 -0.0041
  620ERGO    R4 8663  11.006   4.879   9.341 -0.3044 -0.1409 -0.0039
  620ERGO    R5 8664  11.029   5.094   9.317 -0.1575 -0.1607 -0.0738
  620ERGO    C1 8665  10.912   4.999   8.966 -0.3726 -0.1805  0.0009
  620ERGO    C2 8666  10.871   4.965   8.648 -0.0247 -0.2604  0.0087
  621ERGO   ROH 8667  12.250   2.903  10.289  0.4302 -0.2388  0.1045
  621ERGO    R1 8668  12.376   2.890  10.035  0.2861 -0.0979  0.0234
  621ERGO    R2 8669  12.255   2.775   9.814  0.2194 -0.1127  0.0651
  621ERGO    R3 8670  12.309   3.016   9.701  0.0075 -0.0489  0.0954
  621ERGO    R4 8671  12.307   2.827   9.477  0.0278  0.0059  0.0528
  621ERGO    R5 8672  12.467   2.966   9.528 -0.0405  0.0985  0.0097
  621ERGO    C1 8673  12.388   3.084   9.174 -0.2828  0.1350  0.0741
  621ERGO    C2 8674  12.386   3.215   8.934 -0.1480  0.2120 -0.1138
  622ERGO   ROH 8675  15.716  12.407   9.793 -0.0555  0.2735  0.1110
  622ERGO    R1 8676  15.582  12.361   9.548  0.0354  0.1999  0.0745
  622ERGO    R2 8677  15.667  12.471   9.309  0.1461  0.0942  0.0662
  622ERGO    R3 8678  15.663  12.212   9.226  0.1397  0.0641  0.1622
  622ERGO    R4 8679  15.670  12.370   8.979 -0.1382 -0.0182  0.0957
  622ERGO    R5 8680  15.525  12.215   9.030 -0.0481 -0.0423  0.2888
  622ERGO    C1 8681  15.667  12.068   8.708 -0.3097 -0.1120  0.2030
  622ERGO    C2 8682  15.824  11.880   8.494  0.2869  0.0660  0.1625
  623ERGO   ROH 8683  17.276   3.615  10.106  0.1084  0.0226 -0.0222
  623ERGO    R1 8684  17.130   3.669   9.870  0.0625  0.0202  0.0056
  623ERGO    R2 8685  17.155   3.906   9.730 -0.0260  0.0525  0.0434
  623ERGO    R3 8686  17.207   3.740   9.521 -0.0025  0.1041  0.0081
  623ERGO    R4 8687  17.284   4.006   9.425  0.0197  0.1250  0.0865
  623ERGO    R5 8688  17.147   3.867   9.328  0.0290  0.1548  0.0320
  623ERGO    C1 8689  17.408   3.909   9.052  0.0686  0.2156  0.0783
  623ERGO    C2 8690  17.656   3.889   8.845 -0.0277  0.3177 -0.0720
  624ERGO   ROH 8691   2.616   4.580   9.924 -0.0128  0.0011  0.0023
  624ERGO    R1 8692   2.563   4.661   9.657  0.0516  0.0402  0.0010
  624ERGO    R2 8693   2.736   4.821   9.512  0.2013 -0.1307 -0.0151
  624ERGO    R3 8694   2.722   4.618   9.333 -0.0020 -0.1276 -0.0036
  624ERGO    R4 8695   2.747   4.858   9.169  0.2649 -0.1675 -0.0175
  624ERGO    R5 8696   2.593   4.707   9.152  0.1050 -0.0043 -0.0185
  624ERGO    C1 8697   2.739   4.689   8.800  0.1111 -0.1861 -0.0079
  624ERGO    C2 8698   2.966   4.487   8.565  0.3157 -0.0356  0.2641
  625ERGO   ROH 8699  16.145  13.259   9.735  0.0525 -0.1527  0.0434
  625ERGO    R1 8700  16.124  13.162   9.470 -0.0681 -0.0864  0.0268
  625ERGO    R2 8701  16.007  13.309   9.267 -0.0108  0.0470  0.0832
  625ERGO    R3 8702  16.244  13.263   9.141 -0.0540 -0.0957  0.0262
  625ERGO    R4 8703  16.051  13.301   8.924 -0.0593  0.1806  0.0733
  625ERGO    R5 8704  16.186  13.132   8.950 -0.1942  0.0438 -0.0319
  625ERGO    C1 8705  16.299  13.254   8.607 -0.1283  0.1244  0.0140
  625ERGO    C2 8706  16.387  13.208   8.340 -0.0232  0.1481  0.1099
  626ERGO   ROH 8707   0.105  12.033   9.748  0.1365 -0.0331  0.0849
  626ERGO    R1 8708   0.045  12.171   9.508  0.0445 -0.0380  0.1042
  626ERGO    R2 8709   0.227  12.196   9.302  0.0363  0.1264  0.1120
  626ERGO    R3 8710   0.026  12.090   9.154  0.1166  0.0006  0.0923
  626ERGO    R4 8711   0.211  12.202   8.957  0.2009 -0.1464  0.0964
  626ERGO    R5 8712  -0.002  12.243   8.973  0.1943 -0.1460 -0.0425
  626ERGO    C1 8713   0.012  12.106   8.617  0.3721 -0.4234  0.0687
  626ERGO    C2 8714   0.017  12.015   8.259 -0.0051  0.1193 -0.0329
  627ERGO   ROH 8715  14.175   3.170  10.081 -0.0048 -0.2735  0.0184
  627ERGO    R1 8716  14.190   3.216   9.802 -0.0704 -0.1864  0.0299
  627ERGO    R2 8717  14.430   3.254   9.670 -0.1138 -0.0236  0.0075
  627ERGO    R3 8718  14.339   3.050   9.514 -0.0269 -0.0250 -0.0435
  627ERGO    R4 8719  14.461   3.240   9.326 -0.1361  0.1037 -0.0009
  627ERGO    R5 8720  14.259   3.158   9.316 -0.1022  0.0016 -0.0042
  627ERGO    C1 8721  14.394   3.040   8.979 -0.0675  0.1764 -0.0537
  627ERGO    C2 8722  14.599   3.020   8.678  0.0457 -0.3329 -0.1033
  628ERGO   ROH 8723   8.180   0.679  10.364  0.0294  0.0113 -0.0155
  628ERGO    R1 8724   8.072   0.847  10.163  0.0260  0.0545  0.0219
  628ERGO    R2 8725   8.192   0.880   9.917  0.0357  0.1274  0.0347
  628ERGO    R3 8726   7.947   0.808   9.824  0.0463  0.1310  0.0056
  628ERGO    R4 8727   8.057   0.984   9.616  0.1395  0.0018 -0.0558
  628ERGO    R5 8728   7.864   1.005   9.716  0.1167  0.0934 -0.1189
  628ERGO    C1 8729   7.748   0.977   9.354  0.2098 -0.0680 -0.1360
  628ERGO    C2 8730   7.692   1.008   9.073  0.2638 -0.2749  0.0072
  629ERGO   ROH 8731  12.607   0.231  10.082 -0.1064  0.2226 -0.0608
  629ERGO    R1 8732  12.763   0.299   9.856 -0.0437  0.2214 -0.0179
  629ERGO    R2 8733  12.701   0.213   9.601  0.0768  0.1472 -0.0215
  629ERGO    R3 8734  12.712   0.479   9.543  0.0172  0.1381 -0.0767
  629ERGO    R4 8735  12.755   0.342   9.285  0.1221  0.0886 -0.0379
  629ERGO    R5 8736  12.884   0.494   9.375  0.0576  0.1465 -0.0370
  629ERGO    C1 8737  12.797   0.666   9.046  0.0925  0.0459 -0.0992
  629ERGO    C2 8738  12.727   0.710   8.639 -0.1331 -0.1804 -0.2732
  630ERGO   ROH 8739  10.005   2.759   9.889  0.0216  0.0671 -0.0988
  630ERGO    R1 8740   9.875   2.843   9.652 -0.0129  0.0691 -0.0792
  630ERGO    R2 8741  10.009   2.872   9.412 -0.0457  0.0835 -0.0948
  630ERGO    R3 8742   9.815   2.705   9.321 -0.0495  0.0781 -0.0769
  630ERGO    R4 8743   9.924   2.832   9.079 -0.1380  0.1560 -0.0803
  630ERGO    R5 8744   9.714   2.825   9.139 -0.1209  0.1111 -0.0177
  630ERGO    C1 8745   9.693   2.652   8.800 -0.1954  0.1931 -0.0550
  630ERGO    C2 8746   9.598   2.467   8.487  0.2189 -0.0210  0.2030
  631ERGO   ROH 8747   4.351   7.779   9.828  0.0887  0.0934 -0.0001
  631ERGO    R1 8748   4.278   7.871   9.570  0.0698 -0.0762 -0.0562
  631ERGO    R2 8749   4.376   8.106   9.463 -0.1175 -0.0274 -0.1246
  631ERGO    R3 8750   4.450   7.944   9.258  0.0844 -0.0449 -0.0405
  631ERGO    R4 8751   4.461   8.215   9.146  0.0995 -0.0646 -0.0808
  631ERGO    R5 8752   4.352   8.045   9.064  0.2079 -0.1069 -0.1356
  631ERGO    C1 8753   4.580   8.126   8.769  0.4156 -0.1027  0.0236
  631ERGO    C2 8754   4.663   8.173   8.367 -0.3934  0.1910 -0.0567
  632ERGO   ROH 8755   1.905  10.765   9.572 -0.0261 -0.1110 -0.0545
  632ERGO    R1 8756   2.004  10.915   9.353 -0.0694 -0.1400 -0.0938
  632ERGO    R2 8757   2.274  10.929   9.292 -0.0602  0.0401 -0.0083
  632ERGO    R3 8758   2.190  10.846   9.048  0.0886 -0.1447  0.0015
  632ERGO    R4 8759   2.400  11.042   8.991 -0.1621  0.1296 -0.0183
  632ERGO    R5 8760   2.197  11.042   8.912 -0.1565 -0.1676 -0.0517
  632ERGO    C1 8761   2.395  11.029   8.586 -0.0818  0.0082 -0.0151
  632ERGO    C2 8762   2.565  11.125   8.263  0.1449 -0.1004  0.0110
  633ERGO   ROH 8763   4.339  17.919  10.182  0.3372  0.0870 -0.2853
  633ERGO    R1 8764   4.331  17.693  10.011  0.0631 -0.0851 -0.0546
  633ERGO    R2 8765   4.145  17.489  10.042 -0.2231  0.1864  0.1290
  633ERGO    R3 8766   4.091  17.544   9.781 -0.1025 -0.0000  0.0638
  633ERGO    R4 8767   3.952  17.292   9.833 -0.0744  0.0165  0.1505
  633ERGO    R5 8768   4.094  17.331   9.673 -0.0059 -0.0638  0.2015
  633ERGO    C1 8769   3.790  17.229   9.467  0.1253 -0.2572  0.1018
  633ERGO    C2 8770   3.686  17.191   9.035 -0.4184  0.2260  0.0428
  634ERGO   ROH 8771  10.029   5.055   9.765  0.0923  0.3136 -0.0901
  634ERGO    R1 8772   9.933   5.070   9.499  0.1359  0.1816 -0.1142
  634ERGO    R2 8773  10.082   5.178   9.293  0.2072 -0.0070 -0.1635
  634ERGO    R3 8774  10.031   4.938   9.174  0.1319 -0.0640 -0.0179
  634ERGO    R4 8775   9.978   5.137   8.965 -0.1379 -0.1544 -0.0400
  634ERGO    R5 8776   9.842   4.980   9.033 -0.0321 -0.1602  0.1676
  634ERGO    C1 8777   9.870   4.888   8.664 -0.4096 -0.2938  0.1684
  634ERGO    C2 8778   9.870   5.024   8.297  0.2692  0.1141 -0.0836
  635ERGO   ROH 8779   7.727  17.756  10.265 -0.0184  0.1318 -0.0097
  635ERGO    R1 8780   7.803  17.717   9.995 -0.1818  0.0178 -0.0405
  635ERGO    R2 8781   7.633  17.770   9.784 -0.2291  0.1558  0.0328
  635ERGO    R3 8782   7.839  17.925   9.698 -0.1139 -0.0595 -0.0876
  635ERGO    R4 8783   7.682  17.870   9.456 -0.3882  0.1977  0.0209
  635ERGO    R5 8784   7.895  17.835   9.483 -0.4000 -0.0644 -0.1666
  635ERGO    C1 8785   7.904  18.073   9.185 -0.3727  0.0197 -0.0990
  635ERGO    C2 8786   8.003  18.150   8.843 -0.1957  0.0093  0.0996
  636ERGO   ROH 8787   7.482   7.066   9.957  0.0761  0.0417  0.0385
  636ERGO    R1 8788   7.487   7.064   9.674  0.1688 -0.1313  0.0415
  636ERGO    R2 8789   7.400   6.849   9.525  0.1213 -0.1765  0.1483
  636ERGO    R3 8790   7.243   7.036   9.405  0.2463 -0.1797 -0.0274
  636ERGO    R4 8791   7.367   6.888   9.183  0.2978 -0.3658  0.1064
  636ERGO    R5 8792   7.370   7.104   9.213  0.3695 -0.3407 -0.0133
  636ERGO    C1 8793   7.201   7.087   8.871  0.5180 -0.4789 -0.0829
  636ERGO    C2 8794   6.889   6.946   8.544 -0.2576  0.0602 -0.0278
  637ERGO   ROH 8795   7.191  13.086  10.190 -0.2470 -0.1083 -0.0354
  637ERGO    R1 8796   7.299  13.233   9.973 -0.1156 -0.0309  0.0806
  637ERGO    R2 8797   7.373  13.114   9.735  0.0221  0.0540  0.0764
  637ERGO    R3 8798   7.208  13.301   9.628  0.0875  0.0964  0.0511
  637ERGO    R4 8799   7.317  13.158   9.397 -0.1283 -0.1090  0.0791
  637ERGO    R5 8800   7.320  13.373   9.429  0.0279 -0.0934 -0.0510
  637ERGO    C1 8801   7.129  13.359   9.099 -0.1545 -0.1642  0.0570
  637ERGO    C2 8802   7.010  13.129   8.838  0.0397  0.1929  0.0067
  638ERGO   ROH 8803   6.173  11.681  10.310 -0.1450 -0.0270  0.0249
  638ERGO    R1 8804   6.189  11.742  10.034 -0.0574 -0.0609  0.0223
  638ERGO    R2 8805   6.423  11.716   9.889 -0.0448 -0.2054  0.0704
  638ERGO    R3 8806   6.268  11.561   9.727 -0.0995 -0.1326  0.0529
  638ERGO    R4 8807   6.458  11.691   9.546 -0.0915 -0.1249  0.0596
  638ERGO    R5 8808   6.241  11.692   9.528 -0.0964 -0.0741  0.0885
  638ERGO    C1 8809   6.333  11.532   9.195 -0.1701 -0.0096  0.0368
  638ERGO    C2 8810   6.425  11.514   8.873 -0.0360  0.0694  0.2382
  639ERGO   ROH 8811  17.815  10.035   9.797 -0.1837 -0.0152 -0.1630
  639ERGO    R1 8812  17.818  10.220   9.583 -0.1161 -0.0496 -0.1924
  639ERGO    R2 8813  18.042  10.265   9.428 -0.0854 -0.1204 -0.1696
  639ERGO    R3 8814  17.872  10.208   9.224 -0.0693 -0.1180 -0.1832
  639ERGO    R4 8815  18.120  10.294   9.093 -0.0680 -0.0870 -0.1622
  639ERGO    R5 8816  17.920  10.375   9.059 -0.0729 -0.1007 -0.1669
  639ERGO    C1 8817  18.005  10.259   8.705 -0.0426 -0.0652 -0.1707
  639ERGO    C2 8818  18.041  10.299   8.371  0.5005  0.1665 -0.1119
  640ERGO   ROH 8819   4.510   5.389  10.486  0.1014  0.1215 -0.0087
  640ERGO    R1 8820   4.585   5.290  10.232 -0.0187 -0.0991  0.0388
  640ERGO    R2 8821   4.421   5.126  10.082 -0.2523  0.0784  0.0949
  640ERGO    R3 8822   4.459   5.316   9.891  0.0497 -0.0542  0.0164
  640ERGO    R4 8823   4.350   5.085   9.746 -0.3858  0.0741  0.1230
  640ERGO    R5 8824   4.534   5.193   9.699 -0.1975 -0.2630  0.0480
  640ERGO    C1 8825   4.344   5.239   9.372 -0.1799 -0.0530  0.0658
  640ERGO    C2 8826   4.226   5.219   9.050  0.0125 -0.2534 -0.1109
  641ERGO   ROH 8827   6.378   9.359  10.223 -0.0407  0.1398 -0.0454
  641ERGO    R1 8828   6.245   9.325   9.975  0.1349 -0.1320 -0.1061
  641ERGO    R2 8829   6.167   9.539   9.818 -0.2348 -0.2865 -0.1301
  641ERGO    R3 8830   6.309   9.408   9.627  0.1201  0.0073 -0.0787
  641ERGO    R4 8831   6.144   9.599   9.478 -0.1590 -0.2446 -0.1286
  641ERGO    R5 8832   6.157   9.384   9.444  0.2526 -0.2311 -0.1704
  641ERGO    C1 8833   6.266   9.511   9.101  0.2183  0.0555 -0.0794
  641ERGO    C2 8834   6.280   9.686   8.748  0.0933  0.0956  0.1063
  642ERGO   ROH 8835   5.567  10.921  10.093  0.2268  0.1289 -0.1419
  642ERGO    R1 8836   5.478  10.911   9.824  0.0636 -0.0230 -0.0848
  642ERGO    R2 8837   5.593  11.062   9.624 -0.0770 -0.1101 -0.2375
  642ERGO    R3 8838   5.622  10.821   9.502 -0.1197 -0.1714 -0.1259
  642ERGO    R4 8839   5.643  11.017   9.285 -0.1370 -0.2803 -0.2243
  642ERGO    R5 8840   5.508  10.847   9.292 -0.1505 -0.2633 -0.1193
  642ERGO    C1 8841   5.700  10.765   8.973 -0.2120 -0.4370 -0.1119
  642ERGO    C2 8842   5.737  10.732   8.694 -0.2235  0.3597 -0.0499
  643ERGO   ROH 8843   8.686  17.667  10.248  0.0798  0.0147 -0.1603
  643ERGO    R1 8844   8.522  17.496  10.094  0.2027  0.0055 -0.2820
  643ERGO    R2 8845   8.283  17.580   9.984  0.0450 -0.1399 -0.0499
  643ERGO    R3 8846   8.394  17.489   9.753  0.0331  0.2727 -0.2281
  643ERGO    R4 8847   8.106  17.497   9.699 -0.0446 -0.2228  0.0286
  643ERGO    R5 8848   8.238  17.325   9.673  0.2680  0.0415 -0.2340
  643ERGO    C1 8849   8.107  17.362   9.316 -0.1079  0.1163 -0.0930
  643ERGO    C2 8850   7.997  17.499   9.012 -0.2051  0.0582  0.0088
  644ERGO   ROH 8851  13.823   5.004  10.076 -0.0471  0.2196  0.0607
  644ERGO    R1 8852  13.958   4.937   9.836  0.1344  0.1740  0.1737
  644ERGO    R2 8853  13.845   4.972   9.587  0.1642 -0.2400  0.0958
  644ERGO    R3 8854  14.072   5.113   9.539 -0.0204  0.0474  0.0365
  644ERGO    R4 8855  13.993   5.008   9.277  0.0673 -0.1042  0.0642
  644ERGO    R5 8856  14.187   4.985   9.372  0.1184  0.1617  0.0396
  644ERGO    C1 8857  14.293   5.161   9.051 -0.1625  0.2447 -0.0098
  644ERGO    C2 8858  14.252   5.104   8.710  0.1215 -0.2073  0.4696
  645ERGO   ROH 8859   8.829  11.915  10.012  0.0412  0.0572  0.0277
  645ERGO    R1 8860   8.938  11.948   9.753  0.0908  0.1244  0.0568
  645ERGO    R2 8861   8.801  12.075   9.549  0.1245  0.1617  0.0604
  645ERGO    R3 8862   9.026  12.227   9.536  0.1172  0.1798  0.1369
  645ERGO    R4 8863   8.885  12.280   9.284  0.2064  0.1423  0.0711
  645ERGO    R5 8864   9.092  12.215   9.306  0.2072  0.1609  0.1606
  645ERGO    C1 8865   9.145  12.543   9.118  0.2471  0.1478  0.1491
  645ERGO    C2 8866   9.012  12.693   8.847  0.0304 -0.1087  0.1216
  646ERGO   ROH 8867  14.343  13.015  10.108 -0.1694  0.0443  0.0781
  646ERGO    R1 8868  14.136  12.935   9.933 -0.2204  0.1496  0.0887
  646ERGO    R2 8869  13.958  13.113   9.820  0.0905  0.2949 -0.1926
  646ERGO    R3 8870  14.042  13.000   9.587  0.0245 -0.1050 -0.0300
  646ERGO    R4 8871  13.769  13.091   9.532  0.2126  0.3256 -0.2760
  646ERGO    R5 8872  13.847  12.890   9.501 -0.1252  0.1471 -0.0181
  646ERGO    C1 8873  13.737  12.973   9.146  0.2218 -0.0317 -0.1720
  646ERGO    C2 8874  13.613  12.927   8.797 -0.0236  0.1204  0.1729
  647ERGO   ROH 8875   7.100  16.359  10.404 -0.3398  0.2277  0.2057
  647ERGO    R1 8876   6.989  16.363  10.144 -0.2661  0.2508  0.1755
  647ERGO    R2 8877   6.928  16.597  10.011  0.1643  0.2701  0.0131
  647ERGO    R3 8878   7.084  16.489   9.817  0.0347 -0.1165  0.1117
  647ERGO    R4 8879   6.872  16.630   9.672  0.2587  0.1292 -0.0179
  647ERGO    R5 8880   6.930  16.421   9.647 -0.0596  0.0054  0.1375
  647ERGO    C1 8881   6.986  16.547   9.291  0.1921 -0.3157  0.0566
  647ERGO    C2 8882   6.954  16.533   8.945  0.1909 -0.0443  0.2963
  648ERGO   ROH 8883  10.325  17.583   9.969 -0.3402  0.0239 -0.0278
  648ERGO    R1 8884  10.189  17.523   9.728 -0.2581  0.2503 -0.1327
  648ERGO    R2 8885  10.177  17.699   9.516  0.3929  0.1917 -0.2338
  648ERGO    R3 8886  10.276  17.488   9.376  0.0107 -0.1320 -0.0352
  648ERGO    R4 8887  10.108  17.632   9.184  0.4189  0.1155 -0.2247
  648ERGO    R5 8888  10.095  17.420   9.235 -0.0721  0.1657 -0.0807
  648ERGO    C1 8889  10.161  17.394   8.860  0.0755 -0.2323 -0.0330
  648ERGO    C2 8890  10.098  17.499   8.539  0.2544  0.1785 -0.1201
  649ERGO   ROH 8891  11.705  12.703  10.148  0.0633  0.0238 -0.0844
  649ERGO    R1 8892  11.641  12.616   9.887  0.2772 -0.0504 -0.1152
  649ERGO    R2 8893  11.445  12.737   9.733  0.1804 -0.2900 -0.1922
  649ERGO    R3 8894  11.647  12.759   9.552  0.2315 -0.0283 -0.1058
  649ERGO    R4 8895  11.403  12.757   9.391  0.3001 -0.3559 -0.2103
  649ERGO    R5 8896  11.576  12.627   9.366  0.4856 -0.1297 -0.1337
  649ERGO    C1 8897  11.568  12.789   9.021  0.4180 -0.1488 -0.1397
  649ERGO    C2 8898  11.642  12.870   8.699  0.0792  0.1688  0.1320
  650ERGO   ROH 8899   6.850  12.625  10.364 -0.2408 -0.0364 -0.0649
  650ERGO    R1 8900   6.922  12.782  10.139 -0.1813 -0.1359 -0.1158
  650ERGO    R2 8901   7.118  12.705   9.959 -0.1904 -0.2535 -0.0748
  650ERGO    R3 8902   6.920  12.743   9.778 -0.1659 -0.2627 -0.1026
  650ERGO    R4 8903   7.166  12.741   9.619 -0.1270 -0.0766 -0.0481
  650ERGO    R5 8904   7.013  12.896   9.619 -0.1988 -0.1468 -0.0122
  650ERGO    C1 8905   7.008  12.799   9.250 -0.0671  0.0178 -0.0586
  650ERGO    C2 8906   7.077  12.601   8.940  0.1803  0.0613 -0.0646
  651ERGO   ROH 8907   6.430  12.631  10.280  0.1035 -0.1517  0.0545
  651ERGO    R1 8908   6.339  12.706  10.023  0.0805  0.0980  0.1326
  651ERGO    R2 8909   6.493  12.854   9.848  0.1948 -0.0104  0.1402
  651ERGO    R3 8910   6.442  12.648   9.679 -0.1508  0.1374  0.0551
  651ERGO    R4 8911   6.576  12.850   9.512  0.2097 -0.0219  0.1438
  651ERGO    R5 8912   6.384  12.754   9.472  0.0427  0.3211  0.0917
  651ERGO    C1 8913   6.576  12.653   9.158 -0.1060  0.1102  0.0659
  651ERGO    C2 8914   6.593  12.775   8.849  0.1273  0.0843 -0.1640
  652ERGO   ROH 8915   7.345   1.781  10.322  0.1127 -0.0339 -0.0244
  652ERGO    R1 8916   7.230   1.602  10.136  0.0910 -0.0698  0.0250
  652ERGO    R2 8917   6.966   1.621  10.054  0.1356  0.0234 -0.0794
  652ERGO    R3 8918   7.078   1.625   9.806  0.2241 -0.1635 -0.0456
  652ERGO    R4 8919   6.806   1.521   9.765  0.0188  0.3510 -0.1338
  652ERGO    R5 8920   6.993   1.428   9.700 -0.1270 -0.0037 -0.0858
  652ERGO    C1 8921   6.817   1.466   9.364  0.0339  0.3663 -0.1340
  652ERGO    C2 8922   6.710   1.434   9.212 -0.2386 -0.1015 -0.1190
  653ERGO   ROH 8923   8.404   4.407   9.839  0.1506  0.1761  0.0222
  653ERGO    R1 8924   8.230   4.343   9.625  0.1102  0.1437  0.0646
  653ERGO    R2 8925   8.175   4.521   9.421  0.1868  0.0602 -0.0283
  653ERGO    R3 8926   8.256   4.315   9.263  0.0795 -0.0647  0.0765
  653ERGO    R4 8927   8.053   4.456   9.104  0.1279 -0.0526  0.0172
  653ERGO    R5 8928   8.056   4.243   9.152  0.0334 -0.0314  0.1335
  653ERGO    C1 8929   8.059   4.224   8.771 -0.0073 -0.2356  0.1421
  653ERGO    C2 8930   7.964   4.305   8.432  0.0074  0.1763  0.0622
  654ERGO   ROH 8931   0.676   7.387  10.038  0.1518  0.0973 -0.1950
  654ERGO    R1 8932   0.644   7.260   9.787  0.2627 -0.0681 -0.1279
  654ERGO    R2 8933   0.573   7.399   9.558 -0.0253 -0.2756 -0.1699
  654ERGO    R3 8934   0.797   7.282   9.457  0.1242  0.0202 -0.1877
  654ERGO    R4 8935   0.626   7.330   9.224 -0.0430 -0.3635 -0.1544
  654ERGO    R5 8936   0.717   7.140   9.282  0.2771 -0.1986 -0.0862
  654ERGO    C1 8937   0.868   7.181   8.934  0.0871 -0.1370 -0.1620
  654ERGO    C2 8938   1.000   7.180   8.718 -0.1891 -0.2669  0.3430
  655ERGO   ROH 8939   9.699   1.374  10.074 -0.0238 -0.0213  0.0822
  655ERGO    R1 8940   9.665   1.443   9.801  0.0014 -0.0417  0.0749
  655ERGO    R2 8941   9.503   1.652   9.720  0.0486 -0.0212  0.0498
  655ERGO    R3 8942   9.729   1.733   9.592  0.0676 -0.0758  0.0452
  655ERGO    R4 8943   9.513   1.777   9.398  0.0213  0.2666  0.1566
  655ERGO    R5 8944   9.697   1.664   9.365 -0.0713  0.1518 -0.0117
  655ERGO    C1 8945   9.731   1.926   9.090  0.0232  0.3829  0.2147
  655ERGO    C2 8946   9.624   2.153   8.932 -0.2730 -0.5221 -0.1321
  656ERGO   ROH 8947   6.182   8.944  10.244 -0.1389 -0.1327  0.0418
  656ERGO    R1 8948   6.345   8.913  10.014 -0.0707 -0.0200  0.0753
  656ERGO    R2 8949   6.272   8.753   9.802  0.0751 -0.0523  0.0555
  656ERGO    R3 8950   6.313   8.980   9.658 -0.0329 -0.0216  0.0699
  656ERGO    R4 8951   6.208   8.786   9.464 -0.1136 -0.0171  0.0931
  656ERGO    R5 8952   6.392   8.902   9.446 -0.1332  0.0151  0.0129
  656ERGO    C1 8953   6.210   9.019   9.132 -0.3249  0.0321  0.1283
  656ERGO    C2 8954   6.217   9.063   8.755 -0.1868 -0.1074  0.1272
  657ERGO   ROH 8955   2.565   9.641   9.528 -0.1172  0.3633  0.1593
  657ERGO    R1 8956   2.541   9.600   9.249  0.0353  0.0915  0.1818
  657ERGO    R2 8957   2.463   9.801   9.075 -0.2363 -0.1690 -0.0115
  657ERGO    R3 8958   2.694   9.735   8.948 -0.0832  0.0936  0.1221
  657ERGO    R4 8959   2.527   9.857   8.741 -0.1439 -0.1875  0.0031
  657ERGO    R5 8960   2.623   9.662   8.731  0.1185 -0.0662  0.1081
  657ERGO    C1 8961   2.781   9.828   8.426  0.0537  0.0483  0.1369
  657ERGO    C2 8962   2.948   9.707   8.169 -0.1184 -0.1875 -0.1394
  658ERGO   ROH 8963  14.076  14.579   9.988  0.0932 -0.1638 -0.0698
  658ERGO    R1 8964  13.967  14.498   9.740 -0.0768 -0.0851 -0.0231
  658ERGO    R2 8965  13.734  14.605   9.637 -0.0179  0.1258  0.0550
  658ERGO    R3 8966  13.891  14.655   9.420 -0.0482 -0.0399 -0.0071
  658ERGO    R4 8967  13.641  14.551   9.308 -0.1454  0.0915  0.0958
  658ERGO    R5 8968  13.842  14.476   9.269 -0.2072 -0.0508  0.0579
  658ERGO    C1 8969  13.734  14.566   8.914 -0.2481 -0.0843  0.0614
  658ERGO    C2 8970  13.456  14.592   8.735 -0.3161  0.0102 -0.2615
  659ERGO   ROH 8971  15.144   4.133   9.757  0.0570  0.0889 -0.1096
  659ERGO    R1 8972  15.242   4.098   9.494  0.1550  0.2919 -0.1015
  659ERGO    R2 8973  15.092   3.979   9.294  0.4074 -0.0071 -0.1157
  659ERGO    R3 8974  15.148   4.209   9.160 -0.0407  0.1171 -0.1085
  659ERGO    R4 8975  15.032   4.032   8.958  0.3806 -0.1570 -0.1356
  659ERGO    R5 8976  15.223   4.136   8.945  0.1773  0.2548 -0.0870
  659ERGO    C1 8977  15.049   4.279   8.637 -0.0557 -0.1276 -0.1403
  659ERGO    C2 8978  14.966   4.510   8.347  0.0857 -0.0865 -0.0996
  660ERGO   ROH 8979   2.618  14.482   9.851  0.3493  0.1411 -0.0090
  660ERGO    R1 8980   2.728  14.395   9.605  0.1628  0.1505 -0.0972
  660ERGO    R2 8981   2.575  14.364   9.377 -0.0175  0.1342  0.0216
  660ERGO    R3 8982   2.761  14.529   9.268 -0.1191  0.1531 -0.1262
  660ERGO    R4 8983   2.651  14.380   9.040  0.0482 -0.1952  0.0176
  660ERGO    R5 8984   2.862  14.398   9.094  0.0215  0.0284  0.0475
  660ERGO    C1 8985   2.871  14.544   8.742 -0.0089 -0.3693 -0.1234
  660ERGO    C2 8986   3.060  14.600   8.568  0.1462 -0.1671 -0.0127
  661ERGO   ROH 8987  10.991   1.002   9.827  0.2140  0.2584  0.1046
  661ERGO    R1 8988  11.236   1.030   9.688  0.1918 -0.0547 -0.0023
  661ERGO    R2 8989  11.366   0.815   9.573 -0.2366 -0.1956 -0.2400
  661ERGO    R3 8990  11.356   0.969   9.349 -0.0899 -0.0004 -0.1159
  661ERGO    R4 8991  11.583   0.789   9.305 -0.3141 -0.2608 -0.2968
  661ERGO    R5 8992  11.586   1.006   9.292 -0.0455 -0.2438 -0.1232
  661ERGO    C1 8993  11.699   0.918   8.939 -0.2214 -0.1157 -0.2132
  661ERGO    C2 8994  11.586   0.776   8.625  0.4346 -0.3144  0.1398
  662ERGO   ROH 8995   3.705  10.346  10.232  0.2053 -0.0543  0.0885
  662ERGO    R1 8996   3.563  10.384   9.990  0.1751 -0.2337  0.0777
  662ERGO    R2 8997   3.569  10.622   9.850 -0.1124 -0.2264  0.0809
  662ERGO    R3 8998   3.645  10.461   9.644  0.1045 -0.1306  0.0820
  662ERGO    R4 8999   3.644  10.732   9.531 -0.0522 -0.0993  0.1371
  662ERGO    R5 9000   3.540  10.557   9.452  0.1135 -0.1687  0.0534
  662ERGO    C1 9001   3.759  10.645   9.152  0.1865  0.0645  0.1709
  662ERGO    C2 9002   3.781  10.720   8.795  0.0848 -0.1384  0.0926
  663ERGO   ROH 9003  16.218  14.360  10.042  0.3888 -0.4824  0.0336
  663ERGO    R1 9004  16.311  14.303   9.781  0.1430 -0.3416 -0.0882
  663ERGO    R2 9005  16.143  14.222   9.577 -0.1050  0.1107 -0.0741
  663ERGO    R3 9006  16.254  14.433   9.445  0.1104  0.0969  0.0801
  663ERGO    R4 9007  16.193  14.238   9.235 -0.0520  0.2944 -0.0594
  663ERGO    R5 9008  16.386  14.332   9.273  0.0351  0.0873  0.0277
  663ERGO    C1 9009  16.327  14.444   8.913  0.1811  0.3883  0.0939
  663ERGO    C2 9010  16.382  14.569   8.611 -0.0292  0.2592 -0.2135
  664ERGO   ROH 9011   2.135  13.016   9.934 -0.2705 -0.2493 -0.0378
  664ERGO    R1 9012   2.108  13.076   9.659 -0.2181 -0.1792 -0.0278
  664ERGO    R2 9013   2.325  13.104   9.491 -0.1803 -0.0036  0.0483
  664ERGO    R3 9014   2.195  12.916   9.344 -0.0281 -0.0327 -0.0518
  664ERGO    R4 9015   2.339  13.080   9.146  0.0134  0.0555  0.0507
  664ERGO    R5 9016   2.125  13.034   9.146  0.0305 -0.0293 -0.0706
  664ERGO    C1 9017   2.224  12.890   8.807  0.2691  0.0626 -0.0418
  664ERGO    C2 9018   2.320  12.968   8.512  0.2457 -0.4390  0.1807
  665ERGO   ROH 9019   1.700   5.563  10.160 -0.1309  0.2941 -0.1052
  665ERGO    R1 9020   1.721   5.523   9.881 -0.0247  0.2227 -0.0868
  665ERGO    R2 9021   1.962   5.536   9.747  0.0531 -0.0134  0.0332
  665ERGO    R3 9022   1.890   5.289   9.659 -0.1169  0.0322  0.0402
  665ERGO    R4 9023   1.954   5.439   9.415  0.2378 -0.0851  0.0474
  665ERGO    R5 9024   1.768   5.331   9.457  0.0907  0.1047 -0.0758
  665ERGO    C1 9025   1.880   5.150   9.140  0.1858 -0.0840  0.0623
  665ERGO    C2 9026   1.901   5.234   8.808  0.0284 -0.0540 -0.1840
  666ERGO   ROH 9027   2.143   9.862   9.678 -0.0928  0.0495 -0.0610
  666ERGO    R1 9028   2.190   9.883   9.399  0.0355 -0.0437 -0.0483
  666ERGO    R2 9029   2.038   9.749   9.212  0.0689 -0.0472 -0.0817
  666ERGO    R3 9030   2.005   9.998   9.108  0.1973 -0.0628 -0.1579
  666ERGO    R4 9031   1.977   9.818   8.878 -0.1014 -0.1239 -0.0668
  666ERGO    R5 9032   2.113   9.988   8.894  0.0423 -0.2279 -0.2258
  666ERGO    C1 9033   1.912  10.093   8.587 -0.0801 -0.1833 -0.1297
  666ERGO    C2 9034   1.637  10.244   8.456 -0.1215  0.3908 -0.1100
  667ERGO   ROH 9035   9.736   7.985  10.151  0.0632  0.1409 -0.0516
  667ERGO    R1 9036   9.604   7.912   9.912  0.0981 -0.0147 -0.0256
  667ERGO    R2 9037   9.452   8.091   9.765 -0.0683 -0.1659 -0.0465
  667ERGO    R3 9038   9.615   8.013   9.562 -0.0207 -0.0685 -0.0449
  667ERGO    R4 9039   9.387   8.139   9.429 -0.0818 -0.1826 -0.0454
  667ERGO    R5 9040   9.466   7.940   9.390  0.0247 -0.1376 -0.0535
  667ERGO    C1 9041   9.502   8.095   9.043 -0.0450 -0.1008 -0.0432
  667ERGO    C2 9042   9.428   8.082   8.809  0.0474 -0.2468  0.0274
  668ERGO   ROH 9043  17.735   0.263  10.050  0.2713 -0.1364  0.0167
  668ERGO    R1 9044  17.871   0.192   9.812  0.1019 -0.1543 -0.0787
  668ERGO    R2 9045  17.783  -0.009   9.644 -0.0757 -0.1058 -0.0595
  668ERGO    R3 9046  17.796   0.187   9.456 -0.1237 -0.0783 -0.0314
  668ERGO    R4 9047  17.864  -0.058   9.311 -0.0141 -0.0183 -0.0562
  668ERGO    R5 9048  17.981   0.126   9.317 -0.0883  0.0177 -0.0167
  668ERGO    C1 9049  17.923   0.098   8.942 -0.0232  0.0584 -0.0278
  668ERGO    C2 9050  17.804  -0.106   8.671 -0.2275 -0.0894  0.3342
  669ERGO   ROH 9051   6.816  10.609  10.141 -0.1211  0.0963 -0.1027
  669ERGO    R1 9052   6.936  10.446   9.943 -0.0954  0.0017 -0.0110
  669ERGO    R2 9053   6.789  10.299   9.762 -0.0732 -0.0123 -0.0226
  669ERGO    R3 9054   6.941  10.431   9.580  0.0307 -0.1072 -0.0048
  669ERGO    R4 9055   6.796  10.230   9.423  0.1099 -0.1718  0.0126
  669ERGO    R5 9056   7.012  10.261   9.427  0.1070 -0.1807  0.1139
  669ERGO    C1 9057   6.944  10.314   9.055  0.3141 -0.3538  0.0499
  669ERGO    C2 9058   6.984  10.159   8.798  0.2365  0.0374  0.1728
  670ERGO   ROH 9059   5.674  15.149  10.431  0.1764 -0.1847  0.0097
  670ERGO    R1 9060   5.645  15.260  10.173  0.0801 -0.0845  0.0631
  670ERGO    R2 9061   5.816  15.453  10.074  0.0143 -0.0120  0.0923
  670ERGO    R3 9062   5.843  15.278   9.868 -0.0117  0.0772  0.0112
  670ERGO    R4 9063   5.820  15.540   9.739  0.2559  0.1671  0.1388
  670ERGO    R5 9064   5.700  15.363   9.697  0.1422  0.2799 -0.0206
  670ERGO    C1 9065   5.849  15.425   9.351  0.3723  0.3551  0.0899
  670ERGO    C2 9066   5.923  15.313   8.904 -0.1020 -0.0567 -0.1007
  671ERGO   ROH 9067   4.369  13.847  10.105  0.0643  0.3149  0.0468
  671ERGO    R1 9068   4.464  13.887   9.841 -0.0473  0.2345 -0.0073
  671ERGO    R2 9069   4.488  13.681   9.658  0.0651  0.1394  0.1076
  671ERGO    R3 9070   4.334  13.845   9.504 -0.1166 -0.0756  0.0564
  671ERGO    R4 9071   4.475  13.675   9.313  0.3031  0.2202  0.0958
  671ERGO    R5 9072   4.469  13.892   9.313 -0.0693  0.2143  0.1595
  671ERGO    C1 9073   4.323  13.824   8.968  0.2711  0.0654  0.0409
  671ERGO    C2 9074   4.390  13.967   8.680 -0.3394 -0.2029 -0.0732
  672ERGO   ROH 9075   8.465   8.626  10.067  0.0101 -0.3037  0.1272
  672ERGO    R1 9076   8.517   8.590   9.792  0.0374 -0.2319  0.1219
  672ERGO    R2 9077   8.440   8.362   9.654 -0.0175 -0.1654  0.0356
  672ERGO    R3 9078   8.321   8.542   9.489  0.0634 -0.0711  0.0799
  672ERGO    R4 9079   8.381   8.312   9.318 -0.0844 -0.0707  0.0334
  672ERGO    R5 9080   8.438   8.520   9.282  0.0253 -0.0982  0.0638
  672ERGO    C1 9081   8.234   8.452   8.966 -0.0473  0.0731  0.0737
  672ERGO    C2 9082   8.068   8.363   8.665 -0.2410 -0.1862  0.1028
  673ERGO   ROH 9083   1.124  11.245   9.739  0.0683 -0.1811  0.0154
  673ERGO    R1 9084   1.084  11.102   9.498 -0.0931 -0.0758 -0.0216
  673ERGO    R2 9085   0.990  11.222   9.268  0.0451  0.0923  0.0097
  673ERGO    R3 9086   1.215  11.116   9.158 -0.0737 -0.1385 -0.0172
  673ERGO    R4 9087   1.046  11.186   8.929  0.0414  0.2082 -0.0042
  673ERGO    R5 9088   1.136  10.991   8.970 -0.2125  0.0653 -0.0983
  673ERGO    C1 9089   1.290  11.064   8.629 -0.0723  0.0592 -0.0377
  673ERGO    C2 9090   1.321  11.240   8.332 -0.1494  0.0250 -0.3410
  674ERGO   ROH 9091   1.802  14.783  10.189  0.1016 -0.2538  0.0713
  674ERGO    R1 9092   1.843  14.768   9.910 -0.1762 -0.1973  0.0250
  674ERGO    R2 9093   1.650  14.845   9.727 -0.2079  0.2471  0.2329
  674ERGO    R3 9094   1.850  15.002   9.631  0.0022 -0.0711  0.1335
  674ERGO    R4 9095   1.655  14.991   9.414 -0.2304  0.4040  0.3047
  674ERGO    R5 9096   1.867  14.944   9.400 -0.3222  0.0145  0.0839
  674ERGO    C1 9097   1.845  15.224   9.142 -0.0463  0.1967  0.2532
  674ERGO    C2 9098   1.835  15.357   8.819  0.1151  0.0206 -0.0229
  675loPI    C1 9099  13.374  13.950   5.311  0.1971 -0.0317  0.0134
  675loPI    C2 9100  13.254  14.300   5.463  0.1019 -0.0244 -0.0777
  675loPI    C3 9101  13.033  14.116   5.185  0.4433  0.1306 -0.4633
  675loPI   PO4 9102  13.516  13.803   5.549 -0.0246 -0.0417 -0.1079
  675loPI   GL1 9103  13.534  13.817   5.984 -0.5526 -0.1264 -0.0035
  675loPI   GL2 9104  13.362  14.018   6.030 -0.1609  0.0436 -0.0116
  675loPI   C1A 9105  13.638  13.782   6.475  0.1932  0.1467  0.0277
  675loPI   C2A 9106  13.763  13.866   6.798  0.2686  0.3937  0.1869
  675loPI   C3A 9107  13.819  13.844   7.289  0.1823  0.2215  0.1187
  675loPI   C4A 9108  13.847  13.971   7.632 -0.1425 -0.2246 -0.0169
  675loPI   C5A 9109  13.957  14.046   8.155 -0.0266  0.0863  0.1664
  675loPI   C6A 9110  13.889  14.245   8.571  0.1387 -0.3261 -0.0270
  675loPI   C1B 9111  13.356  14.215   6.405  0.0127 -0.0869 -0.3730
  675loPI   C2B 9112  13.481  14.247   6.770  0.1425 -0.1538 -0.1368
  675loPI   C3B 9113  13.425  14.156   7.144 -0.0271  0.0889  0.0599
  675loPI   C4B 9114  13.500  14.347   7.532  0.0559 -0.0328 -0.0260
  676loPI    C1 9115   4.229   5.007   5.832 -0.0572 -0.0046  0.2230
  676loPI    C2 9116   4.318   4.775   5.518  0.0010  0.1714  0.1083
  676loPI    C3 9117   3.963   4.958   5.538 -0.0447  0.0735  0.1985
  676loPI   PO4 9118   4.466   5.035   6.033 -0.2032  0.1520  0.0363
  676loPI   GL1 9119   4.425   4.842   6.380 -0.1435  0.5406  0.1128
  676loPI   GL2 9120   4.138   4.802   6.395 -0.2735 -0.0799 -0.3336
  676loPI   C1A 9121   4.411   4.923   6.849  0.1852 -0.1175 -0.3919
  676loPI   C2A 9122   4.502   5.077   7.297 -0.0966  0.0807 -0.1422
  676loPI   C3A 9123   4.624   5.104   7.732 -0.6218  0.2055 -0.3247
  676loPI   C4A 9124   4.503   5.233   8.233  0.1261  0.0957  0.3216
  676loPI   C5A 9125   4.635   5.138   8.630 -0.3404  0.0921  0.0493
  676loPI   C6A 9126   4.711   5.057   9.056 -0.0133 -0.1248  0.2173
  676loPI   C1B 9127   3.955   4.739   6.744  0.2092 -0.4411 -0.2477
  676loPI   C2B 9128   3.924   4.905   7.032 -0.2104  0.3162  0.0184
  676loPI   C3B 9129   4.072   4.939   7.473  0.3547 -0.1432 -0.1588
  676loPI   C4B 9130   4.131   4.942   7.903 -0.2272 -0.1189 -0.2443
  677loPI    C1 9131   5.507  15.234   6.308 -0.0232  0.0570 -0.0184
  677loPI    C2 9132   5.659  15.208   5.939 -0.1882 -0.1228 -0.0753
  677loPI    C3 9133   5.461  14.898   6.096 -0.3203  0.0359  0.0752
  677loPI   PO4 9134   5.640  15.317   6.556 -0.0335  0.2766  0.0946
  677loPI   GL1 9135   5.532  15.738   6.775 -0.0193  0.1194 -0.1204
  677loPI   GL2 9136   5.301  15.718   6.841  0.2490  0.1395 -0.1738
  677loPI   C1A 9137   5.768  15.767   7.261 -0.1972 -0.1271 -0.3426
  677loPI   C2A 9138   5.913  15.934   7.641  0.2984  0.0113  0.0384
  677loPI   C3A 9139   6.137  15.706   7.820 -0.4230 -0.0704 -0.0633
  677loPI   C4A 9140   5.943  15.669   8.247  0.2972 -0.1551  0.0562
  677loPI   C5A 9141   6.071  15.297   8.419  0.0860  0.1925  0.1614
  677loPI   C6A 9142   6.167  14.955   8.638 -0.0849  0.0925  0.0526
  677loPI   C1B 9143   5.158  15.809   7.339  0.2035 -0.1991 -0.2203
  677loPI   C2B 9144   5.411  15.861   7.668  0.2311 -0.0688  0.2487
  677loPI   C3B 9145   5.443  15.954   8.075 -0.0515  0.1776 -0.0688
  677loPI   C4B 9146   5.268  16.259   8.296 -0.1456 -0.0459  0.0462
  678loPI    C1 9147  12.442   5.083   5.725  0.0009  0.2424  0.3530
  678loPI    C2 9148  12.820   5.213   5.739  0.1129 -0.0249 -0.0326
  678loPI    C3 9149  12.691   5.008   5.421 -0.3190 -0.0601  0.1589
  678loPI   PO4 9150  12.314   5.220   5.881 -0.2635  0.0124  0.0355
  678loPI   GL1 9151  12.083   5.091   6.247  0.1338 -0.0579  0.0343
  678loPI   GL2 9152  12.262   4.834   6.194  0.0003  0.0565 -0.0699
  678loPI   C1A 9153  11.949   5.150   6.661  0.1141  0.1454  0.1695
  678loPI   C2A 9154  12.063   5.106   7.060  0.0647  0.1820 -0.0209
  678loPI   C3A 9155  11.981   5.142   7.539  0.1559  0.2121  0.1448
  678loPI   C4A 9156  11.845   5.321   7.960  0.1536 -0.1265 -0.2073
  678loPI   C5A 9157  11.641   5.211   8.212 -0.1602  0.0735  0.0184
  678loPI   C6A 9158  11.343   4.899   8.550 -0.2083  0.2031  0.1720
  678loPI   C1B 9159  12.283   4.826   6.669  0.1021 -0.0205 -0.3427
  678loPI   C2B 9160  12.401   4.708   7.040  0.0685 -0.1823 -0.0910
  678loPI   C3B 9161  12.276   4.703   7.434 -0.0764  0.1404 -0.1455
  678loPI   C4B 9162  12.228   4.271   7.603  0.0991  0.1869 -0.1406
  679loPI    C1 9163   4.482  13.080   5.816  0.1285  0.2405  0.1154
  679loPI    C2 9164   4.403  13.168   5.434 -0.0777 -0.0190  0.0950
  679loPI    C3 9165   4.756  13.008   5.534 -0.0455 -0.0056  0.0043
  679loPI   PO4 9166   4.305  12.905   5.853  0.2512  0.3676 -0.1863
  679loPI   GL1 9167   3.965  12.894   5.998 -0.0937 -0.1328  0.3147
  679loPI   GL2 9168   3.717  12.750   5.946  0.1655  0.1488  0.0579
  679loPI   C1A 9169   3.953  13.123   6.313 -0.0165 -0.1213 -0.0130
  679loPI   C2A 9170   3.767  13.053   6.717  0.2206  0.2697  0.0482
  679loPI   C3A 9171   3.929  13.107   7.076 -0.1353 -0.4104 -0.0474
  679loPI   C4A 9172   3.960  12.869   7.435 -0.0326  0.2010 -0.0401
  679loPI   C5A 9173   3.764  13.137   7.745  0.0258  0.0386  0.0053
  679loPI   C6A 9174   3.387  13.327   7.957 -0.1829  0.0543  0.2926
  679loPI   C1B 9175   3.663  12.715   6.389 -0.2908 -0.2576  0.0518
  679loPI   C2B 9176   3.617  12.597   6.770  0.2794  0.1481 -0.0680
  679loPI   C3B 9177   3.526  12.710   7.203  0.0252 -0.0919 -0.0368
  679loPI   C4B 9178   3.360  12.901   7.483 -0.2566  0.3149  0.1712
  680loPI    C1 9179   2.012   2.407   5.590 -0.0654 -0.2991 -0.0599
  680loPI    C2 9180   2.372   2.318   5.440  0.0442 -0.1426  0.1057
  680loPI    C3 9181   2.159   2.620   5.285 -0.1188 -0.3807 -0.1430
  680loPI   PO4 9182   2.146   2.367   5.900  0.1804  0.0276 -0.1707
  680loPI   GL1 9183   1.786   2.340   6.249 -0.1418  0.1943  0.2447
  680loPI   GL2 9184   1.970   1.959   6.226 -0.1692 -0.3722 -0.0767
  680loPI   C1A 9185   1.994   2.382   6.660  0.0883  0.2563  0.0591
  680loPI   C2A 9186   1.922   2.320   7.126 -0.1771  0.3289  0.0653
  680loPI   C3A 9187   1.900   2.216   7.554  0.0022 -0.0924  0.0720
  680loPI   C4A 9188   1.688   2.178   7.887  0.0490 -0.1159 -0.0086
  680loPI   C5A 9189   1.230   1.869   8.085 -0.1519 -0.2162 -0.1074
  680loPI   C6A 9190   0.890   1.572   8.259  0.0625  0.0391 -0.0721
  680loPI   C1B 9191   2.139   1.903   6.663 -0.0194  0.4188 -0.0668
  680loPI   C2B 9192   2.117   1.909   7.069 -0.1132  0.0918  0.0594
  680loPI   C3B 9193   2.132   1.829   7.412 -0.0792 -0.1550 -0.4557
  680loPI   C4B 9194   2.239   1.938   7.774  0.0940 -0.0430 -0.1222
  681loPI    C1 9195  13.373  16.023   5.834  0.0656  0.2030 -0.1210
  681loPI    C2 9196  13.660  15.874   5.599 -0.0267 -0.0521 -0.0757
  681loPI    C3 9197  13.411  16.154   5.458  0.1139  0.0217 -0.1804
  681loPI   PO4 9198  13.316  15.894   5.957  0.1888 -0.2524 -0.1201
  681loPI   GL1 9199  13.356  15.585   6.299  0.1415 -0.0431  0.0134
  681loPI   GL2 9200  13.129  15.776   6.393 -0.1637 -0.3851 -0.1975
  681loPI   C1A 9201  13.384  15.355   6.650  0.3167  0.0083 -0.0290
  681loPI   C2A 9202  13.402  15.355   7.022  0.0583  0.0247  0.0669
  681loPI   C3A 9203  13.512  15.529   7.420  0.1444 -0.1585 -0.2484
  681loPI   C4A 9204  13.701  15.513   7.841 -0.0092 -0.0896 -0.2521
  681loPI   C5A 9205  13.727  15.205   8.051 -0.0365 -0.0252 -0.0427
  681loPI   C6A 9206  13.494  14.749   8.122  0.2649 -0.0764  0.1595
  681loPI   C1B 9207  13.281  15.821   6.808 -0.1796  0.3208 -0.0125
  681loPI   C2B 9208  13.317  15.855   7.128  0.2643  0.0198  0.3077
  681loPI   C3B 9209  13.630  16.057   7.463  0.3491  0.3072  0.0730
  681loPI   C4B 9210  13.858  16.216   7.812  0.1996 -0.0648 -0.1547
  682loPI    C1 9211  16.223  11.558   5.392  0.1093 -0.0351  0.0375
  682loPI    C2 9212  16.545  11.573   5.155  0.0015 -0.1543 -0.1186
  682loPI    C3 9213  16.293  11.883   5.170  0.0332 -0.1282 -0.1247
  682loPI   PO4 9214  16.267  11.559   5.672  0.1436 -0.1167  0.1560
  682loPI   GL1 9215  16.427  11.583   5.991 -0.2078  0.0384 -0.2467
  682loPI   GL2 9216  16.425  11.205   5.932  0.1294  0.0140 -0.2314
  682loPI   C1A 9217  16.561  11.893   6.358  0.1495 -0.0352 -0.0915
  682loPI   C2A 9218  16.577  11.966   6.753  0.3093  0.2038 -0.0150
  682loPI   C3A 9219  16.739  11.944   7.132  0.0617  0.0871  0.2082
  682loPI   C4A 9220  16.773  11.812   7.578  0.2530  0.2272 -0.0417
  682loPI   C5A 9221  17.189  11.886   7.845 -0.4457 -0.0255 -0.2007
  682loPI   C6A 9222  17.497  11.986   8.189 -0.0871 -0.0841  0.1243
  682loPI   C1B 9223  16.354  10.925   6.248 -0.2583 -0.0401  0.1725
  682loPI   C2B 9224  16.454  11.019   6.666  0.0922  0.3302 -0.2254
  682loPI   C3B 9225  16.519  11.191   7.088 -0.2253  0.0685  0.0146
  682loPI   C4B 9226  16.627  11.240   7.551  0.1447  0.0997  0.0304
  683loPI    C1 9227   4.729   7.429   5.780 -0.1089  0.2004 -0.0352
  683loPI    C2 9228   4.526   7.222   5.504 -0.0078 -0.1216  0.1279
  683loPI    C3 9229   4.334   7.481   5.741 -0.1635 -0.1469  0.0306
  683loPI   PO4 9230   4.807   7.323   5.915 -0.1249  0.0289  0.0025
  683loPI   GL1 9231   4.889   7.149   6.217  0.1505 -0.1000  0.2345
  683loPI   GL2 9232   4.974   6.773   6.374  0.2554 -0.0051 -0.3111
  683loPI   C1A 9233   5.169   7.323   6.551 -0.2546 -0.0736  0.0547
  683loPI   C2A 9234   5.302   7.531   6.979 -0.2942 -0.1679 -0.3067
  683loPI   C3A 9235   5.308   7.389   7.343 -0.0876 -0.0716  0.2178
  683loPI   C4A 9236   5.010   7.209   7.581 -0.3001  0.0804 -0.0875
  683loPI   C5A 9237   4.823   7.001   7.896  0.0450 -0.1131 -0.0630
  683loPI   C6A 9238   4.464   6.897   8.142 -0.1439  0.3935 -0.0875
  683loPI   C1B 9239   4.947   6.922   6.740 -0.2668  0.1674 -0.1357
  683loPI   C2B 9240   5.011   6.959   7.122  0.0330  0.2349 -0.1698
  683loPI   C3B 9241   4.932   6.679   7.486 -0.1660 -0.3183  0.0029
  683loPI   C4B 9242   4.608   6.550   7.809  0.0236  0.2888  0.0799
  684loPI    C1 9243  17.171   4.480   5.824 -0.1789 -0.0109  0.0636
  684loPI    C2 9244  17.547   4.350   5.862 -0.1787 -0.0266  0.0118
  684loPI    C3 9245  17.421   4.496   5.512 -0.1536  0.1942  0.0930
  684loPI   PO4 9246  17.063   4.273   5.991  0.0208  0.2209  0.0119
  684loPI   GL1 9247  16.987   4.195   6.423 -0.1527 -0.2725 -0.2688
  684loPI   GL2 9248  17.203   4.405   6.457  0.2701  0.1601 -0.2367
  684loPI   C1A 9249  17.262   3.964   6.776 -0.3753 -0.0529 -0.2355
  684loPI   C2A 9250  17.170   3.931   7.301 -0.0389 -0.0368 -0.0362
  684loPI   C3A 9251  17.101   4.023   7.702  0.3289  0.0795  0.5337
  684loPI   C4A 9252  17.298   4.039   8.097  0.2985  0.0142 -0.0569
  684loPI   C5A 9253  17.618   4.132   8.358  0.1781 -0.0539  0.0275
  684loPI   C6A 9254  18.052   4.073   8.501  0.0838  0.0057  0.1220
  684loPI   C1B 9255  17.369   4.445   6.824 -0.0787 -0.0090  0.1800
  684loPI   C2B 9256  17.436   4.372   7.230  0.1787 -0.0708  0.1526
  684loPI   C3B 9257  17.508   4.229   7.596  0.1804  0.0071  0.0087
  684loPI   C4B 9258  17.574   4.479   7.960  0.4909  0.2169  0.0356
  685loPI    C1 9259   3.466   5.254   5.795 -0.0331  0.0743 -0.1505
  685loPI    C2 9260   3.628   5.347   5.441 -0.2395 -0.0215 -0.2718
  685loPI    C3 9261   3.843   5.388   5.776 -0.0317  0.0389 -0.4104
  685loPI   PO4 9262   3.263   5.355   5.929 -0.2883  0.1116  0.0532
  685loPI   GL1 9263   3.068   5.429   6.263  0.0163  0.0174  0.0883
  685loPI   GL2 9264   2.730   5.432   6.418  0.2038  0.1044  0.2449
  685loPI   C1A 9265   3.273   5.445   6.647 -0.1832 -0.1317 -0.0206
  685loPI   C2A 9266   3.064   5.417   7.107 -0.2595  0.0235 -0.0233
  685loPI   C3A 9267   2.957   5.370   7.579  0.0759 -0.2208 -0.2702
  685loPI   C4A 9268   2.873   5.385   8.056 -0.1493  0.2520 -0.3689
  685loPI   C5A 9269   2.872   5.713   8.255  0.1722  0.0359 -0.1579
  685loPI   C6A 9270   2.563   6.071   8.500 -0.2364 -0.1393 -0.0617
  685loPI   C1B 9271   2.575   5.397   6.898 -0.0282 -0.2159  0.2358
  685loPI   C2B 9272   2.533   5.503   7.241  0.0484  0.1029  0.1408
  685loPI   C3B 9273   2.413   5.339   7.583 -0.0462  0.1561 -0.0923
  685loPI   C4B 9274   2.390   5.477   8.065 -0.1147 -0.2194 -0.1471
  686loPI    C1 9275  15.816  14.079   5.203  0.0457 -0.0644 -0.0190
  686loPI    C2 9276  15.485  14.253   5.062  0.1357  0.0710 -0.0649
  686loPI    C3 9277  15.697  14.009   4.827  0.0053 -0.1093  0.0019
  686loPI   PO4 9278  15.784  14.102   5.452  0.1398 -0.2591 -0.0682
  686loPI   GL1 9279  15.889  14.131   5.975 -0.1474  0.0856  0.0461
  686loPI   GL2 9280  16.166  13.935   5.839  0.2473 -0.1012  0.0208
  686loPI   C1A 9281  15.886  14.034   6.418 -0.1413 -0.2902 -0.0948
  686loPI   C2A 9282  15.796  14.078   6.870 -0.2182 -0.1520  0.1565
  686loPI   C3A 9283  15.698  14.204   7.230  0.1292 -0.0289  0.0496
  686loPI   C4A 9284  15.560  14.109   7.621 -0.0076 -0.1174  0.3746
  686loPI   C5A 9285  15.700  13.884   7.987  0.1047  0.2464  0.1238
  686loPI   C6A 9286  15.968  13.957   8.215 -0.2095  0.0691 -0.0437
  686loPI   C1B 9287  16.358  13.720   6.170 -0.1711 -0.0279 -0.0929
  686loPI   C2B 9288  16.223  13.704   6.661 -0.1339  0.2518  0.1062
  686loPI   C3B 9289  16.129  13.808   7.124 -0.1843  0.0125 -0.1734
  686loPI   C4B 9290  16.037  13.768   7.607  0.1015  0.2902  0.1174
  687loPI    C1 9291  13.642   4.618   5.729 -0.2168  0.0089  0.0376
  687loPI    C2 9292  13.453   4.370   5.478  0.0282  0.0353 -0.1766
  687loPI    C3 9293  13.479   4.759   5.392 -0.1308  0.0940  0.0317
  687loPI   PO4 9294  13.591   4.645   5.914  0.0969  0.2625  0.0086
  687loPI   GL1 9295  13.596   4.712   6.408 -0.2418  0.2155  0.4814
  687loPI   GL2 9296  13.524   4.362   6.319  0.4196 -0.1124  0.2570
  687loPI   C1A 9297  13.659   4.899   6.708  0.0138  0.1248  0.2650
  687loPI   C2A 9298  13.747   4.830   7.136 -0.1285  0.1830 -0.1548
  687loPI   C3A 9299  13.519   4.934   7.482 -0.0134  0.1007  0.1084
  687loPI   C4A 9300  13.340   4.949   7.896  0.0861  0.0171 -0.2544
  687loPI   C5A 9301  12.922   5.158   8.133 -0.0392  0.0495 -0.3027
  687loPI   C6A 9302  12.786   5.535   8.098  0.0040 -0.0940 -0.1139
  687loPI   C1B 9303  13.834   4.313   6.604  0.0813 -0.0348 -0.1297
  687loPI   C2B 9304  13.900   4.186   6.886  0.0148  0.1260 -0.0053
  687loPI   C3B 9305  14.033   4.348   7.254  0.3548  0.0914  0.0502
  687loPI   C4B 9306  13.898   4.481   7.559  0.0187  0.0449 -0.1775
  688loPI    C1 9307  10.129   8.137   5.194  0.4436 -0.0113  0.1627
  688loPI    C2 9308  10.180   8.387   4.886  0.2627  0.0518  0.1831
  688loPI    C3 9309  10.386   8.045   4.901  0.2149  0.0110 -0.0485
  688loPI   PO4 9310  10.200   8.240   5.514  0.0474  0.0609  0.0764
  688loPI   GL1 9311  10.370   8.106   5.931  0.1213  0.0699  0.1199
  688loPI   GL2 9312  10.794   8.042   6.079  0.0990  0.1946 -0.2440
  688loPI   C1A 9313  10.359   8.367   6.266 -0.2478 -0.4086  0.1590
  688loPI   C2A 9314  10.287   8.294   6.713  0.3312 -0.0565 -0.0239
  688loPI   C3A 9315  10.157   8.320   7.096  0.1682  0.0960  0.0635
  688loPI   C4A 9316  10.150   8.219   7.428  0.0755  0.2604  0.2271
  688loPI   C5A 9317  10.099   8.432   7.762 -0.0466  0.1614 -0.0044
  688loPI   C6A 9318  10.347   8.681   8.039 -0.1331 -0.2289  0.4010
  688loPI   C1B 9319  10.582   7.904   6.438 -0.0520 -0.0894  0.0159
  688loPI   C2B 9320  10.516   7.931   6.896 -0.2869 -0.1274 -0.0808
  688loPI   C3B 9321  10.621   8.082   7.288 -0.0151 -0.3373  0.1056
  688loPI   C4B 9322  11.028   8.475   7.251 -0.0751  0.0739 -0.0011
  689loPI    C1 9323  11.857   4.391   5.486 -0.0266 -0.1471  0.1265
  689loPI    C2 9324  11.493   4.555   5.509  0.0207 -0.0157 -0.0401
  689loPI    C3 9325  11.726   4.630   5.192  0.3145  0.1512  0.2099
  689loPI   PO4 9326  11.867   4.319   5.830  0.0771  0.0167 -0.1360
  689loPI   GL1 9327  12.119   4.262   6.150 -0.2446  0.2852 -0.0569
  689loPI   GL2 9328  12.165   3.919   6.154 -0.0498  0.0485 -0.1028
  689loPI   C1A 9329  12.255   4.372   6.618 -0.0892  0.3784 -0.0771
  689loPI   C2A 9330  12.671   4.406   6.821 -0.2528  0.0233 -0.0617
  689loPI   C3A 9331  12.756   4.353   7.301  0.2651  0.0426  0.0663
  689loPI   C4A 9332  12.783   4.216   7.686 -0.0340  0.1854 -0.0777
  689loPI   C5A 9333  12.900   4.094   8.092 -0.5436  0.2107 -0.1539
  689loPI   C6A 9334  12.773   4.075   8.593  0.0724 -0.1742 -0.2770
  689loPI   C1B 9335  12.007   3.965   6.480  0.0454  0.2776 -0.1565
  689loPI   C2B 9336  11.867   4.074   6.796  0.2135 -0.4699 -0.2567
  689loPI   C3B 9337  11.900   4.278   7.214  0.0203 -0.1415  0.2954
  689loPI   C4B 9338  11.752   4.156   7.649 -0.1727 -0.1612  0.2115
  690loPI    C1 9339   5.166   3.560   5.738 -0.0282  0.1017  0.0408
  690loPI    C2 9340   5.334   3.848   5.517 -0.0905  0.1452  0.0497
  690loPI    C3 9341   5.051   3.613   5.359  0.0881 -0.0298 -0.0136
  690loPI   PO4 9342   5.153   3.754   6.033  0.1334 -0.0767 -0.2791
  690loPI   GL1 9343   5.110   3.559   6.454  0.1098 -0.1098 -0.4608
  690loPI   GL2 9344   4.846   3.366   6.567  0.0355  0.1660 -0.0772
  690loPI   C1A 9345   5.160   3.683   6.897  0.0779 -0.0453 -0.1898
  690loPI   C2A 9346   5.127   3.734   7.389 -0.0206 -0.0151  0.1178
  690loPI   C3A 9347   5.107   3.926   7.749  0.1463 -0.3091 -0.1030
  690loPI   C4A 9348   4.944   4.254   8.115 -0.0530  0.1744  0.0161
  690loPI   C5A 9349   5.117   4.419   8.404 -0.1212 -0.2672 -0.0470
  690loPI   C6A 9350   5.030   4.796   8.665  0.1705  0.1998  0.1824
  690loPI   C1B 9351   4.938   3.230   6.922 -0.0777 -0.3728  0.1183
  690loPI   C2B 9352   4.987   3.205   7.325  0.1948  0.1484  0.0368
  690loPI   C3B 9353   5.067   3.363   7.719 -0.1215 -0.0587 -0.1489
  690loPI   C4B 9354   5.057   3.239   8.113 -0.0488 -0.0620 -0.1887
  691loPI    C1 9355   4.148   3.344   5.645  0.1299  0.2457 -0.0324
  691loPI    C2 9356   4.057   3.398   5.259 -0.0737  0.1370 -0.0010
  691loPI    C3 9357   4.341   3.136   5.363 -0.1075  0.0724 -0.0704
  691loPI   PO4 9358   4.246   3.549   5.844  0.0853  0.0987 -0.0535
  691loPI   GL1 9359   4.187   3.687   6.248  0.1804 -0.0457  0.0938
  691loPI   GL2 9360   4.315   3.493   6.484 -0.0751 -0.1122 -0.0882
  691loPI   C1A 9361   4.084   3.886   6.648 -0.0216 -0.0262  0.2181
  691loPI   C2A 9362   4.156   3.976   7.097 -0.1799 -0.0924  0.1245
  691loPI   C3A 9363   4.239   3.814   7.454  0.0256  0.0330  0.0639
  691loPI   C4A 9364   4.277   3.721   7.841 -0.0398 -0.0444  0.0116
  691loPI   C5A 9365   4.206   3.476   8.062  0.0518 -0.0240 -0.0743
  691loPI   C6A 9366   4.260   2.983   8.171 -0.0732  0.1052  0.1190
  691loPI   C1B 9367   4.453   3.552   6.852  0.0163  0.1900  0.1434
  691loPI   C2B 9368   4.695   3.568   7.166 -0.1617  0.0471 -0.0029
  691loPI   C3B 9369   4.679   3.592   7.584  0.2536 -0.0934 -0.2130
  691loPI   C4B 9370   4.732   3.692   8.044 -0.1255 -0.0060 -0.2241
  692loPI    C1 9371  13.570  16.902   5.597 -0.0176 -0.0730 -0.1080
  692loPI    C2 9372  13.516  16.631   5.308  0.1445 -0.0412 -0.1696
  692loPI    C3 9373  13.673  16.988   5.220  0.2390 -0.0486 -0.0347
  692loPI   PO4 9374  13.551  16.811   5.807 -0.0451  0.2069 -0.0557
  692loPI   GL1 9375  13.662  16.694   6.099 -0.2627 -0.0639 -0.0167
  692loPI   GL2 9376  13.881  16.974   6.263 -0.2721  0.2468 -0.0584
  692loPI   C1A 9377  13.671  16.450   6.376  0.3419 -0.0599 -0.1662
  692loPI   C2A 9378  13.846  16.470   6.685 -0.0848  0.0357  0.1323
  692loPI   C3A 9379  13.754  16.086   6.950 -0.0057  0.4506 -0.0095
  692loPI   C4A 9380  13.878  15.762   7.144 -0.3620 -0.1318  0.0486
  692loPI   C5A 9381  14.046  15.727   7.549  0.2240  0.0089 -0.0392
  692loPI   C6A 9382  14.234  15.746   7.897  0.1177 -0.0397 -0.0962
  692loPI   C1B 9383  13.701  17.117   6.711  0.2127  0.2004  0.0838
  692loPI   C2B 9384  13.692  17.132   7.184  0.0738  0.0538 -0.0858
  692loPI   C3B 9385  13.543  17.084   7.589 -0.3131 -0.1614  0.1860
  692loPI   C4B 9386  13.748  16.839   7.964 -0.1570  0.0908  0.1103
  693loPI    C1 9387  17.121   2.163   5.859 -0.1096  0.0715 -0.1733
  693loPI    C2 9388  17.301   2.330   5.544 -0.2744  0.3578 -0.1191
  693loPI    C3 9389  17.193   2.557   5.856 -0.0475  0.0668  0.1774
  693loPI   PO4 9390  16.889   2.120   5.859 -0.0963  0.1654 -0.1111
  693loPI   GL1 9391  16.532   2.082   6.060 -0.0245  0.2921 -0.1330
  693loPI   GL2 9392  16.342   2.333   6.064  0.0711  0.3097  0.0084
  693loPI   C1A 9393  16.453   1.960   6.408 -0.0527  0.0121  0.2163
  693loPI   C2A 9394  16.512   2.230   6.813  0.1488  0.0318 -0.1384
  693loPI   C3A 9395  16.390   2.272   7.096 -0.2204 -0.3078  0.1306
  693loPI   C4A 9396  16.334   2.202   7.422  0.1054 -0.2823  0.2451
  693loPI   C5A 9397  16.022   2.014   7.754 -0.0298  0.2168  0.0033
  693loPI   C6A 9398  15.630   2.071   7.845 -0.2438 -0.3766  0.0120
  693loPI   C1B 9399  16.333   2.551   6.408  0.2916 -0.2901 -0.1926
  693loPI   C2B 9400  16.497   2.787   6.773  0.0353 -0.0794 -0.4183
  693loPI   C3B 9401  16.704   2.671   7.164 -0.0679  0.2278 -0.1913
  693loPI   C4B 9402  17.062   2.696   7.462  0.2171  0.0401 -0.0180
  694loPI    C1 9403   7.769   7.955   5.191  0.1074 -0.3166 -0.0209
  694loPI    C2 9404   8.089   8.110   5.009  0.0579 -0.2907 -0.0863
  694loPI    C3 9405   7.760   8.028   4.798 -0.0845 -0.0383  0.0322
  694loPI   PO4 9406   7.727   8.116   5.437  0.1432 -0.0737 -0.1292
  694loPI   GL1 9407   7.634   8.032   5.935 -0.0910 -0.2272  0.1046
  694loPI   GL2 9408   7.334   7.825   5.960 -0.1817 -0.1792  0.2783
  694loPI   C1A 9409   7.542   8.108   6.436 -0.0246 -0.0517  0.2003
  694loPI   C2A 9410   7.581   8.015   6.798 -0.1425  0.2013  0.0789
  694loPI   C3A 9411   7.619   8.172   7.259 -0.1684  0.0270 -0.0252
  694loPI   C4A 9412   7.645   8.460   7.563  0.0290  0.4053 -0.0527
  694loPI   C5A 9413   7.568   8.566   7.938  0.2732  0.3824  0.0939
  694loPI   C6A 9414   7.705   8.825   8.270 -0.0975  0.0329  0.2553
  694loPI   C1B 9415   7.553   7.631   6.375  0.0336  0.1236 -0.2869
  694loPI   C2B 9416   7.645   7.413   6.760 -0.0555 -0.0434 -0.0575
  694loPI   C3B 9417   7.967   7.295   7.101  0.1597  0.0671 -0.2254
  694loPI   C4B 9418   8.221   6.927   7.370 -0.1516 -0.0083 -0.1638
  695loPI    C1 9419  10.777  17.418   5.659  0.0362 -0.0449 -0.1062
  695loPI    C2 9420  11.011  17.658   5.441  0.0108 -0.0667 -0.1578
  695loPI    C3 9421  10.714  17.455   5.266 -0.2467  0.2012 -0.0413
  695loPI   PO4 9422  10.969  17.333   5.880  0.0623  0.1793 -0.2216
  695loPI   GL1 9423  10.950  17.426   6.282 -0.3450  0.0676  0.1718
  695loPI   GL2 9424  11.021  17.141   6.405  0.3617 -0.1213  0.0251
  695loPI   C1A 9425  11.128  17.556   6.651 -0.1295  0.2781 -0.0728
  695loPI   C2A 9426  11.092  17.509   7.067  0.0715 -0.0631 -0.0089
  695loPI   C3A 9427  11.124  17.658   7.476  0.1713 -0.1633 -0.3809
  695loPI   C4A 9428  11.320  17.609   7.913 -0.1525 -0.2174 -0.2440
  695loPI   C5A 9429  11.527  17.350   8.010  0.0407  0.0450  0.1176
  695loPI   C6A 9430  12.011  17.265   7.859 -0.2416  0.0539  0.1081
  695loPI   C1B 9431  10.902  17.066   6.766  0.2224 -0.0199  0.0273
  695loPI   C2B 9432  10.778  17.195   7.231  0.2095 -0.0510 -0.1473
  695loPI   C3B 9433  10.729  17.298   7.700 -0.1938 -0.4782  0.0580
  695loPI   C4B 9434  10.844  17.359   8.114 -0.1315 -0.2914 -0.3320
  696loPI    C1 9435  12.508   7.523   5.306 -0.0876 -0.0709  0.0092
  696loPI    C2 9436  12.521   7.127   5.361 -0.1476 -0.0973 -0.1612
  696loPI    C3 9437  12.476   7.276   4.992 -0.0800  0.0692 -0.1029
  696loPI   PO4 9438  12.299   7.665   5.474  0.2278 -0.2011 -0.1475
  696loPI   GL1 9439  12.230   7.758   5.880  0.0329  0.0135 -0.0771
  696loPI   GL2 9440  12.615   7.909   5.937  0.0799 -0.0130  0.1585
  696loPI   C1A 9441  11.973   7.827   6.244  0.0203  0.1578 -0.1131
  696loPI   C2A 9442  11.926   7.610   6.609  0.0653 -0.3704  0.0880
  696loPI   C3A 9443  11.847   7.673   7.066  0.0286 -0.0250  0.2309
  696loPI   C4A 9444  11.617   7.945   7.404 -0.1290  0.2809 -0.1093
  696loPI   C5A 9445  11.408   7.893   7.827 -0.3056  0.0997 -0.1371
  696loPI   C6A 9446  11.169   8.029   8.258 -0.0291 -0.3288  0.1486
  696loPI   C1B 9447  12.492   7.769   6.392 -0.0486  0.2171  0.3547
  696loPI   C2B 9448  12.462   7.758   6.789 -0.1012 -0.0052 -0.0690
  696loPI   C3B 9449  12.688   7.695   7.120 -0.2001  0.0684  0.1203
  696loPI   C4B 9450  13.061   7.883   7.160  0.2190  0.1657  0.0246
  697loPI    C1 9451  16.077   1.704   5.361  0.0051 -0.3285 -0.0179
  697loPI    C2 9452  16.131   2.065   5.199 -0.0142 -0.2081  0.2392
  697loPI    C3 9453  16.010   1.760   4.971 -0.0536 -0.0398  0.0314
  697loPI   PO4 9454  16.244   1.661   5.557  0.0483  0.3910  0.0152
  697loPI   GL1 9455  16.157   1.410   5.872 -0.2522  0.0237 -0.4567
  697loPI   GL2 9456  16.491   1.298   5.902  0.0172  0.0511 -0.0891
  697loPI   C1A 9457  16.120   1.652   6.224 -0.0858 -0.0730 -0.1953
  697loPI   C2A 9458  16.225   1.687   6.693 -0.4872  0.1896  0.1490
  697loPI   C3A 9459  16.215   1.745   7.137 -0.1465 -0.1196 -0.2745
  697loPI   C4A 9460  16.200   1.642   7.514  0.2828  0.0362 -0.0627
  697loPI   C5A 9461  16.337   1.578   7.902  0.2287  0.1290 -0.0744
  697loPI   C6A 9462  16.395   1.699   8.328 -0.2362  0.0023  0.0085
  697loPI   C1B 9463  16.548   1.456   6.355  0.1127  0.0024  0.0720
  697loPI   C2B 9464  16.636   1.321   6.768 -0.1516 -0.0922 -0.1874
  697loPI   C3B 9465  16.973   1.312   7.030 -0.2121  0.0732  0.2464
  697loPI   C4B 9466  17.449   1.415   6.957 -0.0669 -0.3854 -0.3282
  698loPI    C1 9467   7.222   6.221   5.437  0.1365 -0.0265  0.2884
  698loPI    C2 9468   7.511   5.951   5.492  0.0654 -0.1879 -0.1023
  698loPI    C3 9469   7.227   5.887   5.217 -0.1741  0.1067  0.0709
  698loPI   PO4 9470   7.104   6.266   5.637 -0.1739 -0.1714 -0.3228
  698loPI   GL1 9471   7.085   6.496   5.980 -0.4499 -0.1517  0.0265
  698loPI   GL2 9472   7.393   6.454   6.137 -0.0887 -0.0738 -0.0322
  698loPI   C1A 9473   7.074   6.748   6.394 -0.0434 -0.0025 -0.0381
  698loPI   C2A 9474   7.312   6.946   6.774  0.1845 -0.1228  0.1002
  698loPI   C3A 9475   7.426   7.060   7.140 -0.1304  0.1702  0.3295
  698loPI   C4A 9476   7.742   6.936   7.408  0.1833 -0.4046 -0.2958
  698loPI   C5A 9477   7.810   7.056   7.785 -0.1573  0.3662 -0.3884
  698loPI   C6A 9478   7.649   6.916   8.073 -0.0954  0.0664  0.0912
  698loPI   C1B 9479   7.514   6.452   6.575  0.0045  0.2193 -0.1147
  698loPI   C2B 9480   7.475   6.209   6.939  0.0495  0.2082  0.1304
  698loPI   C3B 9481   7.467   6.308   7.382  0.0241 -0.0016 -0.0536
  698loPI   C4B 9482   7.563   6.534   7.752  0.1285 -0.1860 -0.0224
  699loPI    C1 9483  12.912   6.726   5.348 -0.0116 -0.0549  0.0314
  699loPI    C2 9484  13.267   6.883   5.253  0.0133 -0.1725 -0.0721
  699loPI    C3 9485  12.972   6.878   4.983 -0.2013  0.2981  0.1424
  699loPI   PO4 9486  12.852   6.885   5.663 -0.1819 -0.0857  0.3292
  699loPI   GL1 9487  12.765   7.042   6.137 -0.4027  0.2594 -0.1656
  699loPI   GL2 9488  12.441   6.903   6.179  0.0044 -0.1761  0.2457
  699loPI   C1A 9489  12.829   6.962   6.541  0.3859 -0.2480  0.1295
  699loPI   C2A 9490  13.136   6.886   6.879  0.1721 -0.1397  0.0883
  699loPI   C3A 9491  13.141   6.484   7.212  0.1030 -0.1429  0.1573
  699loPI   C4A 9492  13.367   6.133   7.065  0.0430 -0.2348  0.0703
  699loPI   C5A 9493  13.820   5.927   7.093 -0.2081 -0.1915  0.0243
  699loPI   C6A 9494  14.302   5.867   7.291 -0.0889  0.2243  0.2476
  699loPI   C1B 9495  12.324   6.829   6.571 -0.0274 -0.0762 -0.1510
  699loPI   C2B 9496  12.243   6.656   6.944  0.2297 -0.0679 -0.1257
  699loPI   C3B 9497  12.219   6.805   7.378 -0.3696  0.2231  0.3443
  699loPI   C4B 9498  12.092   6.869   7.707 -0.0276 -0.1659 -0.2091
  700loPI    C1 9499   6.233   0.107   5.863  0.0276  0.0881 -0.0161
  700loPI    C2 9500   6.469  -0.083   5.602 -0.0679  0.0950 -0.1081
  700loPI    C3 9501   6.401   0.309   5.562 -0.0919  0.0937 -0.0797
  700loPI   PO4 9502   6.282  -0.103   6.044  0.2079  0.1646  0.0544
  700loPI   GL1 9503   6.393  -0.297   6.476 -0.2388 -0.0918  0.2508
  700loPI   GL2 9504   6.689  -0.210   6.580  0.0648  0.0729 -0.1923
  700loPI   C1A 9505   6.259  -0.525   6.879  0.0077 -0.2361  0.2824
  700loPI   C2A 9506   6.220  -0.769   7.253 -0.0762  0.1726 -0.0117
  700loPI   C3A 9507   5.823  -0.574   7.518  0.2189 -0.3327  0.2197
  700loPI   C4A 9508   5.706  -0.142   7.710  0.0876  0.4938  0.0094
  700loPI   C5A 9509   5.574  -0.240   8.135 -0.0881 -0.2036 -0.1352
  700loPI   C6A 9510   5.246   0.059   8.192 -0.2345  0.2421  0.0407
  700loPI   C1B 9511   6.664  -0.110   7.050 -0.0094  0.0730 -0.0767
  700loPI   C2B 9512   6.358  -0.258   7.348 -0.0293 -0.1451  0.2179
  700loPI   C3B 9513   6.374  -0.520   7.630  0.1163 -0.2504  0.5802
  700loPI   C4B 9514   6.461  -0.592   8.098  0.4582  0.0143 -0.3188
  701loPI    C1 9515  12.132  12.580   5.404 -0.1617 -0.1655  0.2956
  701loPI    C2 9516  11.982  12.254   5.227 -0.1896  0.0460 -0.0814
  701loPI    C3 9517  11.737  12.520   5.397 -0.1868  0.0159 -0.0297
  701loPI   PO4 9518  12.244  12.544   5.563 -0.0613  0.2195  0.0871
  701loPI   GL1 9519  12.287  12.442   6.013 -0.1136 -0.0301  0.0910
  701loPI   GL2 9520  11.988  12.464   6.178  0.0049 -0.2363  0.2026
  701loPI   C1A 9521  12.458  12.430   6.396  0.2276  0.2598 -0.2307
  701loPI   C2A 9522  12.430  12.399   6.786 -0.0514  0.0199 -0.1290
  701loPI   C3A 9523  12.419  12.224   7.223  0.4013 -0.0174 -0.3547
  701loPI   C4A 9524  12.307  12.264   7.683  0.0653 -0.4038  0.1367
  701loPI   C5A 9525  12.068  12.565   7.958 -0.1854  0.0001  0.1681
  701loPI   C6A 9526  11.779  12.811   8.148  0.1915 -0.1607  0.4338
  701loPI   C1B 9527  11.989  12.332   6.572  0.0434 -0.1327  0.2603
  701loPI   C2B 9528  11.989  12.449   6.998  0.0222 -0.0313 -0.0907
  701loPI   C3B 9529  11.974  12.521   7.377 -0.0514  0.3896 -0.1024
  701loPI   C4B 9530  12.087  12.979   7.586 -0.2724 -0.3085  0.0998
  702loPI    C1 9531  16.920   4.989   5.649 -0.2294 -0.1911  0.0413
  702loPI    C2 9532  17.275   5.149   5.738 -0.3398 -0.0402  0.2160
  702loPI    C3 9533  17.233   4.928   5.408 -0.0643 -0.1273  0.2371
  702loPI   PO4 9534  16.801   4.885   5.895 -0.1108  0.1060  0.2350
  702loPI   GL1 9535  16.737   4.690   6.197 -0.3611 -0.0228 -0.4131
  702loPI   GL2 9536  16.498   4.413   6.400 -0.0911  0.0590 -0.0400
  702loPI   C1A 9537  16.605   4.941   6.579  0.2714  0.2565  0.1872
  702loPI   C2A 9538  16.556   4.922   7.077  0.1320 -0.0656 -0.0952
  702loPI   C3A 9539  16.592   4.743   7.370  0.1181 -0.0412 -0.0550
  702loPI   C4A 9540  16.501   4.766   7.759  0.1132  0.2266 -0.0274
  702loPI   C5A 9541  16.764   4.949   8.078 -0.2894 -0.1930  0.1172
  702loPI   C6A 9542  16.885   5.380   8.216  0.1032  0.1748  0.1514
  702loPI   C1B 9543  16.800   4.527   6.764 -0.1725 -0.1054  0.1070
  702loPI   C2B 9544  16.930   4.277   7.113 -0.1626 -0.4866  0.0400
  702loPI   C3B 9545  16.988   4.534   7.459 -0.1997  0.0139 -0.0780
  702loPI   C4B 9546  17.370   4.763   7.624 -0.1867 -0.1187 -0.1167
  703loPI    C1 9547   9.820   7.581   5.042  0.4989  0.0488  0.1946
  703loPI    C2 9548   9.827   7.901   4.801 -0.3032 -0.0708 -0.0147
  703loPI    C3 9549   9.877   7.534   4.649 -0.0598 -0.0963  0.1223
  703loPI   PO4 9550   9.846   7.703   5.274  0.0940  0.1636  0.0716
  703loPI   GL1 9551   9.589   7.774   5.662  0.0693 -0.0921  0.2663
  703loPI   GL2 9552   9.989   7.852   5.763  0.2845  0.1742 -0.0148
  703loPI   C1A 9553   9.572   7.917   6.019  0.1141 -0.0313 -0.1219
  703loPI   C2A 9554   9.519   7.872   6.510 -0.0229 -0.0809  0.2835
  703loPI   C3A 9555   9.483   7.785   6.965 -0.1706  0.0614 -0.1791
  703loPI   C4A 9556   9.362   7.551   7.325 -0.2822 -0.1689  0.0286
  703loPI   C5A 9557   9.304   7.224   7.588  0.1182 -0.2952  0.1299
  703loPI   C6A 9558   9.047   6.840   7.470 -0.3458 -0.1167  0.1503
  703loPI   C1B 9559  10.062   7.826   6.149  0.0358 -0.0940  0.0598
  703loPI   C2B 9560  10.068   7.859   6.579  0.3923  0.3155 -0.1585
  703loPI   C3B 9561   9.967   7.900   6.989 -0.1817 -0.0734  0.1666
  703loPI   C4B 9562   9.859   7.801   7.418 -0.0013 -0.2831  0.2288
  704loPI    C1 9563  17.497  15.614   5.457  0.1530  0.0310 -0.0098
  704loPI    C2 9564  17.442  15.416   5.113 -0.1432  0.1589 -0.0388
  704loPI    C3 9565  17.488  15.814   5.110 -0.2300  0.1705  0.0755
  704loPI   PO4 9566  17.738  15.473   5.665 -0.1608 -0.0162 -0.1227
  704loPI   GL1 9567  17.957  15.833   5.965  0.0250  0.1327 -0.2805
  704loPI   GL2 9568  17.861  15.627   6.122  0.3354  0.2600 -0.2230
  704loPI   C1A 9569  17.764  15.966   6.441  0.0334  0.1367  0.2826
  704loPI   C2A 9570  17.880  15.855   6.877  0.0424 -0.0390 -0.1125
  704loPI   C3A 9571  17.820  15.831   7.264  0.2395 -0.0508 -0.1590
  704loPI   C4A 9572  17.709  15.826   7.687  0.0391 -0.0723  0.1745
  704loPI   C5A 9573  17.389  15.822   7.995  0.2186  0.3726  0.1180
  704loPI   C6A 9574  17.010  15.783   8.332  0.2981 -0.0790  0.0493
  704loPI   C1B 9575  17.679  15.386   6.432 -0.2978 -0.0002 -0.0653
  704loPI   C2B 9576  17.526  15.053   6.597 -0.0659 -0.1335 -0.1960
  704loPI   C3B 9577  17.323  14.972   6.991  0.2371 -0.0993 -0.0732
  704loPI   C4B 9578  17.496  15.057   7.397  0.0700 -0.0791  0.2503
  705loPI    C1 9579   2.393  12.386   5.237 -0.1609  0.0282  0.0782
  705loPI    C2 9580   2.464  11.993   5.267 -0.0060  0.0654  0.2126
  705loPI    C3 9581   2.409  12.160   4.907  0.1653 -0.0394  0.1367
  705loPI   PO4 9582   2.510  12.481   5.475  0.0865  0.0214  0.0431
  705loPI   GL1 9583   2.510  12.927   5.751  0.0919 -0.0120  0.4255
  705loPI   GL2 9584   2.727  12.682   5.865  0.1174 -0.2078 -0.2175
  705loPI   C1A 9585   2.250  13.010   6.149 -0.2510  0.4815 -0.1453
  705loPI   C2A 9586   2.231  12.815   6.570  0.1933 -0.0656 -0.0225
  705loPI   C3A 9587   2.120  12.797   6.997 -0.0309 -0.2078 -0.2454
  705loPI   C4A 9588   1.862  12.868   7.229  0.3109  0.0391  0.2820
  705loPI   C5A 9589   1.720  13.015   7.632  0.2443  0.1978 -0.0870
  705loPI   C6A 9590   1.388  13.021   8.019  0.0334 -0.1212  0.1948
  705loPI   C1B 9591   2.635  12.688   6.273  0.2949 -0.0651 -0.0772
  705loPI   C2B 9592   2.641  12.413   6.472 -0.1094 -0.1597 -0.2322
  705loPI   C3B 9593   2.332  12.329   6.807  0.0886 -0.3605 -0.1586
  705loPI   C4B 9594   2.123  12.221   7.091  0.0649 -0.1975 -0.0350
  706loPI    C1 9595   3.361   9.206   5.919 -0.0663  0.2380 -0.1621
  706loPI    C2 9596   3.732   9.056   5.927 -0.1046  0.1519  0.1095
  706loPI    C3 9597   3.598   9.243   5.599  0.1770  0.1824  0.0092
  706loPI   PO4 9598   3.229   9.163   6.128 -0.2628 -0.0893 -0.2507
  706loPI   GL1 9599   3.391   9.267   6.474  0.1218 -0.0469  0.0449
  706loPI   GL2 9600   3.663   9.314   6.522  0.0906  0.1998 -0.0007
  706loPI   C1A 9601   3.277   9.108   6.873  0.0948 -0.1683 -0.6485
  706loPI   C2A 9602   3.265   8.974   7.343  0.4559 -0.3875  0.0033
  706loPI   C3A 9603   3.214   8.835   7.778  0.1699  0.3493 -0.1150
  706loPI   C4A 9604   3.327   8.453   7.921 -0.0715  0.0387  0.1486
  706loPI   C5A 9605   3.056   8.118   8.175 -0.3536 -0.0429 -0.0347
  706loPI   C6A 9606   2.988   7.962   8.550 -0.1523  0.1454 -0.1150
  706loPI   C1B 9607   3.737   9.186   6.925 -0.1047  0.1212  0.1602
  706loPI   C2B 9608   3.756   9.128   7.310 -0.1629 -0.1858  0.3786
  706loPI   C3B 9609   3.507   9.240   7.664  0.1952  0.0468 -0.0867
  706loPI   C4B 9610   3.562   9.090   8.051  0.0541 -0.2451  0.3093
  707loPI    C1 9611   7.303  14.886   6.160 -0.1940 -0.0441 -0.1951
  707loPI    C2 9612   7.512  14.653   5.911 -0.0807 -0.0755 -0.0716
  707loPI    C3 9613   7.114  14.620   5.928 -0.0683 -0.2383 -0.0778
  707loPI   PO4 9614   7.484  14.870   6.342  0.0461  0.2259  0.5552
  707loPI   GL1 9615   7.803  14.878   6.744 -0.1645 -0.0004 -0.4058
  707loPI   GL2 9616   7.489  14.935   6.816 -0.1333 -0.1267  0.0438
  707loPI   C1A 9617   8.050  14.932   7.120 -0.1473 -0.1127  0.1500
  707loPI   C2A 9618   8.356  14.946   7.463  0.1296  0.3870 -0.1492
  707loPI   C3A 9619   8.455  14.955   7.932  0.1150  0.1885  0.3005
  707loPI   C4A 9620   8.502  14.888   8.426  0.2288  0.0374  0.0832
  707loPI   C5A 9621   8.883  14.965   8.685  0.1353  0.0383 -0.1523
  707loPI   C6A 9622   9.134  14.828   8.921 -0.0429 -0.3342  0.1028
  707loPI   C1B 9623   7.459  15.026   7.254  0.0967 -0.0408  0.2300
  707loPI   C2B 9624   7.704  14.952   7.591  0.1684  0.1247  0.0508
  707loPI   C3B 9625   7.963  14.859   7.980 -0.0027 -0.0404  0.0436
  707loPI   C4B 9626   8.028  15.179   8.344 -0.1001  0.2222 -0.1032
  708loPI    C1 9627   0.399  16.081   5.548 -0.0927  0.2190 -0.2263
  708loPI    C2 9628   0.191  15.739   5.551  0.0644  0.1232 -0.0316
  708loPI    C3 9629   0.267  15.924   5.204 -0.0215 -0.0389 -0.1382
  708loPI   PO4 9630   0.242  16.207   5.766  0.0321 -0.1149  0.2294
  708loPI   GL1 9631   0.477  16.168   6.110 -0.0706 -0.0525 -0.2350
  708loPI   GL2 9632   0.246  16.056   6.280  0.2984  0.3424  0.1047
  708loPI   C1A 9633   0.531  16.410   6.495  0.1909  0.3768 -0.1069
  708loPI   C2A 9634   0.857  16.360   6.778  0.2229  0.5003 -0.0642
  708loPI   C3A 9635   0.892  16.333   7.297  0.0007  0.0104 -0.3484
  708loPI   C4A 9636   1.028  16.232   7.590  0.0422 -0.0359 -0.0689
  708loPI   C5A 9637   1.099  16.205   7.993 -0.3338  0.0193  0.0199
  708loPI   C6A 9638   1.247  16.534   8.302  0.1594  0.0592  0.1508
  708loPI   C1B 9639   0.183  15.675   6.572  0.0201  0.0603 -0.0203
  708loPI   C2B 9640   0.211  15.663   7.088 -0.1651 -0.1631  0.1547
  708loPI   C3B 9641   0.399  15.633   7.575 -0.0972 -0.0322  0.1886
  708loPI   C4B 9642   0.034  15.534   7.896 -0.4215  0.1410 -0.0111
  709loPI    C1 9643  15.972  16.875   5.584 -0.1120 -0.2113 -0.1213
  709loPI    C2 9644  16.199  16.918   5.257  0.0649  0.1271  0.0406
  709loPI    C3 9645  15.801  16.947   5.229  0.0715  0.0398 -0.1623
  709loPI   PO4 9646  16.129  16.736   5.725 -0.0973 -0.0731 -0.0737
  709loPI   GL1 9647  16.341  16.830   6.138 -0.0258 -0.0399  0.4137
  709loPI   GL2 9648  16.679  16.694   6.364 -0.2475  0.2737  0.2762
  709loPI   C1A 9649  16.178  16.760   6.517  0.1669  0.1912 -0.2817
  709loPI   C2A 9650  16.166  16.848   6.919 -0.1848 -0.0644  0.1665
  709loPI   C3A 9651  16.152  16.771   7.306  0.4585  0.1545 -0.0759
  709loPI   C4A 9652  16.218  16.505   7.632  0.1352  0.0152 -0.2935
  709loPI   C5A 9653  16.101  16.196   7.959 -0.0665 -0.3010  0.0555
  709loPI   C6A 9654  16.048  15.980   8.255 -0.2216 -0.2619  0.1112
  709loPI   C1B 9655  16.528  16.349   6.580  0.0231  0.0398  0.0200
  709loPI   C2B 9656  16.457  15.973   6.858 -0.2647 -0.0309 -0.2664
  709loPI   C3B 9657  16.349  15.509   6.681 -0.0584 -0.2606 -0.0126
  709loPI   C4B 9658  16.133  15.564   6.338  0.1077  0.3112 -0.0231
  710loPI    C1 9659   0.359   0.848   5.805 -0.2698 -0.1467 -0.1142
  710loPI    C2 9660   0.161   0.739   5.475  0.0034  0.1076 -0.3688
  710loPI    C3 9661   0.516   0.574   5.560 -0.0723  0.0326 -0.1915
  710loPI   PO4 9662   0.197   0.890   5.964 -0.2042  0.1709  0.0309
  710loPI   GL1 9663  -0.032   1.081   6.337 -0.1401  0.0560  0.3580
  710loPI   GL2 9664   0.100   1.367   6.450 -0.1427  0.2509 -0.3634
  710loPI   C1A 9665  -0.118   1.004   6.853  0.0782  0.3523 -0.0392
  710loPI   C2A 9666  -0.220   1.166   7.173 -0.2458 -0.0922  0.1200
  710loPI   C3A 9667  -0.011   1.350   7.457  0.2217 -0.1850  0.0009
  710loPI   C4A 9668   0.103   1.306   7.844 -0.2374 -0.3130  0.0213
  710loPI   C5A 9669   0.446   1.147   8.187  0.3274 -0.3326 -0.3835
  710loPI   C6A 9670   0.458   0.899   8.534 -0.2265  0.1434  0.1077
  710loPI   C1B 9671   0.003   1.480   6.832 -0.0266 -0.0470 -0.1557
  710loPI   C2B 9672  -0.193   1.677   7.140 -0.1613 -0.0090  0.1208
  710loPI   C3B 9673  -0.491   1.489   7.436  0.1667  0.1626 -0.0021
  710loPI   C4B 9674  -0.426   1.104   7.722 -0.2448 -0.1511 -0.1580
  711loPI    C1 9675   3.943  17.248   5.851  0.2266  0.1958 -0.1810
  711loPI    C2 9676   3.992  16.943   5.597 -0.0475  0.0218 -0.0301
  711loPI    C3 9677   3.778  17.263   5.486  0.0368  0.0533 -0.1029
  711loPI   PO4 9678   4.080  17.216   6.093  0.1273 -0.1164 -0.0033
  711loPI   GL1 9679   4.310  17.070   6.325 -0.2613  0.0882 -0.0641
  711loPI   GL2 9680   4.547  17.150   6.317 -0.0724  0.0908  0.2640
  711loPI   C1A 9681   4.252  17.064   6.781  0.0119  0.0591 -0.0974
  711loPI   C2A 9682   4.257  16.884   7.251 -0.3221 -0.0898 -0.1340
  711loPI   C3A 9683   4.234  16.675   7.681 -0.0081  0.4627  0.0219
  711loPI   C4A 9684   4.119  16.705   8.075  0.2019  0.1627  0.2243
  711loPI   C5A 9685   4.052  16.479   8.489 -0.0516 -0.1681  0.0907
  711loPI   C6A 9686   4.334  16.263   8.635 -0.0261 -0.1943  0.0553
  711loPI   C1B 9687   4.733  17.333   6.797  0.0603  0.0269 -0.2497
  711loPI   C2B 9688   4.732  17.259   7.193  0.3717 -0.0535  0.1862
  711loPI   C3B 9689   4.509  17.238   7.515 -0.1648 -0.0607  0.0354
  711loPI   C4B 9690   4.252  17.204   7.836  0.1300 -0.1513  0.2308
  712loPI    C1 9691   8.728  13.277   5.724 -0.1349  0.1988 -0.0935
  712loPI    C2 9692   8.330  13.307   5.758 -0.1537 -0.0640 -0.0545
  712loPI    C3 9693   8.495  13.231   5.402 -0.1421 -0.0218 -0.0583
  712loPI   PO4 9694   8.763  13.109   5.969 -0.2928 -0.2559  0.3738
  712loPI   GL1 9695   8.614  13.028   6.455  0.0060  0.0623 -0.0376
  712loPI   GL2 9696   8.343  12.933   6.605 -0.1058  0.5070 -0.1994
  712loPI   C1A 9697   8.845  13.064   6.844  0.0014  0.0949  0.2738
  712loPI   C2A 9698   8.775  13.107   7.236  0.3152 -0.0655  0.0201
  712loPI   C3A 9699   8.895  13.115   7.628  0.0963  0.1143  0.1308
  712loPI   C4A 9700   8.834  13.214   7.926  0.3276  0.1038  0.1554
  712loPI   C5A 9701   8.624  13.424   8.275 -0.2033  0.1607 -0.0782
  712loPI   C6A 9702   8.426  13.513   8.671  0.0412  0.0545 -0.5339
  712loPI   C1B 9703   8.332  13.057   7.058  0.1221 -0.0893 -0.1732
  712loPI   C2B 9704   8.382  13.104   7.467  0.1857 -0.0197 -0.3268
  712loPI   C3B 9705   8.507  12.858   7.837 -0.2818  0.2140  0.1173
  712loPI   C4B 9706   8.755  12.858   8.250  0.3979  0.2037 -0.2817
  713loPI    C1 9707  12.619   2.361   5.132 -0.1614  0.0070  0.0851
  713loPI    C2 9708  12.714   2.095   4.849  0.2146 -0.0850  0.2901
  713loPI    C3 9709  12.865   2.465   4.834  0.1508 -0.0577  0.3149
  713loPI   PO4 9710  12.672   2.192   5.367 -0.0948  0.0375 -0.0796
  713loPI   GL1 9711  12.813   2.272   5.757  0.1415 -0.2115  0.1231
  713loPI   GL2 9712  12.639   2.500   5.931  0.0249  0.4531  0.0908
  713loPI   C1A 9713  13.068   2.100   6.098 -0.2755  0.1199  0.1246
  713loPI   C2A 9714  13.040   2.157   6.527  0.0518  0.0341  0.0200
  713loPI   C3A 9715  13.117   1.917   6.979  0.1844  0.2384  0.0101
  713loPI   C4A 9716  13.190   2.001   7.367 -0.1102 -0.0664 -0.0830
  713loPI   C5A 9717  13.623   1.950   7.595 -0.2979  0.0806 -0.2413
  713loPI   C6A 9718  13.958   1.861   7.884  0.0527  0.1042 -0.0385
  713loPI   C1B 9719  12.726   2.497   6.313  0.0991  0.1797  0.2668
  713loPI   C2B 9720  12.711   2.525   6.717 -0.0437  0.1697  0.1801
  713loPI   C3B 9721  12.563   2.544   7.174  0.0217  0.1881  0.1028
  713loPI   C4B 9722  12.495   2.668   7.539 -0.1891  0.3419  0.1089
  714loPI    C1 9723  14.968  16.996   5.355  0.1523 -0.2287  0.1737
  714loPI    C2 9724  14.966  16.631   5.192  0.1413 -0.0929 -0.1364
  714loPI    C3 9725  15.297  16.855   5.177  0.2548 -0.2167  0.3511
  714loPI   PO4 9726  15.031  17.031   5.630  0.0411  0.1456 -0.1259
  714loPI   GL1 9727  14.990  17.337   5.956  0.0074 -0.0927  0.1915
  714loPI   GL2 9728  15.220  17.096   6.058 -0.1817  0.2488  0.0926
  714loPI   C1A 9729  14.871  17.211   6.397  0.2587 -0.0295  0.0126
  714loPI   C2A 9730  14.909  17.347   6.784  0.0582 -0.0933 -0.1265
  714loPI   C3A 9731  15.037  17.425   7.184 -0.2001  0.1913  0.1253
  714loPI   C4A 9732  14.929  17.498   7.545 -0.0567 -0.2891  0.2385
  714loPI   C5A 9733  15.099  17.397   7.910  0.1237  0.0070  0.2008
  714loPI   C6A 9734  15.434  17.149   8.034  0.0231  0.0969 -0.0285
  714loPI   C1B 9735  15.359  17.301   6.427  0.0120 -0.0684  0.3482
  714loPI   C2B 9736  15.416  17.365   6.837  0.0602  0.1945 -0.3213
  714loPI   C3B 9737  15.565  17.483   7.204  0.0527  0.1024  0.1414
  714loPI   C4B 9738  15.514  17.680   7.485  0.4487  0.0955  0.0713
  715loPI    C1 9739   7.269  17.897   6.294  0.0043 -0.0429  0.2224
  715loPI    C2 9740   7.102  17.535   6.327  0.0685 -0.0904  0.0366
  715loPI    C3 9741   7.246  17.658   5.975 -0.0796  0.1721  0.0650
  715loPI   PO4 9742   7.012  18.046   6.305  0.1696  0.0056  0.3445
  715loPI   GL1 9743   7.022  18.347   6.576 -0.4454 -0.0855 -0.0654
  715loPI   GL2 9744   7.353  18.308   6.550 -0.0340  0.5003 -0.2025
  715loPI   C1A 9745   6.899  18.448   7.107 -0.1186  0.4575  0.0827
  715loPI   C2A 9746   7.046  18.427   7.457 -0.1136  0.1497 -0.2251
  715loPI   C3A 9747   6.956  18.441   7.857 -0.1037  0.4502  0.1778
  715loPI   C4A 9748   6.765  18.593   8.216 -0.0059 -0.1664 -0.1382
  715loPI   C5A 9749   7.122  18.775   8.432 -0.2000  0.0750 -0.3302
  715loPI   C6A 9750   7.584  19.015   8.332  0.2310  0.0440 -0.0844
  715loPI   C1B 9751   7.546  18.327   6.896  0.0935  0.0298  0.1437
  715loPI   C2B 9752   7.552  18.416   7.351 -0.0516  0.2336 -0.2196
  715loPI   C3B 9753   7.560  18.547   7.741 -0.0347  0.0922  0.0687
  715loPI   C4B 9754   7.340  18.706   8.019 -0.0239 -0.3487  0.0169
  716loPI    C1 9755   5.288   6.868   5.404  0.0451  0.1538  0.3278
  716loPI    C2 9756   4.950   6.886   5.617 -0.0327  0.3373  0.1916
  716loPI    C3 9757   4.956   7.020   5.240  0.0429 -0.1954 -0.0051
  716loPI   PO4 9758   5.385   6.662   5.498  0.1321  0.1512  0.2941
  716loPI   GL1 9759   5.520   6.630   5.943 -0.0770  0.0127  0.3898
  716loPI   GL2 9760   5.355   6.915   6.080 -0.2583 -0.2780 -0.0410
  716loPI   C1A 9761   5.756   6.572   6.359  0.3168 -0.2326  0.1200
  716loPI   C2A 9762   5.786   6.658   6.818 -0.2210  0.1544 -0.1856
  716loPI   C3A 9763   5.851   6.577   7.275 -0.1666  0.0092 -0.3634
  716loPI   C4A 9764   5.935   6.354   7.549  0.0075  0.0258 -0.3971
  716loPI   C5A 9765   6.160   6.199   7.867 -0.1972 -0.2392  0.1810
  716loPI   C6A 9766   6.178   6.266   8.321 -0.0079 -0.0568 -0.2757
  716loPI   C1B 9767   5.502   6.973   6.509  0.0876 -0.1007  0.0713
  716loPI   C2B 9768   5.557   7.106   6.903 -0.1412 -0.1086 -0.2385
  716loPI   C3B 9769   5.506   6.948   7.355 -0.3737  0.0402  0.2071
  716loPI   C4B 9770   5.344   6.929   7.768 -0.2402  0.0912 -0.2123
  717loPI    C1 9771   5.108  16.055   6.163  0.0737  0.0826  0.3272
  717loPI    C2 9772   5.447  16.177   5.989 -0.0161 -0.0739  0.0343
  717loPI    C3 9773   5.111  16.388   5.941 -0.0359 -0.1045  0.0392
  717loPI   PO4 9774   5.205  16.019   6.434 -0.2292  0.0750  0.2415
  717loPI   GL1 9775   5.023  16.177   6.827  0.0649 -0.3045 -0.3390
  717loPI   GL2 9776   4.740  16.184   6.538 -0.3182 -0.1132  0.2015
  717loPI   C1A 9777   5.009  16.360   7.210 -0.1932  0.0141  0.0215
  717loPI   C2A 9778   5.098  16.365   7.620  0.0178  0.6309  0.0003
  717loPI   C3A 9779   5.040  16.617   7.951  0.4284  0.3420  0.1228
  717loPI   C4A 9780   5.140  16.982   8.272 -0.0412  0.1304 -0.4128
  717loPI   C5A 9781   5.286  17.354   8.387  0.1928  0.0062  0.2366
  717loPI   C6A 9782   5.252  17.787   8.584  0.1007  0.0188  0.4246
  717loPI   C1B 9783   4.562  16.388   6.929  0.1104  0.3957 -0.5774
  717loPI   C2B 9784   4.511  16.427   7.331 -0.0035  0.2852  0.0239
  717loPI   C3B 9785   4.623  16.428   7.736 -0.1554  0.0651  0.1050
  717loPI   C4B 9786   4.542  16.388   8.186 -0.2182  0.1182 -0.0589
  718loPI    C1 9787  12.890   0.842   5.412  0.1166  0.2751 -0.2781
  718loPI    C2 9788  12.751   0.612   5.116 -0.1600 -0.0752  0.1118
  718loPI    C3 9789  12.545   0.935   5.232 -0.0520  0.0615 -0.0721
  718loPI   PO4 9790  12.927   0.760   5.785 -0.3344  0.1213  0.2301
  718loPI   GL1 9791  12.990   1.003   6.185  0.0755  0.0072  0.1253
  718loPI   GL2 9792  12.595   1.116   6.145 -0.0918  0.1717  0.1902
  718loPI   C1A 9793  13.040   0.878   6.664  0.5958 -0.1807  0.2865
  718loPI   C2A 9794  13.135   0.929   7.056  0.0321  0.0726 -0.0806
  718loPI   C3A 9795  13.212   0.955   7.500 -0.1472  0.3064 -0.2021
  718loPI   C4A 9796  13.346   1.180   7.884  0.4258 -0.1228 -0.0935
  718loPI   C5A 9797  13.002   1.335   8.102  0.1243  0.0394 -0.1502
  718loPI   C6A 9798  12.638   1.081   8.284 -0.1056 -0.0913  0.2346
  718loPI   C1B 9799  12.544   1.151   6.591  0.1632 -0.2135  0.2173
  718loPI   C2B 9800  12.598   1.008   6.915 -0.1444 -0.1808 -0.0544
  718loPI   C3B 9801  12.712   0.879   7.413 -0.1162 -0.0627  0.2189
  718loPI   C4B 9802  12.915   0.885   7.887 -0.1686  0.1035 -0.0627
  719loPI    C1 9803  16.044   4.419   5.547 -0.0348  0.1433  0.0333
  719loPI    C2 9804  15.725   4.280   5.350  0.1201 -0.2276  0.0340
  719loPI    C3 9805  16.001   4.496   5.157 -0.0669 -0.0083  0.0063
  719loPI   PO4 9806  16.013   4.237   5.785  0.2777  0.0531  0.1206
  719loPI   GL1 9807  15.758   4.138   6.083 -0.1547 -0.0685 -0.3110
  719loPI   GL2 9808  15.797   3.897   6.061  0.0729  0.1556  0.1527
  719loPI   C1A 9809  15.972   4.294   6.452  0.4680 -0.1814  0.3055
  719loPI   C2A 9810  15.816   4.296   6.899  0.0675 -0.0394 -0.3320
  719loPI   C3A 9811  15.732   4.312   7.403 -0.0956  0.2499  0.0820
  719loPI   C4A 9812  15.639   4.065   7.792  0.2163 -0.4649 -0.1004
  719loPI   C5A 9813  15.119   4.093   7.972 -0.0552 -0.2948  0.0586
  719loPI   C6A 9814  14.672   4.234   8.054 -0.1133  0.0997 -0.2056
  719loPI   C1B 9815  15.728   3.763   6.554  0.0573  0.6166 -0.2056
  719loPI   C2B 9816  15.686   3.850   7.015 -0.1466 -0.2759  0.2590
  719loPI   C3B 9817  15.877   3.753   7.487 -0.0026  0.0158  0.2124
  719loPI   C4B 9818  15.731   3.562   7.958 -0.0022  0.3986 -0.0768
  720loPI    C1 9819  15.491   4.420   5.797  0.1398 -0.1324 -0.0968
  720loPI    C2 9820  15.116   4.357   5.674  0.0572  0.0458  0.0596
  720loPI    C3 9821  15.223   4.260   6.047  0.1517  0.0493  0.0335
  720loPI   PO4 9822  15.603   4.620   5.799 -0.0267 -0.0811 -0.0222
  720loPI   GL1 9823  15.771   4.762   6.202 -0.1790  0.0769 -0.1657
  720loPI   GL2 9824  15.638   4.701   6.453 -0.0243 -0.1398 -0.0428
  720loPI   C1A 9825  16.129   4.747   6.441  0.4506 -0.1083 -0.2022
  720loPI   C2A 9826  16.231   4.597   6.853 -0.0308 -0.0776 -0.1628
  720loPI   C3A 9827  16.102   4.724   7.228 -0.0543 -0.2165 -0.0760
  720loPI   C4A 9828  16.033   4.793   7.650 -0.0612 -0.2192  0.0473
  720loPI   C5A 9829  15.786   4.598   7.984  0.2055  0.1270  0.0344
  720loPI   C6A 9830  15.429   4.460   8.187 -0.1157 -0.1523  0.1916
  720loPI   C1B 9831  15.796   4.866   6.822 -0.2161  0.0308  0.0038
  720loPI   C2B 9832  15.704   5.001   7.266 -0.1857 -0.1143  0.2797
  720loPI   C3B 9833  15.410   5.341   7.376 -0.1029  0.1234 -0.2969
  720loPI   C4B 9834  15.328   5.720   7.650 -0.2843 -0.2078  0.1022
  721loPI    C1 9835  12.092   9.995   5.617 -0.0056 -0.0656 -0.2079
  721loPI    C2 9836  12.464  10.093   5.508  0.0495  0.0850  0.1048
  721loPI    C3 9837  12.386   9.726   5.645  0.0588  0.0182 -0.0667
  721loPI   PO4 9838  11.928  10.301   5.808  0.2507  0.1770  0.1776
  721loPI   GL1 9839  12.232  10.307   6.075  0.0125 -0.0672  0.2625
  721loPI   GL2 9840  12.495  10.182   6.023 -0.1852 -0.2995 -0.1870
  721loPI   C1A 9841  12.178  10.641   6.356 -0.1075  0.3495  0.0943
  721loPI   C2A 9842  12.331  10.899   6.692  0.0162  0.1450 -0.0672
  721loPI   C3A 9843  12.367  10.869   7.170 -0.1753 -0.0108  0.1385
  721loPI   C4A 9844  12.317  10.741   7.540 -0.0088  0.0010 -0.0035
  721loPI   C5A 9845  12.117  10.628   7.982 -0.1077  0.1855 -0.2340
  721loPI   C6A 9846  11.896  10.418   8.257 -0.0660  0.0525  0.1022
  721loPI   C1B 9847  12.480  10.116   6.526 -0.0607 -0.2583 -0.0895
  721loPI   C2B 9848  12.682  10.088   6.833  0.3873  0.3852 -0.0331
  721loPI   C3B 9849  12.801  10.000   7.257 -0.0780 -0.0770  0.0492
  721loPI   C4B 9850  13.034   9.913   7.607 -0.2858 -0.1008 -0.2276
  722loPI    C1 9851  14.682   9.506   5.590 -0.1980 -0.2139 -0.2745
  722loPI    C2 9852  14.837   9.814   5.387 -0.0293 -0.1304 -0.0243
  722loPI    C3 9853  14.457   9.827   5.511 -0.0485 -0.0613 -0.0902
  722loPI   PO4 9854  14.944   9.468   5.783 -0.0923 -0.2494  0.1362
  722loPI   GL1 9855  15.129   9.422   6.076  0.1857  0.0621 -0.2252
  722loPI   GL2 9856  15.095   9.732   6.225  0.0757  0.0306 -0.2481
  722loPI   C1A 9857  14.988   9.356   6.535  0.0645  0.1250  0.2362
  722loPI   C2A 9858  15.001   9.324   7.040 -0.1427 -0.0437  0.2864
  722loPI   C3A 9859  14.724   9.050   7.168  0.0788 -0.3418  0.0765
  722loPI   C4A 9860  14.632   8.684   7.380 -0.0247  0.3641 -0.1081
  722loPI   C5A 9861  14.707   8.331   7.434  0.2697 -0.2528 -0.3516
  722loPI   C6A 9862  14.788   7.998   7.242 -0.1394 -0.0020 -0.0413
  722loPI   C1B 9863  15.080   9.868   6.599  0.1658  0.1172 -0.1620
  722loPI   C2B 9864  15.182   9.828   7.039 -0.1165  0.2545  0.0069
  722loPI   C3B 9865  15.355   9.644   7.323 -0.1613 -0.1491 -0.2300
  722loPI   C4B 9866  15.534   9.573   7.740  0.1436 -0.0810 -0.0241
  723loPI    C1 9867   9.193   5.068   5.806  0.1444 -0.0329  0.0296
  723loPI    C2 9868   8.817   5.033   5.938  0.0567 -0.0947 -0.2301
  723loPI    C3 9869   8.919   4.879   5.583  0.2492  0.2043 -0.3079
  723loPI   PO4 9870   9.250   5.345   5.899  0.1862 -0.0538 -0.0985
  723loPI   GL1 9871   8.920   5.456   6.135 -0.1206 -0.1739  0.0085
  723loPI   GL2 9872   9.175   5.766   6.214  0.2015 -0.0482 -0.1608
  723loPI   C1A 9873   8.988   5.488   6.523  0.0851  0.0840 -0.2038
  723loPI   C2A 9874   9.055   5.462   6.933  0.1566  0.0189 -0.1538
  723loPI   C3A 9875   8.990   5.635   7.362 -0.0246  0.0290  0.0754
  723loPI   C4A 9876   8.747   5.579   7.798  0.3381 -0.0125  0.0317
  723loPI   C5A 9877   8.394   5.812   7.968 -0.0110 -0.0564  0.1218
  723loPI   C6A 9878   8.174   6.049   8.239 -0.0899 -0.2011 -0.1880
  723loPI   C1B 9879   9.283   5.875   6.586 -0.1175  0.0239  0.0797
  723loPI   C2B 9880   9.415   5.901   7.096 -0.0231  0.1070  0.4577
  723loPI   C3B 9881   9.509   5.624   7.369  0.0551  0.2630  0.1069
  723loPI   C4B 9882   9.351   5.386   7.685 -0.0387  0.3685 -0.2985
  724loPI    C1 9883  10.978  11.579   5.543 -0.2763 -0.2199 -0.2018
  724loPI    C2 9884  11.051  11.861   5.269 -0.0427 -0.0590  0.0211
  724loPI    C3 9885  10.979  11.485   5.155 -0.0225  0.0210 -0.2632
  724loPI   PO4 9886  10.840  11.665   5.738  0.6095 -0.1265 -0.4000
  724loPI   GL1 9887  10.771  11.760   6.087  0.0993  0.1765 -0.1378
  724loPI   GL2 9888  10.541  12.052   6.292  0.4325  0.0074  0.2995
  724loPI   C1A 9889  10.825  11.503   6.418 -0.0101  0.1551  0.0988
  724loPI   C2A 9890  10.878  11.502   6.903  0.2466 -0.0825  0.0925
  724loPI   C3A 9891  10.887  11.558   7.336 -0.0277  0.1381  0.0666
  724loPI   C4A 9892  10.980  11.304   7.741 -0.0347 -0.1157  0.0411
  724loPI   C5A 9893  10.950  10.951   7.899 -0.3691  0.1580  0.2602
  724loPI   C6A 9894  11.060  10.564   7.937 -0.1802  0.0999 -0.2724
  724loPI   C1B 9895  10.516  11.895   6.601  0.2448 -0.0185 -0.2942
  724loPI   C2B 9896  10.455  11.849   7.049  0.1413 -0.0850  0.2624
  724loPI   C3B 9897  10.553  12.024   7.440  0.2195  0.0581 -0.0710
  724loPI   C4B 9898  10.866  11.879   7.816  0.0608  0.0205 -0.0500
  725loPI    C1 9899  13.244   8.226   5.560 -0.2704 -0.0068 -0.0681
  725loPI    C2 9900  13.195   7.886   5.356 -0.2081 -0.0008 -0.0933
  725loPI    C3 9901  13.200   8.236   5.163  0.1365 -0.0153 -0.1177
  725loPI   PO4 9902  13.053   8.270   5.757  0.2016  0.0679  0.0716
  725loPI   GL1 9903  13.079   8.051   6.081 -0.1125  0.1478 -0.2724
  725loPI   GL2 9904  13.076   7.787   5.809  0.3035  0.2160  0.1147
  725loPI   C1A 9905  13.009   7.916   6.539 -0.1836  0.0082  0.1837
  725loPI   C2A 9906  12.641   8.194   6.797  0.2738  0.0455 -0.2196
  725loPI   C3A 9907  12.630   8.295   7.135  0.0538 -0.2054  0.3244
  725loPI   C4A 9908  12.516   8.415   7.483  0.2502 -0.4343  0.4378
  725loPI   C5A 9909  12.332   8.652   7.760 -0.1078 -0.2517 -0.3873
  725loPI   C6A 9910  12.485   8.532   8.085  0.1825 -0.0083 -0.1089
  725loPI   C1B 9911  12.889   7.505   6.199  0.1029  0.0783 -0.2337
  725loPI   C2B 9912  12.953   7.439   6.599 -0.0977 -0.0178  0.1315
  725loPI   C3B 9913  13.055   7.367   7.079 -0.1666 -0.1083 -0.1561
  725loPI   C4B 9914  12.948   7.389   7.519 -0.1744  0.2146 -0.0915
  726loPI    C1 9915  12.550  13.465   5.511  0.0679  0.0131  0.0031
  726loPI    C2 9916  12.690  13.698   5.217 -0.0063  0.1927  0.1084
  726loPI    C3 9917  12.407  13.426   5.140 -0.2118  0.4164  0.0621
  726loPI   PO4 9918  12.793  13.349   5.602  0.0597  0.2294 -0.3025
  726loPI   GL1 9919  12.976  13.084   6.043  0.0057 -0.1515  0.0186
  726loPI   GL2 9920  12.659  12.841   6.046 -0.1858 -0.0332  0.0423
  726loPI   C1A 9921  12.983  13.238   6.449  0.0504  0.2056 -0.0980
  726loPI   C2A 9922  12.948  13.437   6.951  0.0219 -0.0113 -0.0655
  726loPI   C3A 9923  12.779  13.532   7.336 -0.1039 -0.2505 -0.0704
  726loPI   C4A 9924  12.874  13.591   7.817 -0.1759  0.0477  0.1107
  726loPI   C5A 9925  12.906  13.228   8.150 -0.0739  0.0547 -0.1229
  726loPI   C6A 9926  12.933  12.916   8.359  0.0950 -0.1533 -0.2666
  726loPI   C1B 9927  12.630  12.878   6.507 -0.0813 -0.0841  0.0955
  726loPI   C2B 9928  12.666  12.845   6.835 -0.2654 -0.1161 -0.2530
  726loPI   C3B 9929  12.704  13.045   7.139  0.0336 -0.0420 -0.1198
  726loPI   C4B 9930  12.623  13.091   7.692 -0.1000  0.0573  0.0382
  727loPI    C1 9931   2.163   6.656   5.553 -0.0844 -0.2121  0.1405
  727loPI    C2 9932   2.113   6.884   5.229 -0.1100 -0.0596  0.2508
  727loPI    C3 9933   2.298   6.531   5.198  0.0469  0.0340  0.1016
  727loPI   PO4 9934   2.302   6.841   5.703 -0.0965 -0.1067  0.1171
  727loPI   GL1 9935   2.573   7.050   6.121 -0.0235 -0.0745  0.3200
  727loPI   GL2 9936   2.650   6.716   6.296  0.2891 -0.0331 -0.1421
  727loPI   C1A 9937   2.583   7.265   6.396 -0.1316  0.1850 -0.1708
  727loPI   C2A 9938   2.608   7.220   6.828 -0.1211  0.0883 -0.0159
  727loPI   C3A 9939   2.503   7.016   7.241  0.2049 -0.2935  0.1429
  727loPI   C4A 9940   2.537   6.696   7.462  0.1925 -0.0457 -0.0745
  727loPI   C5A 9941   2.638   6.600   7.956  0.2178 -0.1652  0.0077
  727loPI   C6A 9942   2.617   6.594   8.375 -0.0423  0.0648 -0.0777
  727loPI   C1B 9943   2.698   6.690   6.853  0.1307 -0.0831  0.0114
  727loPI   C2B 9944   2.929   6.705   7.120  0.0019 -0.3504 -0.0717
  727loPI   C3B 9945   2.991   6.796   7.589  0.2492  0.2563 -0.1637
  727loPI   C4B 9946   3.151   6.629   7.901  0.0607  0.2009 -0.1951
  728loPI    C1 9947   0.285  17.440   5.737  0.1409 -0.0227 -0.0305
  728loPI    C2 9948   0.062  17.618   6.017  0.0788  0.0894 -0.1499
  728loPI    C3 9949   0.032  17.733   5.635  0.2842  0.0509 -0.1786
  728loPI   PO4 9950   0.298  17.197   5.842 -0.2251 -0.0941 -0.2770
  728loPI   GL1 9951   0.041  17.083   6.137 -0.2420 -0.0353 -0.1029
  728loPI   GL2 9952  -0.198  17.208   6.303  0.2358 -0.0434 -0.2055
  728loPI   C1A 9953   0.251  17.280   6.528  0.2966  0.1234  0.2303
  728loPI   C2A 9954   0.163  17.273   6.897  0.3791  0.0513 -0.1110
  728loPI   C3A 9955   0.329  16.970   7.212 -0.0148  0.0812 -0.2855
  728loPI   C4A 9956   0.265  16.872   7.687  0.1879  0.2720 -0.1846
  728loPI   C5A 9957   0.326  16.861   8.114 -0.1296  0.0697 -0.1363
  728loPI   C6A 9958   0.389  17.169   8.361  0.3573  0.1236  0.0409
  728loPI   C1B 9959  -0.101  16.939   6.641  0.0987  0.3296  0.2371
  728loPI   C2B 9960  -0.121  16.690   7.029 -0.1106 -0.0407  0.2462
  728loPI   C3B 9961  -0.074  16.521   7.525  0.2554  0.0843 -0.2524
  728loPI   C4B 9962   0.116  16.425   7.893  0.0872  0.1020  0.0674
  729loPI    C1 9963  15.059   3.045   5.461  0.0170  0.1103  0.0300
  729loPI    C2 9964  15.047   3.235   5.109 -0.1237 -0.0254 -0.0401
  729loPI    C3 9965  15.130   2.844   5.122 -0.1854 -0.0353  0.0717
  729loPI   PO4 9966  15.287   3.302   5.670  0.0623 -0.0589  0.0571
  729loPI   GL1 9967  15.122   3.756   5.876  0.1839  0.0841  0.1841
  729loPI   GL2 9968  14.875   3.908   5.952 -0.1187 -0.1634 -0.0353
  729loPI   C1A 9969  15.375   3.750   6.224  0.0481 -0.2175 -0.2397
  729loPI   C2A 9970  15.207   3.680   6.718 -0.2202  0.1404  0.1950
  729loPI   C3A 9971  15.262   3.552   7.099 -0.1386  0.1970  0.0853
  729loPI   C4A 9972  15.006   3.383   7.431 -0.2380  0.0456  0.1064
  729loPI   C5A 9973  14.781   3.534   7.846  0.1262 -0.0570  0.1548
  729loPI   C6A 9974  14.466   3.777   8.076  0.0531  0.4172  0.1919
  729loPI   C1B 9975  14.932   3.891   6.406 -0.0250  0.1130  0.2319
  729loPI   C2B 9976  14.758   3.861   6.754  0.2609  0.1322 -0.1557
  729loPI   C3B 9977  14.593   3.601   7.154  0.0935  0.0370  0.1361
  729loPI   C4B 9978  14.463   3.316   7.529 -0.0713  0.1235 -0.1639
  730loPI    C1 9979   2.794   3.220   5.774  0.0441 -0.0216 -0.0415
  730loPI    C2 9980   2.588   3.482   5.554 -0.1299 -0.0782  0.0523
  730loPI    C3 9981   2.841   3.612   5.835  0.0880 -0.0058 -0.1741
  730loPI   PO4 9982   2.641   3.066   5.854 -0.0292 -0.1303  0.1628
  730loPI   GL1 9983   2.527   2.894   6.139  0.0348 -0.0021 -0.0615
  730loPI   GL2 9984   2.301   2.682   6.231 -0.1729 -0.0700 -0.0292
  730loPI   C1A 9985   2.475   3.160   6.480 -0.1213  0.0125  0.0915
  730loPI   C2A 9986   2.461   3.118   6.903  0.0275 -0.0015 -0.3647
  730loPI   C3A 9987   2.425   3.133   7.361  0.0772 -0.0237 -0.0379
  730loPI   C4A 9988   2.462   3.390   7.741  0.1681 -0.1650  0.1464
  730loPI   C5A 9989   2.360   3.522   8.177 -0.2280  0.1993  0.0222
  730loPI   C6A 9990   2.116   3.827   8.437 -0.1012 -0.1621 -0.1016
  730loPI   C1B 9991   2.064   2.854   6.629 -0.2541  0.1491  0.3539
  730loPI   C2B 9992   2.196   2.741   7.014  0.0064  0.0586 -0.2148
  730loPI   C3B 9993   2.102   2.661   7.491  0.0632  0.2014  0.1830
  730loPI   C4B 9994   2.177   2.483   7.905  0.0121 -0.3541  0.1178
  731loPI    C1 9995   5.861   3.441   5.993 -0.0508  0.1695 -0.2158
  731loPI    C2 9996   5.697   3.455   5.628  0.0752  0.0070 -0.2798
  731loPI    C3 9997   6.086   3.369   5.670  0.1109  0.2377 -0.1194
  731loPI   PO4 9998   5.753   3.738   6.155 -0.0237  0.1445  0.3143
  731loPI   GL1 9999   5.568   3.836   6.536  0.0647  0.0966  0.2191
  731loPI   GL210000   5.656   4.167   6.452  0.5632  0.3587  0.0743
  731loPI   C1A10001   5.648   3.788   6.839 -0.0689 -0.1803  0.0359
  731loPI   C2A10002   5.640   3.869   7.260  0.0104 -0.0528 -0.0269
  731loPI   C3A10003   5.588   4.055   7.625 -0.3072  0.2467 -0.0531
  731loPI   C4A10004   5.713   4.065   8.022  0.0967 -0.0708 -0.0528
  731loPI   C5A10005   6.043   3.974   8.180  0.2368 -0.0033  0.0728
  731loPI   C6A10006   6.183   3.759   8.560  0.3889  0.1536  0.3464
  731loPI   C1B10007   5.700   4.274   6.846  0.0230 -0.4290  0.2361
  731loPI   C2B10008   5.822   4.384   7.280  0.1739 -0.2848 -0.1582
  731loPI   C3B10009   5.852   4.518   7.727 -0.1602 -0.0929 -0.0650
  731loPI   C4B10010   5.890   4.473   8.162  0.1847 -0.1411  0.0154
  732loPI    C110011   5.936   5.817   5.675 -0.1604 -0.0918 -0.1286
  732loPI    C210012   5.759   5.520   5.475  0.0923 -0.1766 -0.2311
  732loPI    C310013   5.827   5.870   5.294  0.0322 -0.1445 -0.1923
  732loPI   PO410014   5.887   5.843   5.920 -0.0125  0.1619  0.0098
  732loPI   GL110015   5.676   6.002   6.245 -0.1452 -0.0659 -0.2074
  732loPI   GL210016   5.382   6.065   6.063 -0.0651 -0.0141  0.4389
  732loPI   C1A10017   5.531   5.689   6.557 -0.0867 -0.1505  0.0829
  732loPI   C2A10018   5.382   5.664   6.963  0.2028 -0.1599 -0.0957
  732loPI   C3A10019   5.139   5.593   7.346  0.0011  0.0022 -0.4164
  732loPI   C4A10020   5.047   5.512   7.796 -0.1396  0.1037 -0.2365
  732loPI   C5A10021   5.031   5.273   8.201 -0.0837 -0.0514 -0.2584
  732loPI   C6A10022   4.764   4.794   8.232  0.1615  0.1098  0.3854
  732loPI   C1B10023   5.244   6.380   6.336 -0.1940  0.1560 -0.1877
  732loPI   C2B10024   5.290   6.527   6.755 -0.1843  0.2513  0.3188
  732loPI   C3B10025   5.312   6.530   7.142 -0.2024  0.1424 -0.0776
  732loPI   C4B10026   5.385   6.465   7.518  0.1072 -0.0267 -0.0113
  733loPI    C110027   5.338   1.522   5.994 -0.0335  0.0370 -0.1141
  733loPI    C210028   5.238   1.749   5.680 -0.0510 -0.1143 -0.2192
  733loPI    C310029   5.576   1.536   5.673  0.2557  0.3426  0.1068
  733loPI   PO410030   5.251   1.592   6.204 -0.0327  0.1429  0.1063
  733loPI   GL110031   5.242   1.862   6.426  0.0474 -0.1511 -0.0429
  733loPI   GL210032   4.914   1.667   6.624  0.1254 -0.5734  0.2034
  733loPI   C1A10033   5.362   1.770   6.897  0.1960 -0.0266  0.1746
  733loPI   C2A10034   5.348   1.766   7.358  0.0261  0.3318 -0.0156
  733loPI   C3A10035   5.317   1.930   7.792 -0.0625  0.0396  0.0032
  733loPI   C4A10036   5.270   1.902   8.259  0.0286 -0.0797  0.0763
  733loPI   C5A10037   5.447   1.969   8.621  0.0525 -0.0999  0.5867
  733loPI   C6A10038   5.903   2.004   8.847 -0.0684 -0.1658 -0.1142
  733loPI   C1B10039   4.878   1.714   7.035 -0.1657  0.0856  0.1788
  733loPI   C2B10040   4.906   1.712   7.492 -0.2189 -0.2849 -0.2427
  733loPI   C3B10041   4.847   1.958   7.898  0.1188 -0.0262 -0.1076
  733loPI   C4B10042   4.793   2.331   8.188 -0.3507  0.1623  0.0118
  734loPI    C110043  10.034   8.736   5.288  0.0063  0.0292 -0.0304
  734loPI    C210044  10.301   8.938   5.507 -0.0480  0.0894 -0.0197
  734loPI    C310045  10.426   8.691   5.219  0.0156  0.2331 -0.1168
  734loPI   PO410046   9.861   8.659   5.503  0.0260 -0.0137  0.2298
  734loPI   GL110047   9.577   8.444   5.881  0.3533  0.2506  0.1950
  734loPI   GL210048   9.885   8.292   5.931  0.0232  0.0430  0.1554
  734loPI   C1A10049   9.799   8.726   6.148  0.1084 -0.0569 -0.0741
  734loPI   C2A10050  10.036   8.799   6.556  0.0485 -0.2572  0.1572
  734loPI   C3A10051  10.067   8.791   7.007  0.3494  0.1203 -0.1951
  734loPI   C4A10052  10.238   8.882   7.403 -0.1918  0.1325  0.2937
  734loPI   C5A10053  10.012   8.971   7.805  0.0711 -0.0624 -0.2257
  734loPI   C6A10054   9.696   9.236   8.058  0.2539 -0.4313  0.3540
  734loPI   C1B10055   9.819   8.230   6.380  0.0458  0.0784 -0.2919
  734loPI   C2B10056   9.750   8.318   6.773  0.1084  0.5010 -0.1383
  734loPI   C3B10057   9.666   8.240   7.258  0.0484 -0.1361 -0.0712
  734loPI   C4B10058   9.692   8.225   7.684  0.0303  0.1382 -0.2004
  735loPI    C110059  10.176  15.552   6.134 -0.2725  0.3706 -0.1204
  735loPI    C210060   9.952  15.326   5.892  0.1335 -0.0884 -0.0838
  735loPI    C310061  10.169  15.627   5.741 -0.2110  0.1220 -0.1707
  735loPI   PO410062  10.250  15.347   6.285  0.0254  0.1634  0.0475
  735loPI   GL110063  10.308  14.958   6.637 -0.0130 -0.2101 -0.1520
  735loPI   GL210064  10.589  15.211   6.679 -0.0429  0.1813 -0.1518
  735loPI   C1A10065  10.232  15.109   7.026 -0.1082  0.2075 -0.0291
  735loPI   C2A10066  10.265  15.323   7.388  0.0810 -0.0130  0.3005
  735loPI   C3A10067  10.107  15.266   7.803  0.1457  0.1401 -0.3408
  735loPI   C4A10068  10.019  15.354   8.290  0.2185 -0.0312 -0.2042
  735loPI   C5A10069  10.144  15.338   8.707 -0.1105  0.1147  0.1831
  735loPI   C6A10070  10.520  15.214   8.794 -0.1436 -0.0446 -0.1507
  735loPI   C1B10071  10.515  15.488   7.033 -0.1148  0.1791 -0.1719
  735loPI   C2B10072  10.559  15.765   7.332  0.2505 -0.3407 -0.0220
  735loPI   C3B10073  10.494  15.821   7.716 -0.1126 -0.2071  0.1938
  735loPI   C4B10074  10.155  15.726   8.015  0.1129  0.0450  0.0469
  736loPI    C110075   1.397  11.238   5.300 -0.1385  0.2883 -0.0088
  736loPI    C210076   1.095  11.095   5.080 -0.0492  0.2531 -0.1095
  736loPI    C310077   1.414  11.258   4.901 -0.0240  0.3226 -0.0027
  736loPI   PO410078   1.261  11.284   5.639 -0.2312  0.1922  0.1655
  736loPI   GL110079   1.463  11.185   5.998  0.1234 -0.1444 -0.2514
  736loPI   GL210080   1.603  11.401   6.216  0.1022  0.0570 -0.0904
  736loPI   C1A10081   1.487  10.960   6.344 -0.0387 -0.0285  0.0957
  736loPI   C2A10082   1.519  10.669   6.606  0.1102  0.0670  0.0429
  736loPI   C3A10083   1.362  10.443   7.043 -0.0459  0.0450  0.1753
  736loPI   C4A10084   1.201  10.212   7.345 -0.2799 -0.1171  0.1828
  736loPI   C5A10085   1.108  10.101   7.670  0.0403 -0.4874  0.2870
  736loPI   C6A10086   1.040   9.718   7.770  0.2104  0.1708 -0.1709
  736loPI   C1B10087   1.563  11.579   6.650 -0.3489 -0.0937  0.0191
  736loPI   C2B10088   1.726  11.538   7.097 -0.1744 -0.0071  0.2545
  736loPI   C3B10089   1.571  11.326   7.274 -0.1683  0.0048 -0.0179
  736loPI   C4B10090   1.156  11.044   7.391 -0.0799 -0.0720  0.1168
  737loPI    C110091  10.565   0.216   5.487 -0.0955  0.2044 -0.0491
  737loPI    C210092  10.622   0.326   5.107 -0.1485  0.1468 -0.0739
  737loPI    C310093  10.279   0.151   5.215 -0.0343 -0.0670 -0.0514
  737loPI   PO410094  10.852   0.125   5.550  0.1530  0.2888 -0.1139
  737loPI   GL110095  10.871  -0.139   5.912 -0.1038 -0.2084 -0.1850
  737loPI   GL210096  10.685  -0.197   6.244  0.2101  0.1249  0.0788
  737loPI   C1A10097  11.250  -0.143   6.309  0.0296 -0.3185 -0.0842
  737loPI   C2A10098  11.515  -0.024   6.779  0.1151 -0.1076  0.2811
  737loPI   C3A10099  11.494  -0.050   7.205  0.0894 -0.1703  0.1861
  737loPI   C4A10100  11.520  -0.086   7.604  0.0843  0.0932  0.2479
  737loPI   C5A10101  11.425   0.138   8.018 -0.0142  0.1139 -0.2789
  737loPI   C6A10102  11.535   0.253   8.401 -0.0359  0.1360 -0.0361
  737loPI   C1B10103  10.842  -0.034   6.598 -0.1839  0.0260  0.0346
  737loPI   C2B10104  11.052  -0.065   6.998 -0.2630  0.0430  0.0818
  737loPI   C3B10105  11.032   0.079   7.370  0.0848  0.1935 -0.3209
  737loPI   C4B10106  10.946   0.237   7.712 -0.0186  0.0912  0.2561
  738loPI    C110107   9.367   0.433   5.889 -0.0462  0.1958  0.1462
  738loPI    C210108   9.097   0.150   5.804 -0.0052  0.1474  0.1762
  738loPI    C310109   9.002   0.537   5.763  0.0034  0.1258 -0.0586
  738loPI   PO410110   9.534   0.265   6.089 -0.0542 -0.0439  0.0359
  738loPI   GL110111   9.758   0.139   6.417  0.3360  0.3332  0.2357
  738loPI   GL210112   9.636  -0.154   6.426  0.0946  0.0974 -0.0302
  738loPI   C1A10113   9.674   0.161   6.869 -0.0722 -0.2351  0.1402
  738loPI   C2A10114   9.764   0.180   7.178  0.0590 -0.1340 -0.0476
  738loPI   C3A10115   9.579   0.074   7.500  0.0383  0.2107  0.1805
  738loPI   C4A10116   9.533  -0.249   7.757  0.4418  0.1531  0.0485
  738loPI   C5A10117   9.664  -0.625   8.029 -0.0523  0.1016 -0.1364
  738loPI   C6A10118   9.405  -0.968   8.265 -0.2389 -0.0166 -0.0717
  738loPI   C1B10119   9.629  -0.345   6.781  0.0615  0.3260  0.1974
  738loPI   C2B10120   9.716  -0.384   7.186 -0.0376 -0.1448  0.0619
  738loPI   C3B10121   9.875  -0.576   7.582 -0.1598 -0.1829 -0.1545
  738loPI   C4B10122   9.750  -1.031   7.698  0.2591  0.1641 -0.1317
  739loPI    C110123   5.892  13.440   5.959  0.0697  0.0627  0.0810
  739loPI    C210124   5.560  13.601   5.805  0.0945  0.0521  0.0168
  739loPI    C310125   5.919  13.714   5.669  0.1159  0.0332  0.0575
  739loPI   PO410126   5.864  13.465   6.195  0.0709 -0.2747 -0.1007
  739loPI   GL110127   5.753  13.458   6.693 -0.0046 -0.0190 -0.2288
  739loPI   GL210128   5.502  13.509   6.543 -0.0057  0.3154 -0.2297
  739loPI   C1A10129   5.670  13.249   7.056  0.0319 -0.0066 -0.0645
  739loPI   C2A10130   5.828  13.249   7.495  0.1069 -0.1031  0.2906
  739loPI   C3A10131   5.907  13.579   7.816  0.3277 -0.3736  0.2480
  739loPI   C4A10132   5.921  14.016   7.900 -0.2562  0.0821  0.0832
  739loPI   C5A10133   5.990  14.398   8.192 -0.1082 -0.0726 -0.0949
  739loPI   C6A10134   6.235  14.792   8.188 -0.2590 -0.2120  0.0247
  739loPI   C1B10135   5.147  13.632   6.897 -0.1802  0.1173  0.0038
  739loPI   C2B10136   5.137  13.610   7.389  0.2806 -0.1879  0.7105
  739loPI   C3B10137   5.387  13.380   7.628  0.0437  0.2331 -0.1816
  739loPI   C4B10138   5.628  13.204   7.969  0.0302  0.2855  0.3054
  740loPI    C110139   3.074   7.589   5.672 -0.0597  0.2377 -0.0399
  740loPI    C210140   2.798   7.666   5.393 -0.0375  0.1855 -0.0763
  740loPI    C310141   3.099   7.415   5.313 -0.0704  0.1152  0.0180
  740loPI   PO410142   3.124   7.818   5.805 -0.1542  0.3481  0.2577
  740loPI   GL110143   3.195   7.833   6.243  0.0700 -0.2678  0.2513
  740loPI   GL210144   3.336   8.200   6.332 -0.3935  0.0822 -0.1109
  740loPI   C1A10145   3.317   7.855   6.734 -0.0211  0.0247  0.1369
  740loPI   C2A10146   3.345   7.677   7.115  0.1180  0.0163  0.0748
  740loPI   C3A10147   3.244   7.542   7.482 -0.0112  0.0359  0.0705
  740loPI   C4A10148   3.322   7.299   7.922  0.0991 -0.0567 -0.0042
  740loPI   C5A10149   3.447   6.900   8.154 -0.1620  0.1015 -0.1014
  740loPI   C6A10150   3.818   6.851   8.402 -0.0845 -0.2164 -0.2187
  740loPI   C1B10151   3.587   8.307   6.645 -0.2978  0.2141 -0.0491
  740loPI   C2B10152   3.529   8.170   7.062  0.1493 -0.0564 -0.0928
  740loPI   C3B10153   3.518   8.380   7.435 -0.0308 -0.0868  0.1239
  740loPI   C4B10154   3.746   8.679   7.704  0.0076  0.0373 -0.0177
  741loPI    C110155   1.587  17.573   5.766 -0.2272 -0.1126 -0.0914
  741loPI    C210156   1.780  17.879   5.595 -0.1944 -0.0168  0.1154
  741loPI    C310157   1.536  17.650   5.376 -0.1530  0.1043 -0.0595
  741loPI   PO410158   1.672  17.494   5.915  0.0752  0.3366  0.2128
  741loPI   GL110159   1.750  17.155   6.216  0.2035  0.0197  0.1539
  741loPI   GL210160   1.561  16.800   6.194 -0.0919 -0.1066  0.2105
  741loPI   C1A10161   1.888  17.167   6.591 -0.0539 -0.0113  0.0825
  741loPI   C2A10162   1.804  17.178   6.995  0.0223  0.2942  0.1080
  741loPI   C3A10163   1.950  17.309   7.364  0.1454  0.1428 -0.0694
  741loPI   C4A10164   2.112  17.231   7.674 -0.0767 -0.3311 -0.3231
  741loPI   C5A10165   1.871  17.329   8.157  0.3018 -0.0782 -0.2688
  741loPI   C6A10166   1.829  17.158   8.562  0.0545  0.4527 -0.0418
  741loPI   C1B10167   1.409  16.996   6.585 -0.2088 -0.4871 -0.0061
  741loPI   C2B10168   1.488  16.808   6.961  0.1690  0.1796  0.2411
  741loPI   C3B10169   1.276  16.660   7.401 -0.3017 -0.1501 -0.0034
  741loPI   C4B10170   1.136  16.799   7.866  0.0200  0.2791 -0.2328
  742loPI    C110171  14.896  15.153   5.449 -0.0904  0.0326 -0.2351
  742loPI    C210172  15.032  15.332   5.118 -0.0516 -0.1588 -0.3242
  742loPI    C310173  14.649  15.219   5.142 -0.1077  0.0484 -0.2178
  742loPI   PO410174  15.114  15.244   5.666  0.1299 -0.2148 -0.0802
  742loPI   GL110175  14.985  15.582   5.991  0.0586  0.1362 -0.0676
  742loPI   GL210176  15.279  15.726   6.037  0.0223  0.3404  0.1673
  742loPI   C1A10177  14.870  15.792   6.384  0.3146 -0.1400  0.3359
  742loPI   C2A10178  14.642  15.904   6.727 -0.0232  0.0178 -0.0628
  742loPI   C3A10179  14.661  16.267   7.144 -0.3630  0.4467  0.2281
  742loPI   C4A10180  14.764  16.388   7.489  0.0172 -0.0439 -0.0656
  742loPI   C5A10181  14.838  16.665   7.741 -0.1349  0.1873 -0.0356
  742loPI   C6A10182  14.954  16.859   8.093  0.0205 -0.1017  0.0833
  742loPI   C1B10183  15.441  15.741   6.432  0.0305  0.0446  0.1190
  742loPI   C2B10184  15.096  15.735   6.814 -0.3019  0.2429  0.0566
  742loPI   C3B10185  15.052  15.933   7.207  0.1741  0.2615  0.0646
  742loPI   C4B10186  15.123  16.047   7.677 -0.0675  0.0079 -0.0972
  743loPI    C110187   0.470   7.152   5.721 -0.0092  0.4017 -0.1675
  743loPI    C210188   0.379   6.809   5.536  0.3251  0.1732  0.0798
  743loPI    C310189   0.165   7.139   5.463 -0.1694 -0.1477  0.0370
  743loPI   PO410190   0.413   7.111   5.983  0.0090  0.1164  0.0585
  743loPI   GL110191   0.237   7.326   6.177 -0.1210  0.4155  0.3617
  743loPI   GL210192  -0.020   7.416   6.296  0.3647 -0.1965  0.2057
  743loPI   C1A10193   0.313   7.416   6.636  0.1810 -0.2140 -0.3069
  743loPI   C2A10194   0.441   7.749   6.793  0.2458  0.1280 -0.3119
  743loPI   C3A10195   0.395   7.861   7.260 -0.3077 -0.1794  0.0438
  743loPI   C4A10196   0.305   7.973   7.590  0.0681 -0.0350 -0.0089
  743loPI   C5A10197   0.288   8.128   7.944  0.0045 -0.1579 -0.0692
  743loPI   C6A10198  -0.005   8.367   8.145 -0.2065  0.3174  0.2021
  743loPI   C1B10199  -0.207   7.337   6.702  0.1985 -0.3240  0.0662
  743loPI   C2B10200  -0.235   7.058   7.013  0.2906 -0.2340 -0.0686
  743loPI   C3B10201  -0.270   7.170   7.407 -0.0018 -0.0276 -0.0763
  743loPI   C4B10202  -0.126   6.938   7.777 -0.1918 -0.0521  0.2268
  744loPI    C110203   4.658   0.362   5.922 -0.0103 -0.1578  0.0876
  744loPI    C210204   4.340   0.472   5.705  0.1125  0.3793  0.1657
  744loPI    C310205   4.680   0.365   5.523  0.0267  0.2347  0.0888
  744loPI   PO410206   4.532   0.389   6.157 -0.3042  0.1199 -0.2685
  744loPI   GL110207   4.524   0.463   6.627 -0.1903  0.0186 -0.0422
  744loPI   GL210208   4.216   0.520   6.527 -0.1676  0.1183 -0.3887
  744loPI   C1A10209   4.585   0.237   6.945 -0.0500 -0.3544 -0.0235
  744loPI   C2A10210   5.027   0.272   7.169 -0.0137 -0.1889  0.0014
  744loPI   C3A10211   5.487   0.402   7.164  0.0261 -0.1502 -0.1355
  744loPI   C4A10212   5.849   0.275   7.381  0.1914 -0.0171 -0.0275
  744loPI   C5A10213   6.137   0.082   7.658 -0.0719 -0.0306 -0.0844
  744loPI   C6A10214   6.339   0.021   7.993 -0.3175 -0.0178 -0.0718
  744loPI   C1B10215   4.141   0.403   6.947  0.0573 -0.1104 -0.0678
  744loPI   C2B10216   4.290   0.437   7.385 -0.1044 -0.3604 -0.1016
  744loPI   C3B10217   4.245   0.490   7.861 -0.4983  0.0706  0.0641
  744loPI   C4B10218   4.057   0.363   8.211 -0.0445 -0.2050 -0.0132
  745loPI    C110219  17.405   6.292   5.843 -0.4903 -0.0259 -0.0064
  745loPI    C210220  17.466   6.614   5.614 -0.2282  0.0036  0.1010
  745loPI    C310221  17.559   6.250   5.477  0.0429  0.0326  0.2021
  745loPI   PO410222  17.147   6.388   5.967  0.3414 -0.1990 -0.0834
  745loPI   GL110223  16.905   6.477   6.264 -0.0639 -0.1739 -0.0010
  745loPI   GL210224  16.742   6.761   6.144 -0.0821 -0.0909  0.0010
  745loPI   C1A10225  16.991   6.565   6.675 -0.2687  0.0994  0.0322
  745loPI   C2A10226  16.854   6.540   7.126  0.0513 -0.2057  0.1312
  745loPI   C3A10227  16.736   6.488   7.487 -0.0867  0.2131 -0.0548
  745loPI   C4A10228  16.522   6.294   7.885  0.2901  0.1959 -0.3953
  745loPI   C5A10229  16.246   6.590   8.131 -0.0355  0.0264  0.2300
  745loPI   C6A10230  15.869   6.544   8.190  0.1063 -0.2306 -0.0940
  745loPI   C1B10231  16.817   6.990   6.584 -0.0471  0.1243  0.1974
  745loPI   C2B10232  16.779   7.015   6.959 -0.3100  0.0823 -0.1705
  745loPI   C3B10233  16.911   7.074   7.193 -0.2323 -0.0010  0.0750
  745loPI   C4B10234  16.919   6.943   7.526  0.0662  0.3514  0.3283
  746loPI    C110235   5.807   7.356   5.095  0.1402  0.2756  0.0731
  746loPI    C210236   5.826   7.123   4.770 -0.0132  0.3218  0.0300
  746loPI    C310237   5.785   7.518   4.730 -0.1509  0.3158  0.1065
  746loPI   PO410238   5.644   7.197   5.364  0.0112  0.4679  0.2369
  746loPI   GL110239   5.712   7.196   5.830  0.0953  0.3024  0.1015
  746loPI   GL210240   5.835   6.921   5.706 -0.0420 -0.0720  0.0802
  746loPI   C1A10241   5.941   7.056   6.225  0.0554 -0.0554 -0.3485
  746loPI   C2A10242   6.020   7.006   6.612  0.2961  0.1386 -0.0368
  746loPI   C3A10243   6.085   7.000   6.970 -0.0616 -0.1287  0.0534
  746loPI   C4A10244   6.173   6.972   7.385 -0.0440  0.0017  0.2514
  746loPI   C5A10245   6.047   7.015   7.807  0.1214 -0.2351  0.5626
  746loPI   C6A10246   5.849   7.118   8.282 -0.0221  0.0481  0.0653
  746loPI   C1B10247   6.058   6.663   5.999 -0.0978  0.1374  0.3673
  746loPI   C2B10248   6.217   6.612   6.407  0.2134  0.0382 -0.1230
  746loPI   C3B10249   6.277   6.483   6.912  0.1531  0.2077 -0.2625
  746loPI   C4B10250   6.350   6.304   7.215 -0.0752 -0.0927  0.1450
  747loPI    C110251   6.917  11.085   6.077 -0.0588  0.1707 -0.1161
  747loPI    C210252   6.857  11.156   5.688  0.2070  0.0329 -0.1843
  747loPI    C310253   6.684  10.840   5.863  0.0847  0.0968 -0.1889
  747loPI   PO410254   6.868  11.319   6.212 -0.2171 -0.2025  0.3244
  747loPI   GL110255   6.612  11.379   6.631 -0.1405 -0.0102  0.0408
  747loPI   GL210256   6.238  11.326   6.553 -0.3382 -0.2910  0.1299
  747loPI   C1A10257   6.522  10.980   6.839  0.0702 -0.1246 -0.0291
  747loPI   C2A10258   6.450  10.780   7.149 -0.0486  0.0660  0.1207
  747loPI   C3A10259   6.400  10.743   7.562 -0.1872 -0.1706  0.0038
  747loPI   C4A10260   6.278  10.984   7.876 -0.0491  0.1158  0.0626
  747loPI   C5A10261   6.283  11.242   8.193 -0.1759 -0.1242 -0.0289
  747loPI   C6A10262   6.672  11.478   8.365 -0.1026 -0.2201  0.3807
  747loPI   C1B10263   6.217  11.458   6.920  0.2176 -0.1991  0.1033
  747loPI   C2B10264   6.388  11.527   7.359  0.1740  0.0242  0.0963
  747loPI   C3B10265   6.573  11.323   7.769  0.0199 -0.2994 -0.0252
  747loPI   C4B10266   6.915  11.179   7.904  0.0770  0.0156 -0.0491
  748loPI    C110267   8.410   6.832   5.217  0.0795  0.1942  0.3156
  748loPI    C210268   8.351   6.464   5.362 -0.1379  0.2362  0.3375
  748loPI    C310269   8.584   6.518   5.041 -0.2486  0.0592  0.2262
  748loPI   PO410270   8.422   6.937   5.396 -0.1699  0.2018 -0.0940
  748loPI   GL110271   8.566   7.040   5.786 -0.1418 -0.0497  0.2248
  748loPI   GL210272   8.263   7.177   5.875  0.1106  0.2286 -0.0976
  748loPI   C1A10273   8.566   6.993   6.210  0.0626 -0.2286 -0.0108
  748loPI   C2A10274   8.499   6.641   6.509 -0.0571  0.1665  0.3332
  748loPI   C3A10275   8.582   6.487   6.995 -0.1055 -0.2082  0.0205
  748loPI   C4A10276   8.643   6.617   7.490  0.0603 -0.3079 -0.0945
  748loPI   C5A10277   8.594   7.061   7.723 -0.2478  0.0848 -0.1724
  748loPI   C6A10278   8.278   7.150   8.026  0.2229  0.0069 -0.0074
  748loPI   C1B10279   8.471   7.512   6.264 -0.1763  0.3544  0.5677
  748loPI   C2B10280   8.516   7.642   6.767  0.1155  0.1873 -0.0652
  748loPI   C3B10281   8.420   7.503   7.128 -0.0833 -0.0115 -0.0249
  748loPI   C4B10282   8.207   7.449   7.544  0.0223  0.2078 -0.0334
  749loPI    C110283   9.313   0.899   5.470  0.2459 -0.0419  0.0350
  749loPI    C210284   9.315   0.553   5.270  0.1352 -0.0027 -0.0350
  749loPI    C310285   8.987   0.781   5.270  0.2629  0.1836 -0.1301
  749loPI   PO410286   9.479   0.854   5.650 -0.2139 -0.1358  0.2491
  749loPI   GL110287   9.426   0.951   6.076 -0.0491  0.0418  0.1987
  749loPI   GL210288   9.188   0.837   6.109  0.1097 -0.0616 -0.1282
  749loPI   C1A10289   9.508   1.111   6.486  0.2472 -0.1847  0.0198
  749loPI   C2A10290   9.805   1.293   6.657  0.0602  0.0518 -0.3452
  749loPI   C3A10291  10.007   1.384   7.072  0.0396 -0.1158 -0.3270
  749loPI   C4A10292   9.816   1.280   7.471 -0.0469  0.4629 -0.1700
  749loPI   C5A10293   9.778   1.202   7.884  0.1292 -0.0219 -0.0645
  749loPI   C6A10294   9.941   0.942   8.198  0.2594 -0.2758  0.0263
  749loPI   C1B10295   9.020   0.795   6.587  0.5644  0.1110  0.0789
  749loPI   C2B10296   9.092   0.915   7.026 -0.0537 -0.3615 -0.2001
  749loPI   C3B10297   9.087   0.776   7.400 -0.2729  0.3098  0.3150
  749loPI   C4B10298   9.018   0.687   7.896  0.1183  0.1421 -0.1907
  750loPI    C110299  14.794   1.067   5.144 -0.1141  0.0062  0.0142
  750loPI    C210300  14.534   0.768   5.093 -0.3855  0.2396  0.0073
  750loPI    C310301  14.578   1.045   4.808 -0.2281  0.2770  0.0675
  750loPI   PO410302  14.767   1.160   5.390  0.0959 -0.1531  0.2008
  750loPI   GL110303  14.581   1.287   5.844  0.2410 -0.1165 -0.0991
  750loPI   GL210304  14.868   1.161   5.872 -0.0354 -0.1399  0.1910
  750loPI   C1A10305  14.498   1.290   6.296  0.0091 -0.0867 -0.3376
  750loPI   C2A10306  14.533   1.362   6.687 -0.0241  0.0487 -0.0720
  750loPI   C3A10307  14.682   1.205   7.145  0.0735  0.0621 -0.1989
  750loPI   C4A10308  14.519   1.003   7.518 -0.1148 -0.1088 -0.1477
  750loPI   C5A10309  14.791   0.705   7.683 -0.1012  0.0041  0.0760
  750loPI   C6A10310  14.784   0.330   7.794  0.0725  0.0564 -0.3457
  750loPI   C1B10311  14.928   1.033   6.362 -0.1463 -0.0798 -0.0171
  750loPI   C2B10312  15.046   0.960   6.764 -0.2824 -0.2525 -0.0270
  750loPI   C3B10313  15.061   0.910   7.272 -0.2867  0.2864  0.2223
  750loPI   C4B10314  14.973   1.203   7.633 -0.1555  0.0130 -0.2398
  751loPI    C110315   7.777   6.939   5.183 -0.2230 -0.0680 -0.1019
  751loPI    C210316   7.852   6.742   4.843  0.0269 -0.0737 -0.0454
  751loPI    C310317   8.010   7.105   4.903 -0.1537 -0.0005 -0.0047
  751loPI   PO410318   7.805   6.777   5.353 -0.3424  0.0524 -0.0689
  751loPI   GL110319   7.999   6.767   5.657 -0.0426 -0.1820 -0.1568
  751loPI   GL210320   7.797   6.862   5.899  0.1676  0.2924  0.1561
  751loPI   C1A10321   8.255   6.615   5.968  0.1700 -0.1179  0.0989
  751loPI   C2A10322   8.525   6.493   6.018 -0.1047  0.0421 -0.1298
  751loPI   C3A10323   8.395   6.202   6.316 -0.1343  0.1173 -0.2582
  751loPI   C4A10324   8.320   6.141   6.690 -0.0559 -0.0560  0.0164
  751loPI   C5A10325   7.979   6.202   6.882 -0.1101  0.1524  0.1248
  751loPI   C6A10326   7.802   5.979   7.279  0.2717  0.1030 -0.1005
  751loPI   C1B10327   7.744   7.234   6.018  0.0477  0.1613 -0.2932
  751loPI   C2B10328   7.984   7.548   6.079 -0.1466  0.0918  0.0798
  751loPI   C3B10329   8.054   7.779   6.456 -0.0819 -0.0064 -0.0840
  751loPI   C4B10330   8.346   8.098   6.572  0.1134 -0.0165  0.1367
  752loPI    C110331   6.186  11.882   5.741 -0.0402 -0.0377 -0.1977
  752loPI    C210332   6.111  11.497   5.822  0.1401 -0.0519 -0.0921
  752loPI    C310333   6.039  11.643   5.456 -0.1236 -0.1344 -0.0748
  752loPI   PO410334   6.164  12.013   6.022 -0.0180 -0.1785 -0.1055
  752loPI   GL110335   5.955  12.105   6.456  0.2024  0.1794 -0.0114
  752loPI   GL210336   6.198  12.168   6.555  0.0877 -0.0816 -0.2799
  752loPI   C1A10337   5.730  11.881   6.729  0.0613  0.0281  0.0607
  752loPI   C2A10338   5.563  11.905   7.089  0.0612 -0.0174 -0.3167
  752loPI   C3A10339   5.501  11.859   7.542  0.0220 -0.1706  0.1356
  752loPI   C4A10340   5.338  11.706   7.901 -0.0176  0.3097 -0.0691
  752loPI   C5A10341   5.479  11.397   8.327  0.0177 -0.0982 -0.0484
  752loPI   C6A10342   5.447  10.978   8.351  0.1231 -0.3251 -0.0614
  752loPI   C1B10343   6.221  11.943   6.893  0.0490  0.3294 -0.2724
  752loPI   C2B10344   6.050  11.949   7.291 -0.0167  0.1667  0.0744
  752loPI   C3B10345   6.012  11.802   7.626  0.1050  0.0408 -0.0255
  752loPI   C4B10346   5.846  11.953   8.068  0.1262 -0.3012 -0.0715
  753loPI    C110347   9.906   4.449   5.721 -0.4339  0.1216 -0.0480
  753loPI    C210348  10.258   4.587   5.590 -0.1311 -0.3134  0.2779
  753loPI    C310349   9.919   4.773   5.486  0.1825  0.0614 -0.1129
  753loPI   PO410350   9.911   4.452   6.053  0.1108 -0.1039 -0.2802
  753loPI   GL110351   9.841   4.269   6.368  0.1845  0.0544 -0.0748
  753loPI   GL210352   9.510   4.274   6.269 -0.0378 -0.2043 -0.1027
  753loPI   C1A10353   9.827   4.062   6.717 -0.0319  0.1121 -0.2244
  753loPI   C2A10354  10.009   4.083   7.068 -0.2534  0.1787  0.3469
  753loPI   C3A10355  10.075   3.979   7.477 -0.0698  0.1574  0.2690
  753loPI   C4A10356  10.093   3.796   7.845  0.1311  0.0515 -0.1585
  753loPI   C5A10357  10.020   3.491   8.044  0.2190  0.2343  0.0084
  753loPI   C6A10358  10.163   3.169   8.175  0.0654 -0.2811 -0.0641
  753loPI   C1B10359   9.340   4.254   6.589  0.0449  0.0450  0.0468
  753loPI   C2B10360   9.064   4.312   6.879  0.1971 -0.0462 -0.0711
  753loPI   C3B10361   8.900   4.213   7.315  0.1117  0.0354  0.1087
  753loPI   C4B10362   8.849   4.147   7.831  0.1853  0.1671  0.2414
  754loPI    C110363   0.758  13.495   4.910 -0.0799 -0.0039  0.2662
  754loPI    C210364   0.681  13.874   4.811  0.1066 -0.0072  0.1036
  754loPI    C310365   0.394  13.598   4.779  0.0987  0.0347 -0.2163
  754loPI   PO410366   0.910  13.494   5.082  0.2138 -0.1087 -0.1344
  754loPI   GL110367   1.289  13.424   5.481  0.1169  0.0898  0.1498
  754loPI   GL210368   1.593  13.567   5.526 -0.0658 -0.1669  0.3205
  754loPI   C1A10369   1.119  13.501   5.909  0.0218  0.3431 -0.0339
  754loPI   C2A10370   1.175  13.653   6.343 -0.2600  0.0346 -0.1636
  754loPI   C3A10371   1.118  13.867   6.643 -0.2347  0.1686  0.1010
  754loPI   C4A10372   1.076  13.922   7.040 -0.1309  0.1280 -0.2363
  754loPI   C5A10373   1.105  13.683   7.300  0.1434  0.3429  0.0655
  754loPI   C6A10374   1.328  13.279   7.510  0.2649  0.0150  0.3323
  754loPI   C1B10375   1.559  13.760   5.908  0.0576  0.1807  0.1450
  754loPI   C2B10376   1.684  13.672   6.297 -0.0986  0.2430  0.0813
  754loPI   C3B10377   1.607  13.536   6.756  0.5526 -0.1340 -0.2051
  754loPI   C4B10378   1.591  13.627   7.126  0.4588  0.3966  0.1903
  755loPI    C110379  15.148   0.855   5.458  0.1499  0.0329  0.0737
  755loPI    C210380  15.468   0.616   5.478  0.1149 -0.0063  0.1684
  755loPI    C310381  15.165   0.526   5.232  0.3076  0.1902 -0.1477
  755loPI   PO410382  15.245   1.069   5.568 -0.2012  0.0274 -0.2799
  755loPI   GL110383  15.341   1.301   5.955 -0.0806  0.2415  0.1919
  755loPI   GL210384  15.366   1.041   6.112  0.0493  0.0203 -0.0469
  755loPI   C1A10385  15.660   1.424   6.262  0.2901 -0.2362 -0.3027
  755loPI   C2A10386  15.734   1.561   6.622 -0.0075 -0.0537  0.0231
  755loPI   C3A10387  15.708   1.651   7.017 -0.0988 -0.1061  0.0388
  755loPI   C4A10388  15.742   1.829   7.413  0.0202 -0.2055  0.1772
  755loPI   C5A10389  15.849   1.540   7.785 -0.2464 -0.2435  0.1418
  755loPI   C6A10390  15.869   1.074   7.827  0.2722  0.0320 -0.2897
  755loPI   C1B10391  15.492   1.079   6.599  0.0382 -0.2484  0.1872
  755loPI   C2B10392  15.487   1.178   7.068 -0.0260 -0.0472 -0.1780
  755loPI   C3B10393  15.504   1.282   7.496  0.0143 -0.1117 -0.0626
  755loPI   C4B10394  15.323   1.607   7.674 -0.3037 -0.2890 -0.1120
  756loPI    C110395   5.402  10.131   5.810 -0.1321 -0.0804  0.0476
  756loPI    C210396   5.476  10.392   5.516  0.1350 -0.0217  0.1642
  756loPI    C310397   5.199  10.107   5.466 -0.1347  0.2602  0.0223
  756loPI   PO410398   5.596  10.045   5.867 -0.0185 -0.0011  0.3098
  756loPI   GL110399   5.916  10.078   6.144 -0.2038  0.3452  0.0573
  756loPI   GL210400   5.883  10.408   6.211 -0.1296  0.1311  0.1167
  756loPI   C1A10401   6.053   9.965   6.576  0.0389  0.0233 -0.1777
  756loPI   C2A10402   6.008   9.756   6.946  0.0480  0.2227 -0.0009
  756loPI   C3A10403   5.983   9.647   7.395 -0.4266 -0.3185  0.2922
  756loPI   C4A10404   6.197   9.747   7.704  0.5119  0.2306  0.1017
  756loPI   C5A10405   6.637   9.690   7.865  0.0896  0.0444  0.1053
  756loPI   C6A10406   7.058   9.494   7.884 -0.0675  0.1572  0.1505
  756loPI   C1B10407   5.690  10.490   6.607 -0.0572 -0.1135 -0.3426
  756loPI   C2B10408   5.679  10.575   7.052  0.0864 -0.1983  0.0535
  756loPI   C3B10409   5.576  10.487   7.437  0.0884 -0.2624  0.1511
  756loPI   C4B10410   5.632  10.169   7.641 -0.3055  0.0099  0.3381
  757loPI    C110411   3.815  14.894   5.628  0.0303 -0.0617 -0.1643
  757loPI    C210412   3.999  15.234   5.526 -0.0104  0.0365  0.0823
  757loPI    C310413   4.201  14.889   5.523  0.0534  0.0744 -0.0887
  757loPI   PO410414   3.750  14.937   5.869 -0.0347  0.1072  0.2091
  757loPI   GL110415   3.794  14.686   6.234 -0.2427  0.0150  0.3669
  757loPI   GL210416   4.162  14.733   6.426 -0.1558 -0.1512 -0.0497
  757loPI   C1A10417   3.683  14.517   6.634 -0.0789 -0.2831 -0.0610
  757loPI   C2A10418   3.448  14.447   6.982  0.0485  0.0833 -0.3192
  757loPI   C3A10419   3.364  14.444   7.410  0.4036  0.0537 -0.0976
  757loPI   C4A10420   3.361  14.287   7.923  0.2498  0.0458  0.1312
  757loPI   C5A10421   3.348  14.025   8.284  0.0642  0.0084  0.2436
  757loPI   C6A10422   3.575  13.605   8.322 -0.1545 -0.1690 -0.0919
  757loPI   C1B10423   4.354  14.866   6.812 -0.0899  0.1881  0.2406
  757loPI   C2B10424   4.350  14.949   7.187 -0.1742  0.1951  0.0314
  757loPI   C3B10425   4.204  14.939   7.589  0.1071 -0.2620 -0.1810
  757loPI   C4B10426   3.980  15.098   7.967 -0.3060  0.0419  0.1238
  758loPI    C110427  15.877   5.257   5.844 -0.1455 -0.1518 -0.0064
  758loPI    C210428  15.952   4.966   5.580  0.1440 -0.0245 -0.0693
  758loPI    C310429  16.001   5.349   5.474 -0.3502  0.0578 -0.0256
  758loPI   PO410430  15.986   5.243   6.012 -0.1786  0.0939 -0.0721
  758loPI   GL110431  15.913   5.323   6.439  0.2566  0.0839  0.0572
  758loPI   GL210432  15.594   5.171   6.416 -0.0648 -0.3417  0.2327
  758loPI   C1A10433  16.194   5.206   6.834  0.0495 -0.1495 -0.0557
  758loPI   C2A10434  16.195   5.200   7.301 -0.1739  0.0441 -0.1734
  758loPI   C3A10435  15.979   5.332   7.536  0.1096  0.1847 -0.1484
  758loPI   C4A10436  15.842   5.590   7.752 -0.2095 -0.0326  0.0230
  758loPI   C5A10437  15.584   5.832   8.048  0.2283  0.0135  0.0057
  758loPI   C6A10438  15.389   6.249   8.243  0.0570  0.3270  0.1928
  758loPI   C1B10439  15.482   5.291   6.825  0.2444 -0.0025 -0.1434
  758loPI   C2B10440  15.134   5.495   6.959  0.0324  0.1055 -0.5258
  758loPI   C3B10441  14.970   5.611   7.323  0.0423 -0.0417  0.0354
  758loPI   C4B10442  14.573   5.500   7.569 -0.0317  0.2245 -0.1776
  759loPI    C110443  16.528   7.962   5.241 -0.0216 -0.1726  0.1717
  759loPI    C210444  16.597   7.716   4.933  0.1506 -0.0980  0.1494
  759loPI    C310445  16.461   8.086   4.866 -0.0036 -0.1493  0.1762
  759loPI   PO410446  16.758   8.033   5.507 -0.1277  0.0535  0.3683
  759loPI   GL110447  16.754   8.039   5.934 -0.0456 -0.2393 -0.3305
  759loPI   GL210448  16.511   8.004   6.101 -0.1053  0.1407 -0.1383
  759loPI   C1A10449  16.742   7.621   6.187  0.1009 -0.0850 -0.0088
  759loPI   C2A10450  16.758   7.519   6.677 -0.0710 -0.3603 -0.0730
  759loPI   C3A10451  16.831   7.566   7.109 -0.1264 -0.0288 -0.0344
  759loPI   C4A10452  16.677   7.475   7.530 -0.0475 -0.1766  0.2396
  759loPI   C5A10453  16.513   7.390   7.857  0.0737 -0.0105  0.4310
  759loPI   C6A10454  16.162   7.602   8.019  0.4202 -0.1281 -0.1602
  759loPI   C1B10455  16.571   8.058   6.541 -0.1880  0.0339 -0.1472
  759loPI   C2B10456  16.626   7.974   7.001 -0.1230  0.0203  0.1228
  759loPI   C3B10457  16.651   7.967   7.407  0.0764 -0.0903  0.0980
  759loPI   C4B10458  16.558   7.923   7.824  0.2430 -0.0188  0.2087
  760loPI    C110459  11.891   0.680   5.577  0.1161 -0.0447 -0.1472
  760loPI    C210460  11.865   0.633   5.180  0.3409 -0.2107 -0.1437
  760loPI    C310461  12.026   0.966   5.331 -0.0578  0.0072 -0.1845
  760loPI   PO410462  11.704   0.418   5.610 -0.0012  0.0267  0.2826
  760loPI   GL110463  11.565   0.261   5.921  0.0434 -0.1491 -0.3069
  760loPI   GL210464  11.463   0.541   6.100 -0.1659 -0.1469  0.1699
  760loPI   C1A10465  11.830   0.143   6.392 -0.3104  0.1132 -0.0917
  760loPI   C2A10466  11.807   0.439   6.728 -0.0653  0.0546  0.2998
  760loPI   C3A10467  11.792   0.791   6.993  0.1455  0.0068  0.0266
  760loPI   C4A10468  11.557   0.908   7.300  0.2332 -0.3078  0.2031
  760loPI   C5A10469  11.731   0.970   7.674 -0.2585  0.1703 -0.2490
  760loPI   C6A10470  11.641   1.067   8.090  0.1936 -0.1366 -0.1404
  760loPI   C1B10471  11.356   0.344   6.469  0.1433 -0.0330 -0.2633
  760loPI   C2B10472  11.344   0.431   6.924 -0.2096 -0.1576 -0.0780
  760loPI   C3B10473  11.554   0.399   7.412  0.0156  0.0452  0.2155
  760loPI   C4B10474  11.821   0.362   7.797 -0.1441  0.0695  0.0005
  761loPI    C110475  11.570   5.971   5.328  0.1681 -0.0800  0.0765
  761loPI    C210476  11.559   6.341   5.482 -0.0488 -0.0746  0.0506
  761loPI    C310477  11.754   6.272   5.140 -0.0704  0.0311  0.0168
  761loPI   PO410478  11.663   5.813   5.579 -0.0527 -0.1382 -0.2499
  761loPI   GL110479  11.666   5.690   5.964 -0.3201 -0.0808  0.2440
  761loPI   GL210480  11.880   5.487   6.098  0.3383  0.2185  0.1018
  761loPI   C1A10481  11.563   5.532   6.455 -0.1175 -0.2720  0.1022
  761loPI   C2A10482  11.685   5.524   6.893  0.0931 -0.2256  0.0447
  761loPI   C3A10483  11.665   5.747   7.295 -0.1826 -0.2500 -0.1835
  761loPI   C4A10484  11.471   6.025   7.584 -0.0274 -0.0025  0.0269
  761loPI   C5A10485  11.459   6.384   7.876 -0.0970  0.1581  0.3188
  761loPI   C6A10486  11.744   6.675   8.009 -0.3168  0.1874 -0.0293
  761loPI   C1B10487  12.052   5.605   6.526  0.1698 -0.0333  0.0739
  761loPI   C2B10488  12.496   5.796   6.800 -0.4264  0.0822 -0.0749
  761loPI   C3B10489  12.653   5.672   7.213  0.1141  0.1035  0.0171
  761loPI   C4B10490  12.753   5.634   7.538 -0.2892  0.0787  0.0061
  762loPI    C110491  16.741  14.274   5.483 -0.1107 -0.1529 -0.1221
  762loPI    C210492  16.714  13.994   5.198  0.4315 -0.2653 -0.0731
  762loPI    C310493  16.855  14.358   5.109 -0.1374 -0.0436 -0.1058
  762loPI   PO410494  16.568  14.260   5.651 -0.0229 -0.0147 -0.1404
  762loPI   GL110495  16.454  14.376   6.049 -0.0974 -0.0899 -0.2478
  762loPI   GL210496  16.193  14.596   6.098  0.2064  0.0263 -0.4248
  762loPI   C1A10497  16.410  14.195   6.414  0.1698 -0.0459  0.3015
  762loPI   C2A10498  16.317  14.177   6.879 -0.1388 -0.2532 -0.2117
  762loPI   C3A10499  16.353  14.263   7.305  0.1472  0.0970  0.0568
  762loPI   C4A10500  16.556  14.507   7.657 -0.1633 -0.0622 -0.0254
  762loPI   C5A10501  16.879  14.772   7.825  0.2252 -0.1491  0.0269
  762loPI   C6A10502  17.169  15.008   7.767  0.0137  0.2091  0.0541
  762loPI   C1B10503  16.048  14.581   6.541  0.2253 -0.1412 -0.3555
  762loPI   C2B10504  15.936  14.558   6.934  0.1046  0.0202 -0.3468
  762loPI   C3B10505  15.964  14.592   7.440  0.0255 -0.2842  0.1318
  762loPI   C4B10506  15.698  14.636   7.744  0.3007  0.0125  0.0575
  763loPI    C110507  14.246  15.926   5.446 -0.3003  0.0632  0.0188
  763loPI    C210508  14.284  16.291   5.604  0.2542  0.0768 -0.1243
  763loPI    C310509  14.532  16.173   5.313 -0.0846 -0.3245 -0.2591
  763loPI   PO410510  14.176  15.808   5.643 -0.0318  0.2599 -0.0939
  763loPI   GL110511  14.055  15.728   6.091 -0.0723 -0.1346 -0.0059
  763loPI   GL210512  13.829  16.036   6.126 -0.1675 -0.0326  0.0226
  763loPI   C1A10513  14.161  15.951   6.484 -0.0757 -0.1348 -0.1262
  763loPI   C2A10514  14.247  16.168   6.796  0.0909 -0.0929 -0.1212
  763loPI   C3A10515  14.217  16.402   7.167  0.0523  0.0123  0.0289
  763loPI   C4A10516  14.364  16.675   7.561 -0.0876  0.0099 -0.0766
  763loPI   C5A10517  14.282  16.876   7.946  0.2400  0.1674  0.1379
  763loPI   C6A10518  14.086  17.137   8.322 -0.1141  0.1194  0.3242
  763loPI   C1B10519  13.679  15.929   6.485 -0.0896 -0.1173  0.1035
  763loPI   C2B10520  13.846  15.576   6.566 -0.1191  0.2207 -0.0359
  763loPI   C3B10521  13.937  15.283   6.968 -0.0357  0.0027 -0.0879
  763loPI   C4B10522  13.911  15.119   7.513 -0.0334 -0.3182 -0.2878
  764loPI    C110523  17.026   1.493   5.250  0.0079  0.0474  0.2171
  764loPI    C210524  17.131   1.124   5.136  0.2390  0.1633  0.0434
  764loPI    C310525  16.904   1.350   4.897  0.2424  0.1976  0.0722
  764loPI   PO410526  17.110   1.409   5.568  0.1054 -0.5176  0.0619
  764loPI   GL110527  16.920   1.263   6.052  0.1386 -0.0259  0.0842
  764loPI   GL210528  17.208   1.280   6.053 -0.1921  0.0360  0.0019
  764loPI   C1A10529  16.567   0.976   6.363 -0.0149  0.0321 -0.0286
  764loPI   C2A10530  16.387   0.875   6.761 -0.0088 -0.1440 -0.3222
  764loPI   C3A10531  16.464   1.057   7.145 -0.0295  0.2204  0.0478
  764loPI   C4A10532  16.352   1.170   7.549 -0.1031  0.2956 -0.0649
  764loPI   C5A10533  16.325   1.062   8.053 -0.0254 -0.1959  0.1895
  764loPI   C6A10534  16.086   1.313   8.217 -0.2124 -0.3918 -0.0213
  764loPI   C1B10535  17.073   0.978   6.456  0.0108  0.3095 -0.4543
  764loPI   C2B10536  16.934   0.873   6.897 -0.1945  0.0710  0.2610
  764loPI   C3B10537  16.878   0.843   7.331  0.0932 -0.0512  0.1208
  764loPI   C4B10538  16.639   0.747   7.753  0.1911 -0.1705 -0.0103
  765loPI    C110539   9.173   2.200   5.453  0.0616  0.2337  0.5820
  765loPI    C210540   9.441   2.491   5.397  0.2476 -0.0394 -0.0290
  765loPI    C310541   9.098   2.494   5.192  0.1867 -0.1742  0.0695
  765loPI   PO410542   9.169   2.225   5.671  0.1884 -0.0213 -0.0227
  765loPI   GL110543   8.874   2.240   6.026  0.0444  0.0188 -0.3637
  765loPI   GL210544   8.878   2.510   6.214  0.1424 -0.2552  0.1267
  765loPI   C1A10545   8.925   2.004   6.364  0.1629  0.1219 -0.1911
  765loPI   C2A10546   9.019   1.996   6.833 -0.0303  0.1259  0.1920
  765loPI   C3A10547   9.076   2.115   7.279 -0.1406 -0.1320  0.0048
  765loPI   C4A10548   9.035   2.068   7.624 -0.1078  0.0150  0.1037
  765loPI   C5A10549   8.873   2.257   8.010  0.2486 -0.2058 -0.3361
  765loPI   C6A10550   8.659   2.496   8.275  0.0260  0.1116 -0.2712
  765loPI   C1B10551   8.726   2.465   6.639  0.0773 -0.0915  0.0223
  765loPI   C2B10552   8.852   2.508   7.006  0.3835 -0.2679  0.1682
  765loPI   C3B10553   8.771   2.510   7.427 -0.0953 -0.0968 -0.0880
  765loPI   C4B10554   8.812   2.803   7.819  0.0146 -0.0382 -0.3376
  766loPI    C110555   3.157  17.184   6.085 -0.0245  0.0417 -0.0591
  766loPI    C210556   3.305  17.216   5.715  0.1360  0.0197  0.0025
  766loPI    C310557   2.925  17.317   5.788  0.0641 -0.1044 -0.1951
  766loPI   PO410558   3.282  17.090   6.220  0.2243  0.2034 -0.0518
  766loPI   GL110559   3.325  17.022   6.620 -0.1285 -0.1273 -0.0880
  766loPI   GL210560   3.453  17.247   6.856 -0.0559 -0.0884  0.4185
  766loPI   C1A10561   3.321  16.898   7.130 -0.1254  0.3644  0.3320
  766loPI   C2A10562   3.239  16.813   7.581  0.3539  0.2123  0.0497
  766loPI   C3A10563   3.312  16.886   7.926  0.0506  0.0638  0.1000
  766loPI   C4A10564   3.100  17.041   8.193  0.0709 -0.2904 -0.2550
  766loPI   C5A10565   2.725  16.943   8.390 -0.1739 -0.1838 -0.0560
  766loPI   C6A10566   2.302  17.043   8.538  0.3194 -0.2774  0.3456
  766loPI   C1B10567   3.900  17.364   7.053  0.0663 -0.2196 -0.2727
  766loPI   C2B10568   3.964  17.505   7.521  0.1653  0.3107  0.1434
  766loPI   C3B10569   3.879  17.570   7.962 -0.1612 -0.2384  0.0270
  766loPI   C4B10570   4.172  17.609   8.323  0.0012  0.0410 -0.0611
  767loPI    C110571   5.056   5.963   5.474 -0.0776  0.0091 -0.0332
  767loPI    C210572   5.435   6.067   5.549 -0.1358  0.0052  0.2837
  767loPI    C310573   5.352   5.816   5.249  0.1013  0.0839  0.1490
  767loPI   PO410574   4.951   5.957   5.831  0.2412  0.2226  0.0265
  767loPI   GL110575   4.918   5.811   6.173 -0.0742 -0.1470  0.0824
  767loPI   GL210576   5.183   5.596   6.252 -0.3109  0.1713 -0.2754
  767loPI   C1A10577   5.145   5.984   6.607  0.2017 -0.0030 -0.0458
  767loPI   C2A10578   5.096   6.085   7.018 -0.2378  0.0239 -0.2479
  767loPI   C3A10579   5.019   6.149   7.399  0.1750  0.1692 -0.1927
  767loPI   C4A10580   5.139   6.010   7.700  0.1557  0.0538 -0.0197
  767loPI   C5A10581   5.140   5.968   8.146  0.0114  0.4594  0.2642
  767loPI   C6A10582   5.394   5.710   8.440 -0.1383 -0.2283 -0.1882
  767loPI   C1B10583   5.374   5.214   6.568  0.0845  0.0076  0.1540
  767loPI   C2B10584   5.466   5.174   7.125  0.1307 -0.1505  0.0911
  767loPI   C3B10585   5.569   5.314   7.575 -0.1114  0.0135 -0.0525
  767loPI   C4B10586   5.966   5.564   7.757  0.4336  0.0363  0.0744
  768loPI    C110587   5.954   8.242   5.532 -0.0424 -0.1388  0.1706
  768loPI    C210588   6.182   8.548   5.651 -0.1158 -0.0063 -0.0250
  768loPI    C310589   5.855   8.616   5.431 -0.1051 -0.2296 -0.1125
  768loPI   PO410590   5.945   8.088   5.734  0.0149  0.0668 -0.0520
  768loPI   GL110591   5.943   7.843   6.143 -0.0785 -0.4770  0.0403
  768loPI   GL210592   6.008   7.557   5.980  0.0831 -0.3195  0.1213
  768loPI   C1A10593   5.831   8.109   6.614  0.0831 -0.1969 -0.1686
  768loPI   C2A10594   5.823   8.212   6.943  0.0982  0.0878 -0.0855
  768loPI   C3A10595   5.887   7.928   7.230  0.2703  0.0369 -0.0131
  768loPI   C4A10596   5.889   7.796   7.694  0.1129 -0.3284  0.0921
  768loPI   C5A10597   5.882   7.511   7.949 -0.0366  0.2240  0.1415
  768loPI   C6A10598   5.525   7.399   7.752  0.4626 -0.0542  0.5486
  768loPI   C1B10599   6.309   7.461   6.274  0.1752  0.0800  0.0422
  768loPI   C2B10600   6.446   7.347   6.821 -0.0684 -0.1271  0.1808
  768loPI   C3B10601   6.366   7.473   7.241  0.1009  0.0546  0.0755
  768loPI   C4B10602   6.259   7.466   7.651  0.1299 -0.0331  0.0164
  769loPI    C110603  14.078  15.323   5.669  0.3309  0.0356  0.1052
  769loPI    C210604  13.784  15.419   5.415  0.3315  0.0522  0.1107
  769loPI    C310605  14.154  15.350   5.278  0.3295  0.0510  0.1060
  769loPI   PO410606  14.056  15.208   5.826  0.4872  0.1382  0.0097
  769loPI   GL110607  14.174  15.026   6.162 -0.1346 -0.0292  0.1225
  769loPI   GL210608  14.291  14.766   6.197 -0.0683 -0.4048  0.2044
  769loPI   C1A10609  14.169  15.214   6.528 -0.1647 -0.1552 -0.0460
  769loPI   C2A10610  14.253  15.617   6.860 -0.2928 -0.3279 -0.0476
  769loPI   C3A10611  14.335  15.908   7.163 -0.0554  0.2193 -0.1678
  769loPI   C4A10612  14.321  16.155   7.578 -0.0192  0.3630  0.0421
  769loPI   C5A10613  14.332  16.297   7.987 -0.1475 -0.0329  0.1620
  769loPI   C6A10614  14.628  16.261   8.296  0.1792 -0.0587 -0.2280
  769loPI   C1B10615  14.083  14.681   6.688 -0.0026  0.1396 -0.0094
  769loPI   C2B10616  14.071  14.821   7.049 -0.0155  0.0544 -0.3232
  769loPI   C3B10617  14.297  14.819   7.476  0.0661  0.1164  0.1278
  769loPI   C4B10618  14.334  14.910   7.928 -0.2539 -0.0352 -0.2340
  770loPI    C110619   8.461  12.533   6.027 -0.0129  0.0903  0.0967
  770loPI    C210620   8.442  12.396   5.652  0.0100  0.1641  0.0685
  770loPI    C310621   8.427  12.790   5.723  0.0601  0.1530  0.1411
  770loPI   PO410622   8.304  12.400   6.124  0.2009 -0.1821  0.0576
  770loPI   GL110623   8.147  12.480   6.514  0.0084  0.0838 -0.0481
  770loPI   GL210624   8.131  12.101   6.618 -0.1972 -0.0100 -0.0021
  770loPI   C1A10625   8.008  12.598   7.012  0.2346 -0.1683 -0.0378
  770loPI   C2A10626   8.082  12.699   7.445  0.0667 -0.2929 -0.3570
  770loPI   C3A10627   7.990  12.686   7.870  0.0949  0.0212 -0.0226
  770loPI   C4A10628   7.820  12.760   8.266  0.2882 -0.2143  0.3404
  770loPI   C5A10629   7.767  12.877   8.639 -0.0437 -0.1474 -0.0730
  770loPI   C6A10630   7.568  12.937   9.010 -0.0683 -0.1886  0.2379
  770loPI   C1B10631   8.326  12.066   6.972 -0.1870  0.1594  0.2531
  770loPI   C2B10632   8.531  11.993   7.329  0.0571  0.1114  0.3793
  770loPI   C3B10633   8.730  11.980   7.714 -0.2262 -0.2273 -0.4147
  770loPI   C4B10634   8.557  12.117   8.133 -0.0457 -0.2283 -0.1520
  771loPI    C110635  16.023  13.045   5.601  0.0092 -0.2472 -0.1505
  771loPI    C210636  16.242  13.254   5.339 -0.0804 -0.0506 -0.0709
  771loPI    C310637  16.011  12.953   5.212 -0.0674 -0.0037 -0.2074
  771loPI   PO410638  15.824  13.179   5.700 -0.0004  0.1723  0.1255
  771loPI   GL110639  15.871  13.377   6.110 -0.3258 -0.0593  0.1811
  771loPI   GL210640  15.845  13.632   6.056 -0.1076  0.1534  0.1212
  771loPI   C1A10641  16.146  13.276   6.464  0.1050 -0.2785  0.2706
  771loPI   C2A10642  16.211  13.281   6.954 -0.2712 -0.2524 -0.0141
  771loPI   C3A10643  16.161  13.346   7.358 -0.1513  0.2526 -0.2271
  771loPI   C4A10644  16.020  13.209   7.666  0.0387 -0.2873  0.1703
  771loPI   C5A10645  15.784  13.264   8.092  0.0392 -0.1452 -0.0031
  771loPI   C6A10646  15.428  13.462   8.269 -0.0481 -0.2349 -0.0862
  771loPI   C1B10647  15.682  13.604   6.478  0.1435  0.0301 -0.0977
  771loPI   C2B10648  15.703  13.577   6.917  0.0890  0.4060  0.2353
  771loPI   C3B10649  15.652  13.595   7.302 -0.1777 -0.3259 -0.0546
  771loPI   C4B10650  15.547  13.471   7.660 -0.0204 -0.0344  0.2225
  772loPI    C110651   4.735  15.951   5.902 -0.0418 -0.1242  0.1366
  772loPI    C210652   4.771  16.083   5.526  0.1692  0.0418  0.2129
  772loPI    C310653   5.054  15.848   5.684 -0.0791 -0.2981  0.1630
  772loPI   PO410654   4.630  16.131   6.041 -0.0117  0.1365 -0.1641
  772loPI   GL110655   4.294  16.048   6.343 -0.0132 -0.3486 -0.1318
  772loPI   GL210656   3.956  16.175   6.290  0.1750  0.1738  0.1128
  772loPI   C1A10657   4.238  16.040   6.745 -0.2243 -0.0917 -0.0152
  772loPI   C2A10658   4.002  15.898   7.051  0.0444 -0.0955 -0.0052
  772loPI   C3A10659   3.822  15.869   7.506  0.0256  0.1156  0.1564
  772loPI   C4A10660   3.592  16.136   7.840 -0.3049 -0.0126 -0.0673
  772loPI   C5A10661   3.334  16.213   8.142 -0.0485  0.1480 -0.0816
  772loPI   C6A10662   2.963  16.433   8.344 -0.1491  0.2483  0.1714
  772loPI   C1B10663   3.716  16.206   6.673  0.0309 -0.2983 -0.0709
  772loPI   C2B10664   3.575  16.152   7.150 -0.1320 -0.3944 -0.1071
  772loPI   C3B10665   3.334  15.976   7.378 -0.4029  0.0798  0.0068
  772loPI   C4B10666   3.208  15.785   7.681 -0.0039 -0.3220  0.2187
  773loPI    C110667   0.175   7.587   5.183 -0.1509  0.1020 -0.0212
  773loPI    C210668  -0.209   7.538   5.281 -0.2072  0.1692 -0.2039
  773loPI    C310669  -0.050   7.325   4.982 -0.1088  0.1602 -0.1455
  773loPI   PO410670   0.321   7.614   5.481  0.0878  0.3066  0.2225
  773loPI   GL110671   0.392   7.715   5.907  0.1198 -0.0510  0.1784
  773loPI   GL210672   0.707   7.560   5.983 -0.0942 -0.0703 -0.3135
  773loPI   C1A10673   0.428   7.855   6.336  0.0702 -0.0252  0.3967
  773loPI   C2A10674  -0.026   7.798   6.686 -0.2797  0.3334  0.0058
  773loPI   C3A10675   0.066   7.483   7.079 -0.3607 -0.1973 -0.2265
  773loPI   C4A10676   0.207   7.233   7.443 -0.0709 -0.2345 -0.1646
  773loPI   C5A10677   0.474   7.075   7.817 -0.2097  0.0162  0.2588
  773loPI   C6A10678   0.717   7.178   8.205 -0.2840 -0.3721 -0.0167
  773loPI   C1B10679   0.869   7.631   6.424  0.1345  0.1675 -0.0234
  773loPI   C2B10680   1.074   7.889   6.814 -0.2359 -0.2238  0.2553
  773loPI   C3B10681   1.400   7.998   7.002  0.0774  0.0170  0.1574
  773loPI   C4B10682   1.547   8.358   7.252  0.2248  0.1682 -0.2089
  774loPI    C110683  14.182   9.299   5.355 -0.2526 -0.2926 -0.1915
  774loPI    C210684  14.541   9.125   5.325 -0.0082  0.1435  0.1074
  774loPI    C310685  14.459   9.453   5.111 -0.2124  0.0761  0.0803
  774loPI   PO410686  14.196   9.398   5.673  0.1190  0.2188  0.1433
  774loPI   GL110687  14.366   9.602   5.998  0.1910  0.1503 -0.1036
  774loPI   GL210688  14.497   9.777   5.996 -0.0241 -0.0616 -0.0531
  774loPI   C1A10689  14.152   9.481   6.357 -0.3131  0.1035 -0.1438
  774loPI   C2A10690  14.071   9.448   6.791 -0.1395  0.0643 -0.2039
  774loPI   C3A10691  14.183   9.326   7.143 -0.2113 -0.0495 -0.2135
  774loPI   C4A10692  14.314   9.158   7.546  0.2613 -0.4944  0.0451
  774loPI   C5A10693  14.347   9.126   8.053  0.1239  0.0374 -0.5103
  774loPI   C6A10694  14.699   9.143   8.246  0.1225  0.0724  0.4766
  774loPI   C1B10695  14.628   9.729   6.397  0.0175  0.1319 -0.0599
  774loPI   C2B10696  14.688   9.666   6.880 -0.2494  0.2846  0.0627
  774loPI   C3B10697  14.776   9.733   7.367  0.0179 -0.0752  0.3249
  774loPI   C4B10698  15.027   9.864   7.724 -0.3197 -0.0254 -0.1410
  775loPI    C110699   9.318  12.279   5.549  0.1256 -0.1014 -0.2265
  775loPI    C210700   9.551  12.599   5.495  0.1006 -0.0376  0.0290
  775loPI    C310701   9.607  12.271   5.273  0.1457  0.1315 -0.2138
  775loPI   PO410702   9.353  12.229   5.793 -0.0557 -0.2923  0.0677
  775loPI   GL110703   9.270  12.338   6.204  0.0078 -0.3337  0.0082
  775loPI   GL210704   9.068  12.183   6.397  0.2554 -0.1629  0.0396
  775loPI   C1A10705   9.512  12.022   6.420 -0.1180  0.0181 -0.3558
  775loPI   C2A10706   9.572  12.128   6.858 -0.4303  0.3911 -0.1287
  775loPI   C3A10707   9.591  12.265   7.340  0.2187 -0.1031  0.1554
  775loPI   C4A10708   9.745  12.076   7.679  0.1157  0.1568 -0.0307
  775loPI   C5A10709   9.758  11.926   8.084  0.0544  0.0697  0.2153
  775loPI   C6A10710   9.825  11.624   8.351 -0.0287  0.0523 -0.0445
  775loPI   C1B10711   9.155  12.502   6.816  0.1604  0.1410  0.0228
  775loPI   C2B10712   9.200  12.698   7.201 -0.3386 -0.3732  0.1521
  775loPI   C3B10713   9.293  12.654   7.563  0.0947  0.1380  0.0048
  775loPI   C4B10714   9.189  12.851   7.898  0.1229 -0.1828  0.1923
  776loPI    C110715   2.938  11.236   5.586 -0.0058 -0.0195 -0.0949
  776loPI    C210716   2.626  11.223   5.835 -0.0139  0.1834 -0.0926
  776loPI    C310717   2.584  11.103   5.456 -0.0852  0.1759 -0.0826
  776loPI   PO410718   3.093  11.094   5.704 -0.0355  0.2394 -0.1893
  776loPI   GL110719   3.070  10.988   6.150 -0.0523  0.1517 -0.2249
  776loPI   GL210720   2.953  10.731   6.382  0.0274 -0.0132  0.2300
  776loPI   C1A10721   2.745  11.360   6.342  0.2608 -0.1622  0.2520
  776loPI   C2A10722   2.622  11.587   6.676  0.1350  0.2867 -0.0627
  776loPI   C3A10723   2.803  11.521   7.084  0.0417  0.0619 -0.1227
  776loPI   C4A10724   2.857  11.255   7.446 -0.2663 -0.0792  0.1562
  776loPI   C5A10725   2.550  11.110   7.754 -0.2652  0.2557  0.0454
  776loPI   C6A10726   2.133  10.885   8.124  0.0426 -0.0598 -0.0771
  776loPI   C1B10727   2.864  10.602   6.782  0.0410 -0.0270  0.0301
  776loPI   C2B10728   2.751  10.253   7.067 -0.0444  0.0595  0.1745
  776loPI   C3B10729   3.015   9.966   7.294 -0.0270 -0.0320  0.0324
  776loPI   C4B10730   2.888   9.888   7.706 -0.1941 -0.1077  0.1667
  777loPI    C110731   8.510   0.684   5.960  0.4993  0.1317 -0.2224
  777loPI    C210732   8.560   0.651   5.564  0.1062 -0.1826 -0.2519
  777loPI    C310733   8.318   0.397   5.757 -0.1753  0.3349  0.0987
  777loPI   PO410734   8.378   0.949   5.967 -0.1074  0.0222  0.0032
  777loPI   GL110735   8.260   1.149   6.327  0.2892 -0.2862  0.2198
  777loPI   GL210736   8.635   1.012   6.370 -0.0661 -0.0258  0.2180
  777loPI   C1A10737   8.185   0.815   6.646 -0.0342 -0.0697  0.0045
  777loPI   C2A10738   8.168   0.996   7.033 -0.2092 -0.0858 -0.0953
  777loPI   C3A10739   8.258   1.024   7.443 -0.1104 -0.0524  0.0788
  777loPI   C4A10740   8.067   1.174   7.786 -0.1839  0.1211 -0.0557
  777loPI   C5A10741   7.782   1.456   8.048  0.0987 -0.0347  0.0115
  777loPI   C6A10742   7.647   1.533   8.398  0.0949  0.2747 -0.0459
  777loPI   C1B10743   8.632   1.092   6.815  0.0345  0.3037 -0.3011
  777loPI   C2B10744   8.693   1.147   7.207  0.0882  0.2226  0.0938
  777loPI   C3B10745   8.729   1.091   7.611 -0.1245 -0.1576 -0.3887
  777loPI   C4B10746   9.114   1.141   7.799  0.0421 -0.1909 -0.0334
  778loPI    C110747  14.199  12.558   5.713 -0.1658 -0.1520 -0.0835
  778loPI    C210748  14.390  12.811   5.470 -0.0656 -0.2031 -0.0591
  778loPI    C310749  14.041  12.916   5.635  0.0988  0.0216  0.1538
  778loPI   PO410750  14.481  12.482   5.832  0.0163  0.0222  0.1353
  778loPI   GL110751  14.603  12.182   6.069 -0.1740  0.0409  0.0455
  778loPI   GL210752  14.732  12.515   6.253 -0.1804  0.0372  0.0794
  778loPI   C1A10753  14.720  12.142   6.511  0.0104  0.0240 -0.1567
  778loPI   C2A10754  14.703  12.020   6.912 -0.0775 -0.0294 -0.0704
  778loPI   C3A10755  14.462  12.011   7.367  0.0811 -0.0634 -0.0335
  778loPI   C4A10756  14.195  12.088   7.788  0.0708  0.0562  0.0174
  778loPI   C5A10757  13.883  11.936   8.086  0.1211  0.0661  0.0937
  778loPI   C6A10758  13.524  11.784   8.008  0.0395 -0.1920 -0.2002
  778loPI   C1B10759  14.758  12.655   6.672  0.0110 -0.0153  0.1401
  778loPI   C2B10760  14.687  12.515   7.178  0.0964  0.1329 -0.0178
  778loPI   C3B10761  14.442  12.551   7.572 -0.0452 -0.0658  0.0106
  778loPI   C4B10762  14.696  12.734   7.957  0.4361  0.0213 -0.3713
  779loPI    C110763  12.219   0.336   5.337  0.0856  0.0486  0.1802
  779loPI    C210764  12.513   0.183   5.114 -0.1311  0.0964 -0.1456
  779loPI    C310765  12.181   0.320   4.939 -0.3577  0.0239  0.2187
  779loPI   PO410766  12.339   0.530   5.473 -0.1769  0.0181 -0.1438
  779loPI   GL110767  12.472   0.573   5.955 -0.0910 -0.2216  0.1720
  779loPI   GL210768  12.557   0.386   5.990  0.1554  0.1798  0.0587
  779loPI   C1A10769  12.356   0.745   6.369 -0.1146 -0.0743 -0.0523
  779loPI   C2A10770  12.091   0.942   6.591 -0.0694 -0.3139 -0.1622
  779loPI   C3A10771  12.125   1.206   7.010  0.1396 -0.0333 -0.0208
  779loPI   C4A10772  11.939   1.317   7.409 -0.0194 -0.2576  0.4619
  779loPI   C5A10773  11.934   1.454   7.810  0.1698 -0.2605  0.0531
  779loPI   C6A10774  11.859   1.588   8.224 -0.1779  0.1119  0.0378
  779loPI   C1B10775  12.783   0.522   6.393  0.1355 -0.3723 -0.2060
  779loPI   C2B10776  12.732   0.489   6.824  0.0497  0.1168  0.0044
  779loPI   C3B10777  12.645   0.435   7.241 -0.0295  0.0587 -0.0712
  779loPI   C4B10778  12.752   0.437   7.681  0.2265  0.3527 -0.3109
  780loPI    C110779  12.951  17.176   5.608 -0.0765 -0.2594 -0.0928
  780loPI    C210780  13.165  17.046   5.296  0.1688  0.4031 -0.2173
  780loPI    C310781  12.987  17.404   5.282 -0.2558  0.2204  0.2119
  780loPI   PO410782  13.059  17.080   5.843  0.2607  0.0046  0.0960
  780loPI   GL110783  13.065  16.823   6.184 -0.0679  0.3462 -0.1309
  780loPI   GL210784  13.192  16.398   6.124  0.0589 -0.2703 -0.2115
  780loPI   C1A10785  13.298  16.785   6.530 -0.3385 -0.0467  0.0639
  780loPI   C2A10786  13.318  16.780   6.913  0.1156  0.0954 -0.2660
  780loPI   C3A10787  13.297  16.694   7.414  0.3769 -0.1587  0.1392
  780loPI   C4A10788  13.376  16.428   7.717  0.2312  0.0306 -0.0050
  780loPI   C5A10789  13.383  15.915   7.907 -0.0669 -0.4136 -0.3913
  780loPI   C6A10790  13.479  15.674   8.304  0.3163  0.1022  0.0402
  780loPI   C1B10791  13.247  16.258   6.622 -0.1356 -0.0180  0.0840
  780loPI   C2B10792  13.365  16.302   7.059  0.2138  0.0925  0.1549
  780loPI   C3B10793  13.709  16.508   7.151  0.0657 -0.1877 -0.0625
  780loPI   C4B10794  13.835  16.675   7.511  0.1119 -0.0502 -0.0341
  781loPI    C110795   1.464  14.932   5.594 -0.1516 -0.1628 -0.0598
  781loPI    C210796   1.622  15.199   5.341  0.1885 -0.2562  0.0487
  781loPI    C310797   1.262  15.042   5.267  0.0433  0.1296 -0.0864
  781loPI   PO410798   1.468  15.024   5.851 -0.0057  0.0843 -0.0197
  781loPI   GL110799   1.803  14.979   6.164 -0.3106  0.3218 -0.1033
  781loPI   GL210800   1.928  14.679   6.059 -0.0340 -0.1941  0.1440
  781loPI   C1A10801   1.980  14.975   6.550  0.3039 -0.1326  0.2872
  781loPI   C2A10802   2.026  15.020   6.974  0.1121  0.0744  0.0617
  781loPI   C3A10803   1.886  14.964   7.426 -0.1430  0.3612  0.2125
  781loPI   C4A10804   1.942  15.221   7.755  0.0785 -0.2529 -0.1328
  781loPI   C5A10805   2.242  15.440   8.050 -0.2889  0.1064  0.1398
  781loPI   C6A10806   2.648  15.469   8.296 -0.0096  0.1509  0.2197
  781loPI   C1B10807   1.981  14.444   6.363 -0.1252 -0.1454  0.0933
  781loPI   C2B10808   1.965  14.385   6.819  0.1356 -0.1970  0.3575
  781loPI   C3B10809   1.970  14.484   7.233 -0.0083 -0.0424  0.0388
  781loPI   C4B10810   2.038  14.505   7.717 -0.0633 -0.1400 -0.5439
  782loPI    C110811   8.684   5.455   5.682  0.1265  0.1701  0.1887
  782loPI    C210812   8.619   5.208   5.374 -0.0955  0.4283  0.0231
  782loPI    C310813   8.991   5.328   5.459  0.0434 -0.1235  0.2376
  782loPI   PO410814   8.465   5.368   5.822  0.0989  0.5763  0.0917
  782loPI   GL110815   8.513   5.322   6.285 -0.0260 -0.4277 -0.1073
  782loPI   GL210816   8.146   5.282   6.379  0.0701  0.2057  0.2504
  782loPI   C1A10817   8.543   5.293   6.694  0.0054  0.3180  0.0477
  782loPI   C2A10818   8.661   5.175   7.155  0.2176 -0.1297  0.2479
  782loPI   C3A10819   8.777   5.201   7.527 -0.0244  0.1191  0.1713
  782loPI   C4A10820   8.948   5.061   7.895 -0.2394 -0.0002 -0.0783
  782loPI   C5A10821   9.177   4.766   7.918 -0.1359 -0.2741  0.2008
  782loPI   C6A10822   9.262   4.446   7.667 -0.3123  0.2640  0.0344
  782loPI   C1B10823   8.037   5.044   6.704 -0.0909  0.0063 -0.0101
  782loPI   C2B10824   8.153   4.940   7.093  0.5001 -0.0223 -0.0124
  782loPI   C3B10825   8.353   4.987   7.515  0.0490 -0.0620 -0.0339
  782loPI   C4B10826   8.472   5.123   7.881  0.1325  0.1220  0.0513
  783loPI    C110827   6.110  14.331   5.937 -0.0814  0.3619  0.0214
  783loPI    C210828   6.216  14.566   5.632 -0.1836  0.3037 -0.0594
  783loPI    C310829   5.977  14.252   5.568  0.3376 -0.1105 -0.0395
  783loPI   PO410830   6.056  14.495   6.086 -0.2762 -0.2665  0.0375
  783loPI   GL110831   6.258  14.432   6.445 -0.2332 -0.3635  0.1866
  783loPI   GL210832   6.314  14.560   6.633  0.1067 -0.0766 -0.2162
  783loPI   C1A10833   6.495  14.062   6.604  0.2082 -0.2635  0.2595
  783loPI   C2A10834   6.627  13.805   6.941 -0.3441  0.0248  0.0225
  783loPI   C3A10835   6.678  13.774   7.349  0.1715 -0.0604 -0.1556
  783loPI   C4A10836   6.753  13.622   7.724 -0.0793 -0.0806  0.0235
  783loPI   C5A10837   6.880  13.854   8.100  0.3960  0.1505 -0.2256
  783loPI   C6A10838   6.862  14.100   8.445  0.0565 -0.0457  0.2617
  783loPI   C1B10839   6.266  14.362   6.972  0.2424 -0.0603 -0.1924
  783loPI   C2B10840   6.254  14.433   7.422  0.1395  0.3563  0.0302
  783loPI   C3B10841   6.273  14.432   7.811 -0.1253 -0.2076  0.0947
  783loPI   C4B10842   6.494  14.369   8.160  0.1234 -0.2165 -0.0605
  784loPI    C110843   9.063   4.552   5.935 -0.0537  0.1685 -0.1189
  784loPI    C210844   9.431   4.542   5.779  0.1199  0.1385  0.2805
  784loPI    C310845   9.243   4.201   5.869 -0.0175  0.1532  0.0563
  784loPI   PO410846   9.155   4.672   6.153  0.0279 -0.0263 -0.0291
  784loPI   GL110847   9.062   4.999   6.371 -0.0308  0.0066 -0.3778
  784loPI   GL210848   9.303   5.121   6.340  0.0449  0.2508 -0.0988
  784loPI   C1A10849   9.023   5.013   6.825 -0.1869  0.3114  0.0238
  784loPI   C2A10850   9.098   4.838   7.267 -0.2546  0.0711  0.0079
  784loPI   C3A10851   8.727   4.672   7.601  0.1566  0.0682 -0.0749
  784loPI   C4A10852   8.685   4.672   8.036 -0.2947 -0.2883 -0.0286
  784loPI   C5A10853   8.615   4.895   8.434  0.2974  0.1276 -0.0286
  784loPI   C6A10854   8.474   5.182   8.715  0.0546 -0.0711 -0.0666
  784loPI   C1B10855   9.477   5.178   6.697  0.1618 -0.0789  0.0188
  784loPI   C2B10856   9.422   5.178   7.091 -0.2188  0.1574  0.1753
  784loPI   C3B10857   9.519   4.975   7.487 -0.1117  0.1510  0.2860
  784loPI   C4B10858   9.705   4.689   7.769  0.1254 -0.1773  0.1910
  785loPI    C110859   3.809   0.397   5.743 -0.0711 -0.2354 -0.1497
  785loPI    C210860   3.547   0.096   5.716 -0.1658 -0.1412 -0.2962
  785loPI    C310861   3.844   0.127   5.450 -0.0512 -0.2036 -0.1767
  785loPI   PO410862   3.910   0.319   6.095  0.2575  0.2429 -0.0896
  785loPI   GL110863   3.695   0.427   6.409  0.0766 -0.1289  0.0576
  785loPI   GL210864   3.471   0.588   6.541  0.3831 -0.0344  0.1902
  785loPI   C1A10865   3.616   0.269   6.855 -0.3817 -0.0329 -0.3829
  785loPI   C2A10866   3.704   0.330   7.236  0.1017 -0.0101 -0.0331
  785loPI   C3A10867   3.791   0.543   7.543 -0.2627 -0.1078 -0.1921
  785loPI   C4A10868   3.766   0.706   8.012 -0.0275  0.3148  0.0193
  785loPI   C5A10869   3.710   0.712   8.470  0.2093  0.1579 -0.3619
  785loPI   C6A10870   3.517   1.050   8.682 -0.3639  0.0091  0.2675
  785loPI   C1B10871   3.340   0.785   6.926 -0.0738  0.1351  0.0057
  785loPI   C2B10872   3.338   0.787   7.396 -0.5622 -0.0395 -0.0387
  785loPI   C3B10873   3.263   0.796   7.885 -0.0911 -0.1591  0.0441
  785loPI   C4B10874   3.195   0.854   8.244 -0.2510 -0.0077 -0.2671
  786loPI    C110875   4.228  12.430   5.738 -0.1846 -0.1354 -0.0097
  786loPI    C210876   4.421  12.659   5.473 -0.0711 -0.0797  0.1201
  786loPI    C310877   4.554  12.290   5.552 -0.0784 -0.0798  0.1327
  786loPI   PO410878   3.958  12.370   5.698  0.0018  0.3941  0.0600
  786loPI   GL110879   3.516  12.286   6.013 -0.0872  0.1466 -0.1038
  786loPI   GL210880   3.513  11.954   6.079 -0.0703 -0.2596  0.4229
  786loPI   C1A10881   3.766  12.207   6.477  0.2750  0.1727 -0.0628
  786loPI   C2A10882   3.692  12.018   6.860  0.1989 -0.0637  0.0374
  786loPI   C3A10883   3.647  12.240   7.155 -0.0630 -0.1660 -0.0002
  786loPI   C4A10884   3.693  12.480   7.609  0.0276  0.0269 -0.1547
  786loPI   C5A10885   3.594  12.743   7.982  0.1549 -0.3081  0.3448
  786loPI   C6A10886   3.666  13.088   8.270 -0.3133 -0.0027 -0.2528
  786loPI   C1B10887   3.372  11.880   6.410 -0.1340 -0.2859 -0.1433
  786loPI   C2B10888   3.290  11.756   6.886 -0.3478 -0.1103  0.1740
  786loPI   C3B10889   3.242  11.932   7.164 -0.0281 -0.1935  0.0794
  786loPI   C4B10890   2.988  11.858   7.487  0.5092 -0.0460 -0.1514
  787loPI    C110891  14.202   3.843   5.482  0.4410  0.1691 -0.0719
  787loPI    C210892  14.263   3.546   5.221  0.1893  0.0560 -0.0054
  787loPI    C310893  14.209   3.920   5.090 -0.0524 -0.0186 -0.1249
  787loPI   PO410894  14.432   3.811   5.711  0.1445  0.1156  0.0558
  787loPI   GL110895  14.432   3.641   6.167 -0.0452  0.0915 -0.1981
  787loPI   GL210896  14.545   3.437   6.041  0.2167 -0.3035  0.1338
  787loPI   C1A10897  14.293   3.388   6.458 -0.0645 -0.0918  0.0359
  787loPI   C2A10898  14.193   3.360   6.905  0.0711  0.1125 -0.2927
  787loPI   C3A10899  13.982   3.170   7.346 -0.1080 -0.0857 -0.0544
  787loPI   C4A10900  14.020   3.016   7.783 -0.3074  0.0936  0.2097
  787loPI   C5A10901  13.769   2.937   8.118  0.1250  0.0351 -0.4934
  787loPI   C6A10902  13.314   3.030   8.259 -0.3024  0.0913  0.3599
  787loPI   C1B10903  14.605   3.029   6.279 -0.1824 -0.1406  0.2788
  787loPI   C2B10904  14.490   2.885   6.667  0.1664  0.2499  0.0718
  787loPI   C3B10905  14.425   2.704   7.009 -0.1679 -0.0678  0.0805
  787loPI   C4B10906  14.338   2.781   7.392 -0.0581 -0.1628  0.2642
  788loPI    C110907  13.668  11.973   5.324  0.2694  0.2231  0.0634
  788loPI    C210908  13.656  11.821   4.954 -0.0089 -0.0079  0.1628
  788loPI    C310909  13.447  12.151   5.042 -0.2291 -0.1556  0.2003
  788loPI   PO410910  13.892  11.979   5.384 -0.0412  0.1690 -0.2974
  788loPI   GL110911  14.155  12.046   5.708 -0.0378 -0.1622 -0.0199
  788loPI   GL210912  14.359  11.783   5.869  0.2764  0.1414 -0.0592
  788loPI   C1A10913  13.953  11.919   6.202 -0.1310  0.0992 -0.0420
  788loPI   C2A10914  13.793  12.031   6.645 -0.1284  0.0904  0.0312
  788loPI   C3A10915  13.749  12.070   7.041  0.0825  0.2281  0.0870
  788loPI   C4A10916  13.697  12.107   7.521 -0.0385 -0.1610  0.0086
  788loPI   C5A10917  13.739  12.436   7.969  0.0051 -0.1126 -0.1989
  788loPI   C6A10918  14.089  12.758   7.903 -0.1833 -0.1182 -0.1422
  788loPI   C1B10919  14.399  11.798   6.347  0.0214  0.2792 -0.2243
  788loPI   C2B10920  14.256  11.814   6.696 -0.0912  0.0322  0.0208
  788loPI   C3B10921  14.123  11.766   7.079 -0.3417 -0.0085  0.3327
  788loPI   C4B10922  14.056  11.704   7.482 -0.1480 -0.0733 -0.3949
  789loPI    C110923  12.993   4.126   5.562  0.0549  0.1958  0.0775
  789loPI    C210924  13.018   4.334   5.221  0.0552 -0.0674 -0.0856
  789loPI    C310925  13.100   3.942   5.223  0.0154 -0.0762  0.2099
  789loPI   PO410926  12.785   4.069   5.717  0.0288 -0.1264  0.0595
  789loPI   GL110927  12.617   4.146   6.104  0.0214  0.1264 -0.0134
  789loPI   GL210928  12.634   4.399   6.303 -0.0310 -0.0544  0.3197
  789loPI   C1A10929  12.500   3.910   6.557 -0.0526  0.0965  0.0167
  789loPI   C2A10930  12.439   3.878   6.897 -0.2564 -0.0888 -0.2386
  789loPI   C3A10931  12.510   3.935   7.309  0.4667  0.2208 -0.2948
  789loPI   C4A10932  12.428   3.922   7.849  0.1328 -0.0426  0.0003
  789loPI   C5A10933  12.031   3.819   7.940  0.0378  0.1925  0.0621
  789loPI   C6A10934  11.977   3.633   8.311 -0.3846  0.2024  0.1478
  789loPI   C1B10935  12.925   4.187   6.481 -0.0785  0.2220 -0.0627
  789loPI   C2B10936  12.952   4.030   6.956  0.1228 -0.0187  0.1913
  789loPI   C3B10937  13.015   3.921   7.334 -0.0249 -0.0461  0.0650
  789loPI   C4B10938  12.830   3.742   7.684  0.0403  0.2350 -0.2170
  790loPI    C110939   1.812  14.548   5.464  0.0636 -0.1560 -0.3081
  790loPI    C210940   2.008  14.558   5.115 -0.1885  0.1072 -0.4470
  790loPI    C310941   1.644  14.721   5.144 -0.1726  0.0831 -0.0600
  790loPI   PO410942   2.019  14.367   5.644 -0.1758  0.3348  0.2199
  790loPI   GL110943   2.019  14.028   5.923 -0.0603 -0.2339  0.1187
  790loPI   GL210944   2.318  13.994   5.815 -0.0979 -0.1554  0.1234
  790loPI   C1A10945   2.061  13.938   6.424 -0.0585  0.0193  0.1630
  790loPI   C2A10946   2.017  13.910   6.919 -0.3305 -0.1795  0.0498
  790loPI   C3A10947   2.028  13.985   7.360 -0.3655  0.1684 -0.1357
  790loPI   C4A10948   1.901  13.744   7.732  0.0318  0.0431 -0.2543
  790loPI   C5A10949   2.071  13.700   8.143 -0.1969  0.0802  0.1331
  790loPI   C6A10950   1.936  13.831   8.586 -0.1434  0.0138 -0.1631
  790loPI   C1B10951   2.447  14.239   6.143 -0.0718 -0.5493 -0.0422
  790loPI   C2B10952   2.479  14.360   6.588 -0.2185 -0.1194  0.2107
  790loPI   C3B10953   2.403  14.303   6.996  0.0100  0.4022  0.0723
  790loPI   C4B10954   2.393  14.307   7.375 -0.0577 -0.0221  0.1139
  791loPI    C110955  13.121   1.480   5.293 -0.0638  0.1611  0.1495
  791loPI    C210956  12.983   1.826   5.148 -0.0148  0.0904 -0.0681
  791loPI    C310957  13.051   1.518   4.901 -0.2212 -0.1309  0.1464
  791loPI   PO410958  13.227   1.537   5.508 -0.0018 -0.0889  0.3206
  791loPI   GL110959  13.311   1.708   5.951 -0.2406  0.2026  0.2072
  791loPI   GL210960  13.430   1.374   6.076  0.0965 -0.0212  0.0613
  791loPI   C1A10961  13.334   1.719   6.408  0.1079 -0.1246  0.0422
  791loPI   C2A10962  13.486   1.596   6.778  0.0851  0.0474  0.2323
  791loPI   C3A10963  13.534   1.271   7.056  0.3139  0.2674  0.0548
  791loPI   C4A10964  13.715   1.097   7.382  0.0180  0.0515  0.2425
  791loPI   C5A10965  14.038   0.925   7.575 -0.0061  0.1391  0.4569
  791loPI   C6A10966  14.285   0.546   7.496  0.1122  0.0294 -0.1127
  791loPI   C1B10967  13.468   1.192   6.493 -0.0819 -0.0230  0.2228
  791loPI   C2B10968  13.622   0.800   6.738 -0.0753  0.1153  0.0352
  791loPI   C3B10969  13.658   0.619   7.085 -0.0540  0.4898 -0.0976
  791loPI   C4B10970  13.674   0.618   7.576 -0.0090  0.1650 -0.2197
  792loPI    C110971   7.913  15.588   6.175  0.1583  0.0083 -0.0164
  792loPI    C210972   7.901  15.837   5.863  0.0089  0.0011 -0.0171
  792loPI    C310973   7.562  15.724   6.042  0.1098  0.2370  0.3326
  792loPI   PO410974   8.001  15.678   6.328 -0.0046 -0.1876 -0.0163
  792loPI   GL110975   7.963  15.768   6.747  0.1003  0.0973  0.2192
  792loPI   GL210976   7.859  15.486   6.953 -0.2230  0.5538  0.0396
  792loPI   C1A10977   8.111  15.819   7.207 -0.2022  0.1898 -0.3887
  792loPI   C2A10978   8.145  15.833   7.614 -0.0596 -0.1086 -0.0795
  792loPI   C3A10979   8.332  15.882   7.919 -0.1368 -0.1313  0.2158
  792loPI   C4A10980   8.696  15.868   8.235 -0.1089  0.1084  0.2977
  792loPI   C5A10981   8.974  15.768   8.583 -0.0893  0.3171  0.0605
  792loPI   C6A10982   9.251  15.922   8.822  0.1441  0.0882 -0.2338
  792loPI   C1B10983   7.915  15.361   7.419 -0.0716  0.0520  0.0266
  792loPI   C2B10984   8.184  15.311   7.826  0.0357 -0.1959  0.0167
  792loPI   C3B10985   8.419  15.488   8.172 -0.1726 -0.0718  0.2205
  792loPI   C4B10986   8.600  15.346   8.536  0.2713  0.0011 -0.2021
  793loPI    C110987   1.279   9.285   5.488  0.0320  0.0366 -0.0867
  793loPI    C210988   1.377   8.899   5.457  0.0541  0.0315  0.0416
  793loPI    C310989   1.122   9.062   5.196 -0.0822 -0.1097  0.0848
  793loPI   PO410990   1.146   9.289   5.721 -0.1151  0.1611 -0.0741
  793loPI   GL110991   0.818   9.003   6.071 -0.0921 -0.0010 -0.0604
  793loPI   GL210992   0.993   9.170   6.248  0.1269 -0.0453 -0.0188
  793loPI   C1A10993   0.571   8.755   6.295 -0.0586 -0.1910 -0.1369
  793loPI   C2A10994   0.364   8.815   6.663 -0.0109 -0.1914  0.0938
  793loPI   C3A10995   0.359   8.949   7.077 -0.0125  0.2630 -0.2338
  793loPI   C4A10996   0.281   8.976   7.463 -0.1274 -0.3618 -0.2297
  793loPI   C5A10997   0.255   9.254   7.823  0.1681  0.2622 -0.4162
  793loPI   C6A10998   0.800   9.211   7.964  0.0129  0.0345  0.1180
  793loPI   C1B10999   1.032   9.261   6.638 -0.0264  0.3439 -0.0177
  793loPI   C2B11000   1.117   9.662   6.845  0.2263 -0.2616 -0.1723
  793loPI   C3B11001   0.996   9.807   7.216  0.0978  0.3110 -0.0507
  793loPI   C4B11002   0.670  10.058   7.391 -0.0736 -0.0169 -0.0595
  794loPI    C111003  11.736   1.441   5.363 -0.0062 -0.0319 -0.2201
  794loPI    C211004  11.487   1.731   5.479  0.1850  0.1359 -0.2224
  794loPI    C311005  11.411   1.525   5.145 -0.1334 -0.0513 -0.0399
  794loPI   PO411006  11.719   1.310   5.567  0.0218  0.0056  0.0123
  794loPI   GL111007  11.826   1.420   5.903  0.1798  0.0978 -0.0928
  794loPI   GL211008  11.894   1.790   5.840 -0.4378 -0.1042  0.0266
  794loPI   C1A11009  11.702   1.335   6.275 -0.1217  0.3278 -0.3490
  794loPI   C2A11010  11.821   1.545   6.602  0.0769  0.1560 -0.2917
  794loPI   C3A11011  11.865   1.675   7.049  0.1218  0.2503  0.0544
  794loPI   C4A11012  11.779   1.851   7.484 -0.0482 -0.2018  0.1596
  794loPI   C5A11013  11.943   1.950   7.873  0.1570  0.2348 -0.1190
  794loPI   C6A11014  11.881   2.109   8.300 -0.1564  0.2140 -0.1701
  794loPI   C1B11015  12.024   1.877   6.277  0.1321  0.3216 -0.2049
  794loPI   C2B11016  11.962   2.085   6.599  0.1539  0.1600  0.0127
  794loPI   C3B11017  12.051   2.108   7.039  0.0720 -0.1074  0.1218
  794loPI   C4B11018  12.292   1.987   7.490  0.2463  0.0295 -0.1877
  795loPI    C111019  16.030   3.815   5.556  0.1111  0.0510  0.0187
  795loPI    C211020  15.783   3.505   5.607 -0.2183  0.2616 -0.2496
  795loPI    C311021  15.754   3.731   5.279  0.1181  0.4883 -0.1283
  795loPI   PO411022  16.234   3.817   5.826  0.0532 -0.1619 -0.1175
  795loPI   GL111023  16.225   3.960   6.250 -0.2249 -0.2335  0.1618
  795loPI   GL211024  16.237   3.662   6.351  0.3794  0.0753  0.1194
  795loPI   C1A11025  16.668   3.887   6.600 -0.2920  0.3837 -0.0709
  795loPI   C2A11026  16.734   3.873   6.886  0.0562  0.3707 -0.1255
  795loPI   C3A11027  16.663   3.856   7.281  0.0447 -0.0581 -0.3914
  795loPI   C4A11028  16.466   3.573   7.455 -0.1712  0.2813  0.3619
  795loPI   C5A11029  16.048   3.274   7.508 -0.2105 -0.2760  0.3209
  795loPI   C6A11030  15.804   3.064   7.746  0.1596  0.2451 -0.1309
  795loPI   C1B11031  16.193   3.926   6.736  0.0354 -0.0502  0.0466
  795loPI   C2B11032  16.262   4.186   7.143 -0.3683  0.1492  0.0307
  795loPI   C3B11033  16.208   4.157   7.522  0.3099  0.0600  0.0666
  795loPI   C4B11034  16.510   4.065   7.801 -0.1716 -0.1669 -0.2516
  796loPI    C111035  15.516  17.221   5.564  0.0617  0.1605 -0.0988
  796loPI    C211036  15.209  17.469   5.500 -0.2098 -0.1569 -0.0525
  796loPI    C311037  15.407  17.312   5.190 -0.3651 -0.2784 -0.0920
  796loPI   PO411038  15.636  17.309   5.710 -0.0320 -0.1418 -0.1547
  796loPI   GL111039  15.571  17.563   5.987  0.1529 -0.2617 -0.0809
  796loPI   GL211040  15.538  17.808   6.225  0.4101 -0.3706  0.0660
  796loPI   C1A11041  15.858  17.483   6.365 -0.0115 -0.1435 -0.1105
  796loPI   C2A11042  15.900  17.237   6.750  0.2907  0.1768 -0.1040
  796loPI   C3A11043  15.784  17.077   7.186 -0.0843 -0.1087 -0.0258
  796loPI   C4A11044  15.733  16.981   7.585  0.1461  0.0222  0.2523
  796loPI   C5A11045  15.801  16.773   7.929 -0.0432 -0.2047  0.2653
  796loPI   C6A11046  16.008  16.546   8.273 -0.0018 -0.0836  0.2160
  796loPI   C1B11047  15.592  17.816   6.644  0.0778  0.0625 -0.2172
  796loPI   C2B11048  15.525  17.997   7.064 -0.0959 -0.0825 -0.2288
  796loPI   C3B11049  15.483  18.242   7.300 -0.2573 -0.3404 -0.1485
  796loPI   C4B11050  15.258  18.398   7.539  0.0400 -0.0621 -0.0957
  797loPI    C111051  17.661  13.336   5.464 -0.0967  0.2876  0.1133
  797loPI    C211052  17.554  12.959   5.381  0.0597  0.2628  0.0223
  797loPI    C311053  17.658  13.208   5.085  0.3815  0.2466  0.1183
  797loPI   PO411054  17.684  13.277   5.791  0.1857  0.0854 -0.0233
  797loPI   GL111055  17.460  13.233   6.132  0.3842 -0.0341  0.1850
  797loPI   GL211056  17.747  13.463   6.217  0.3649  0.0508 -0.1361
  797loPI   C1A11057  17.240  13.315   6.536  0.1517  0.1602 -0.0047
  797loPI   C2A11058  17.149  13.523   6.981 -0.1651  0.1087 -0.1774
  797loPI   C3A11059  17.094  13.668   7.425  0.0413  0.0425  0.0691
  797loPI   C4A11060  16.911  13.875   7.789  0.2287 -0.0814  0.1500
  797loPI   C5A11061  16.461  14.033   7.767  0.2724  0.0345  0.3294
  797loPI   C6A11062  16.009  14.249   7.789 -0.1111  0.3880 -0.0046
  797loPI   C1B11063  17.808  13.361   6.608 -0.1273 -0.0063  0.2393
  797loPI   C2B11064  17.592  13.230   6.988  0.1557  0.0507  0.1178
  797loPI   C3B11065  17.419  13.192   7.313 -0.0871  0.1230 -0.1313
  797loPI   C4B11066  17.158  13.244   7.653  0.3471 -0.1212  0.0946
  798loPI    C111067   4.694   8.524   5.678 -0.1570  0.0229  0.2139
  798loPI    C211068   4.446   8.695   5.415 -0.4076 -0.1672  0.3217
  798loPI    C311069   4.560   8.314   5.365 -0.1824 -0.0994  0.3058
  798loPI   PO411070   4.614   8.534   5.930 -0.2487 -0.2520  0.2041
  798loPI   GL111071   4.554   8.255   6.180 -0.1108  0.2579 -0.0766
  798loPI   GL211072   4.271   8.331   6.271 -0.2087  0.1023 -0.0540
  798loPI   C1A11073   4.676   8.093   6.465  0.0214 -0.2376 -0.2277
  798loPI   C2A11074   4.370   7.819   6.725  0.1823  0.0757  0.1162
  798loPI   C3A11075   4.517   7.831   7.180 -0.0174 -0.2087 -0.1047
  798loPI   C4A11076   4.611   7.978   7.547 -0.1008  0.1510 -0.0353
  798loPI   C5A11077   4.622   7.805   8.020  0.0367 -0.0383  0.3083
  798loPI   C6A11078   4.566   7.395   8.137  0.3002 -0.0658 -0.1329
  798loPI   C1B11079   4.187   8.292   6.651  0.1780  0.0991  0.0472
  798loPI   C2B11080   4.113   8.284   7.079 -0.0914  0.0804 -0.2300
  798loPI   C3B11081   4.061   8.252   7.530  0.0937 -0.0980 -0.0773
  798loPI   C4B11082   3.741   8.191   7.825 -0.1580 -0.2205  0.1240
  799loPI    C111083  11.769  15.843   5.716  0.1125  0.0949 -0.0631
  799loPI    C211084  11.503  15.569   5.598  0.1078  0.1136 -0.0963
  799loPI    C311085  11.567  15.894   5.374  0.0898  0.1552 -0.0410
  799loPI   PO411086  11.682  15.842   5.998  0.1627 -0.1641 -0.0824
  799loPI   GL111087  11.724  15.520   6.320  0.3695  0.0140 -0.4382
  799loPI   GL211088  11.965  15.628   6.473 -0.1560  0.1339  0.1826
  799loPI   C1A11089  11.801  15.130   6.726  0.2455  0.0589 -0.2007
  799loPI   C2A11090  11.825  15.122   7.215 -0.1863 -0.2006 -0.0113
  799loPI   C3A11091  11.917  15.178   7.657 -0.0371  0.0510  0.0536
  799loPI   C4A11092  11.952  15.254   8.090  0.1157 -0.4217  0.1017
  799loPI   C5A11093  11.663  15.451   8.299 -0.1213 -0.0114 -0.0711
  799loPI   C6A11094  11.226  15.590   8.337 -0.1465  0.1693  0.2983
  799loPI   C1B11095  11.998  15.603   6.949 -0.0373 -0.0806 -0.0496
  799loPI   C2B11096  11.981  15.626   7.447 -0.4960  0.1137  0.2562
  799loPI   C3B11097  12.217  15.617   7.846  0.0983  0.1305 -0.1877
  799loPI   C4B11098  12.009  15.870   8.221 -0.0226  0.2484 -0.0099
  800loPI    C111099  11.207   2.139   5.551  0.1290 -0.1828 -0.0987
  800loPI    C211100  10.826   2.241   5.484  0.1640 -0.0219 -0.0559
  800loPI    C311101  10.989   1.936   5.283  0.0370 -0.0395 -0.1338
  800loPI   PO411102  11.298   2.337   5.697 -0.0898  0.1068 -0.2489
  800loPI   GL111103  11.350   2.736   5.976 -0.2404 -0.1934 -0.1047
  800loPI   GL211104  11.213   2.534   6.198 -0.4434 -0.1228  0.1872
  800loPI   C1A11105  11.463   2.958   6.378 -0.1659  0.0072  0.1064
  800loPI   C2A11106  11.524   2.978   6.773 -0.0266  0.3390 -0.0339
  800loPI   C3A11107  11.647   2.786   7.187 -0.0210  0.1096 -0.0138
  800loPI   C4A11108  11.733   2.792   7.666 -0.2214 -0.0659 -0.1196
  800loPI   C5A11109  11.798   2.607   8.027 -0.0458 -0.0046  0.0892
  800loPI   C6A11110  11.928   2.647   8.427 -0.0140  0.3271  0.0444
  800loPI   C1B11111  11.230   2.560   6.650  0.1797  0.1222 -0.0298
  800loPI   C2B11112  11.079   2.469   7.029 -0.5368 -0.1373  0.2194
  800loPI   C3B11113  11.126   2.486   7.521 -0.1388 -0.0890  0.0217
  800loPI   C4B11114  11.304   2.671   7.909 -0.1855  0.1590 -0.0124
  801loPI    C111115  12.391  16.442   6.018  0.2558  0.0911  0.1870
  801loPI    C211116  12.378  16.695   5.708  0.0853 -0.3351 -0.1637
  801loPI    C311117  12.717  16.650   5.915  0.2266 -0.1104 -0.3419
  801loPI   PO411118  12.062  16.502   6.061 -0.0896  0.1134 -0.2568
  801loPI   GL111119  11.883  16.712   6.316  0.0999  0.0428  0.0970
  801loPI   GL211120  11.840  17.046   6.391 -0.0094  0.1101 -0.3083
  801loPI   C1A11121  11.686  16.673   6.753  0.0140 -0.1352 -0.2298
  801loPI   C2A11122  11.591  16.677   7.118 -0.0197  0.1450  0.1403
  801loPI   C3A11123  11.691  16.553   7.390 -0.2323  0.0520  0.0717
  801loPI   C4A11124  11.710  16.401   7.773  0.1826 -0.0142  0.1540
  801loPI   C5A11125  11.658  16.234   8.168 -0.2705 -0.0042 -0.1780
  801loPI   C6A11126  11.571  15.930   8.455  0.2282 -0.0401 -0.2984
  801loPI   C1B11127  11.852  17.118   6.858 -0.2558 -0.0154 -0.2902
  801loPI   C2B11128  11.868  17.061   7.336  0.2100 -0.3273 -0.0134
  801loPI   C3B11129  11.634  16.962   7.661 -0.1106 -0.3448  0.3313
  801loPI   C4B11130  11.724  16.797   8.055  0.1185 -0.3083  0.0256
  802loPI    C111131   6.338   2.215   5.812  0.0874  0.1613 -0.0267
  802loPI    C211132   6.174   2.549   5.959  0.0111 -0.0192  0.3080
  802loPI    C311133   6.027   2.385   5.626  0.1190  0.3375  0.0787
  802loPI   PO411134   6.355   2.124   6.105  0.2467 -0.1848 -0.0610
  802loPI   GL111135   6.443   1.883   6.425 -0.0692  0.2135 -0.0046
  802loPI   GL211136   6.157   1.897   6.545  0.1497 -0.1863 -0.0558
  802loPI   C1A11137   6.412   1.641   6.844 -0.0035  0.0086 -0.1885
  802loPI   C2A11138   6.505   1.677   7.218 -0.2033 -0.0924 -0.2143
  802loPI   C3A11139   6.355   1.803   7.525  0.2070  0.0888  0.0337
  802loPI   C4A11140   6.514   1.871   7.908  0.1855 -0.1496  0.0373
  802loPI   C5A11141   6.761   1.587   8.131 -0.0620 -0.2322 -0.2964
  802loPI   C6A11142   7.105   1.706   8.373 -0.3596  0.1109 -0.1613
  802loPI   C1B11143   6.197   2.087   6.987  0.0276 -0.0895  0.4407
  802loPI   C2B11144   6.061   2.305   7.254  0.3123  0.2405 -0.2024
  802loPI   C3B11145   6.032   2.254   7.652 -0.3255 -0.0421 -0.1161
  802loPI   C4B11146   6.161   2.175   8.068  0.0861 -0.0768  0.1009
  803loPI    C111147   2.660   0.654   5.921 -0.1403 -0.1925  0.0401
  803loPI    C211148   3.045   0.716   5.831 -0.1848 -0.1144 -0.0988
  803loPI    C311149   2.836   0.438   5.633 -0.1190 -0.3713  0.1850
  803loPI   PO411150   2.561   0.714   6.123 -0.1511  0.1933 -0.3747
  803loPI   GL111151   2.409   0.964   6.408 -0.4319 -0.1090 -0.0689
  803loPI   GL211152   2.654   0.989   6.571  0.1653 -0.3298  0.0642
  803loPI   C1A11153   2.233   1.034   6.800  0.0430 -0.1006  0.0293
  803loPI   C2A11154   2.399   1.008   7.364  0.0071 -0.0515 -0.0162
  803loPI   C3A11155   2.506   0.968   7.752  0.0276  0.3158  0.0234
  803loPI   C4A11156   2.375   0.814   8.139  0.0423 -0.1441 -0.1895
  803loPI   C5A11157   2.056   0.689   8.369 -0.0919 -0.2482 -0.0751
  803loPI   C6A11158   1.656   0.460   8.351  0.0321  0.1298 -0.5479
  803loPI   C1B11159   2.654   0.825   6.998 -0.0872 -0.1021  0.0113
  803loPI   C2B11160   2.709   0.678   7.441  0.0795  0.2786 -0.0061
  803loPI   C3B11161   2.831   0.485   7.800  0.4113  0.2058 -0.1888
  803loPI   C4B11162   2.754   0.578   8.261 -0.0194  0.1729  0.0117
  804loPI    C111163  13.970   6.098   5.560  0.1307 -0.0543  0.0654
  804loPI    C211164  13.819   5.821   5.314  0.0313  0.1185 -0.0709
  804loPI    C311165  14.139   6.034   5.203  0.0697  0.1017  0.0073
  804loPI   PO411166  13.947   6.057   5.748 -0.0335 -0.1429  0.1541
  804loPI   GL111167  14.224   5.882   6.010  0.1391 -0.0125 -0.0293
  804loPI   GL211168  14.534   5.900   6.138 -0.0535  0.1618 -0.0452
  804loPI   C1A11169  14.120   6.068   6.404 -0.1927  0.0757  0.0624
  804loPI   C2A11170  14.226   6.286   6.808 -0.0303 -0.0080 -0.3030
  804loPI   C3A11171  14.120   6.326   7.197  0.1888  0.4271 -0.1867
  804loPI   C4A11172  14.246   6.211   7.644 -0.0745 -0.0710  0.1222
  804loPI   C5A11173  14.385   5.879   8.021  0.1725  0.0486  0.1275
  804loPI   C6A11174  14.548   5.505   8.168  0.3260 -0.3148  0.2978
  804loPI   C1B11175  14.835   5.667   6.449  0.1395 -0.1357 -0.3559
  804loPI   C2B11176  15.085   5.236   6.536 -0.1114  0.2552 -0.2906
  804loPI   C3B11177  15.146   4.901   6.885 -0.0079 -0.2270  0.0516
  804loPI   C4B11178  15.481   4.605   7.085  0.4185  0.0667 -0.1493
  805loPI    C111179   7.527   1.966   5.691 -0.0168  0.0308 -0.0960
  805loPI    C211180   7.331   1.895   5.349  0.1113  0.1524 -0.1960
  805loPI    C311181   7.407   2.271   5.462  0.1025  0.1116 -0.0519
  805loPI   PO411182   7.754   1.749   5.676  0.4021  0.3087  0.2076
  805loPI   GL111183   8.122   1.570   6.001 -0.1092 -0.2128 -0.4438
  805loPI   GL211184   7.872   1.285   6.043  0.2977 -0.3666  0.1013
  805loPI   C1A11185   8.099   1.748   6.384  0.2005  0.0024 -0.1485
  805loPI   C2A11186   7.990   1.885   6.796 -0.0418 -0.3532 -0.0562
  805loPI   C3A11187   8.014   2.010   7.142 -0.2830  0.3458  0.1095
  805loPI   C4A11188   7.779   2.241   7.408 -0.1460 -0.0503 -0.0287
  805loPI   C5A11189   7.789   2.333   7.920 -0.1385 -0.0108  0.1278
  805loPI   C6A11190   7.667   2.437   8.250  0.1077 -0.1660 -0.0039
  805loPI   C1B11191   7.775   1.047   6.455 -0.0882  0.5637 -0.0675
  805loPI   C2B11192   7.672   0.989   6.920 -0.0263 -0.2147 -0.0244
  805loPI   C3B11193   7.742   1.043   7.372  0.2279  0.1087  0.2674
  805loPI   C4B11194   7.590   1.032   7.840 -0.1270  0.3289 -0.1764
  806loPI    C111195  12.719   4.541   5.825  0.0377 -0.0461  0.1004
  806loPI    C211196  12.326   4.522   5.750  0.0947 -0.2774 -0.1587
  806loPI    C311197  12.588   4.472   5.453  0.3226 -0.1871  0.0240
  806loPI   PO411198  12.738   4.739   5.973  0.1844 -0.2429  0.1100
  806loPI   GL111199  12.728   4.915   6.428  0.0743  0.3087 -0.1798
  806loPI   GL211200  12.650   5.143   6.219 -0.0201 -0.0750 -0.0664
  806loPI   C1A11201  12.860   4.980   6.803  0.4268 -0.1271 -0.1488
  806loPI   C2A11202  12.856   4.832   7.151 -0.0651 -0.0045 -0.0571
  806loPI   C3A11203  13.004   4.722   7.633 -0.1723  0.1815 -0.1405
  806loPI   C4A11204  12.856   4.620   7.977  0.0038 -0.0885 -0.0784
  806loPI   C5A11205  12.414   4.522   8.030  0.0628  0.0977 -0.0733
  806loPI   C6A11206  12.039   4.369   8.070  0.1022  0.1069 -0.2816
  806loPI   C1B11207  12.473   5.340   6.558  0.0047  0.3501 -0.1106
  806loPI   C2B11208  12.506   5.305   6.935  0.1370 -0.0138  0.1032
  806loPI   C3B11209  12.427   5.181   7.366 -0.5919 -0.1169 -0.1342
  806loPI   C4B11210  12.343   5.501   7.702 -0.0062  0.0156 -0.0039
  807loPI    C111211   5.157   9.119   5.710 -0.1639  0.1188 -0.1155
  807loPI    C211212   5.143   8.730   5.805  0.0082  0.1171 -0.0937
  807loPI    C311213   5.021   8.853   5.444 -0.3453  0.0833  0.0110
  807loPI   PO411214   5.276   9.232   5.991  0.0026  0.0325 -0.0626
  807loPI   GL111215   5.391   9.246   6.444  0.0790 -0.1439 -0.0834
  807loPI   GL211216   5.352   8.939   6.440 -0.1506  0.0868 -0.2865
  807loPI   C1A11217   5.685   9.441   6.781  0.1088 -0.1102  0.0013
  807loPI   C2A11218   5.628   9.326   7.194 -0.0809 -0.1039  0.0086
  807loPI   C3A11219   5.786   9.256   7.540 -0.1273  0.3109 -0.0823
  807loPI   C4A11220   5.795   9.380   7.921 -0.2912  0.2901 -0.0724
  807loPI   C5A11221   5.848   9.746   8.096 -0.1534 -0.0296 -0.0543
  807loPI   C6A11222   6.021  10.140   7.933 -0.1252  0.4409 -0.3982
  807loPI   C1B11223   5.389   8.975   6.872  0.2272 -0.0780  0.0381
  807loPI   C2B11224   5.323   8.908   7.327 -0.0456 -0.0348  0.3299
  807loPI   C3B11225   5.216   8.646   7.632  0.4234 -0.0668  0.0588
  807loPI   C4B11226   5.242   8.718   8.116 -0.3963  0.3548  0.0783
  808loPI    C111227   7.356   3.370   5.739 -0.0746 -0.0373 -0.0782
  808loPI    C211228   7.588   3.310   5.419  0.2363  0.2350  0.0897
  808loPI    C311229   7.225   3.470   5.375  0.1213 -0.0849 -0.1634
  808loPI   PO411230   7.391   3.118   5.970 -0.2002 -0.1455 -0.2291
  808loPI   GL111231   7.747   3.220   6.204  0.1262  0.2917  0.1317
  808loPI   GL211232   8.053   2.981   6.093 -0.1934 -0.0875 -0.3324
  808loPI   C1A11233   7.712   3.160   6.589 -0.0048 -0.0394  0.0594
  808loPI   C2A11234   7.717   3.290   6.865 -0.1806  0.0182 -0.0910
  808loPI   C3A11235   7.396   3.384   7.178 -0.1173  0.3509 -0.0376
  808loPI   C4A11236   7.145   3.235   7.500  0.0364 -0.2277 -0.2863
  808loPI   C5A11237   7.257   3.353   7.914 -0.0389 -0.1015 -0.1255
  808loPI   C6A11238   7.477   3.673   8.093  0.1421 -0.2130 -0.2662
  808loPI   C1B11239   8.200   3.290   6.427  0.2544  0.3452 -0.1283
  808loPI   C2B11240   8.172   3.633   6.649  0.1176 -0.0340  0.0976
  808loPI   C3B11241   8.076   4.071   6.578  0.2430  0.0242  0.0201
  808loPI   C4B11242   8.132   4.431   6.678  0.0555  0.0799 -0.1250
  809loPI    C111243   1.836  10.553   5.389  0.1201  0.0957  0.0726
  809loPI    C211244   2.099  10.421   5.119  0.3990  0.0206  0.3743
  809loPI    C311245   1.710  10.335   5.078  0.4121  0.1574 -0.0915
  809loPI   PO411246   1.895  10.419   5.723 -0.1137  0.0817  0.0090
  809loPI   GL111247   1.791  10.365   6.148  0.1497 -0.1385  0.0179
  809loPI   GL211248   1.519  10.213   6.297  0.0616  0.1585 -0.0908
  809loPI   C1A11249   1.894  10.311   6.676 -0.3134  0.1872 -0.0489
  809loPI   C2A11250   1.851  10.320   7.126 -0.0403 -0.1786  0.0179
  809loPI   C3A11251   1.624  10.459   7.502 -0.2666 -0.1880 -0.2066
  809loPI   C4A11252   1.305  10.656   7.706 -0.1035  0.1914  0.0186
  809loPI   C5A11253   1.158  10.943   7.903 -0.3118 -0.2171  0.1132
  809loPI   C6A11254   1.072  11.353   7.752  0.2354 -0.2042  0.4415
  809loPI   C1B11255   1.478  10.011   6.801  0.1592  0.1958  0.4028
  809loPI   C2B11256   1.520   9.899   7.138  0.1410 -0.0889 -0.5303
  809loPI   C3B11257   1.549   9.933   7.599  0.1366 -0.0883  0.0768
  809loPI   C4B11258   1.572  10.251   7.928 -0.3954  0.2663 -0.0286
  810loPI    C111259   9.652  11.315   5.478 -0.1201 -0.1497  0.1412
  810loPI    C211260   9.990  11.176   5.315 -0.0833  0.1764 -0.0691
  810loPI    C311261   9.637  11.024   5.203 -0.0248  0.0262 -0.0526
  810loPI   PO411262   9.693  11.331   5.708 -0.1534 -0.0621  0.2765
  810loPI   GL111263   9.611  11.041   6.009 -0.3886  0.0579  0.0962
  810loPI   GL211264   9.862  10.853   6.163 -0.1137 -0.1037  0.1100
  810loPI   C1A11265   9.965  11.273   6.314 -0.0762 -0.4274  0.1514
  810loPI   C2A11266  10.240  11.465   6.540  0.0547 -0.0353 -0.0797
  810loPI   C3A11267  10.351  11.374   6.970  0.0992  0.2230  0.4734
  810loPI   C4A11268  10.405  11.453   7.334  0.0510  0.2047 -0.2233
  810loPI   C5A11269  10.478  11.549   7.765  0.0118 -0.1042  0.1915
  810loPI   C6A11270  10.661  11.400   8.118  0.1606 -0.0499  0.2089
  810loPI   C1B11271  10.191  10.926   6.554  0.1454  0.4215 -0.1130
  810loPI   C2B11272  10.259  10.865   7.015 -0.0831  0.2379 -0.3040
  810loPI   C3B11273  10.295  10.700   7.391 -0.0984 -0.0090 -0.1056
  810loPI   C4B11274  10.397  10.496   7.751 -0.0468  0.2157 -0.2287
  811loPI    C111275   6.478   3.036   5.890 -0.1775  0.0366 -0.2100
  811loPI    C211276   6.274   2.903   5.572  0.2142 -0.1530 -0.3890
  811loPI    C311277   6.585   2.694   5.712  0.2362  0.0867 -0.0678
  811loPI   PO411278   6.231   3.080   6.053 -0.0806  0.1495 -0.1616
  811loPI   GL111279   6.070   3.290   6.426 -0.1223 -0.0705  0.1223
  811loPI   GL211280   6.043   3.539   6.633 -0.1501 -0.0626  0.1016
  811loPI   C1A11281   6.033   3.044   6.759 -0.1540  0.1166 -0.1621
  811loPI   C2A11282   6.089   3.042   7.224 -0.0553 -0.0057 -0.0037
  811loPI   C3A11283   6.006   3.190   7.631 -0.1377 -0.4464  0.1088
  811loPI   C4A11284   6.003   3.479   8.041 -0.2140  0.2703  0.3157
  811loPI   C5A11285   5.810   3.404   8.381  0.3301 -0.0257 -0.0786
  811loPI   C6A11286   5.422   3.277   8.489  0.0680  0.3842  0.2602
  811loPI   C1B11287   6.030   3.551   7.058  0.2175  0.0572  0.4502
  811loPI   C2B11288   6.093   3.640   7.463  0.0032  0.3693 -0.0899
  811loPI   C3B11289   6.354   3.584   7.725  0.0439  0.1288  0.1471
  811loPI   C4B11290   6.454   3.666   8.128  0.0280 -0.2352 -0.0907
  812loPI    C111291   3.242  14.767   5.507 -0.0428  0.0026  0.0339
  812loPI    C211292   3.091  15.023   5.239 -0.1066 -0.0076  0.0601
  812loPI    C311293   3.431  15.110   5.429 -0.0973  0.0309  0.0257
  812loPI   PO411294   2.981  14.709   5.681 -0.1385  0.1206 -0.0945
  812loPI   GL111295   2.933  14.448   6.023 -0.0285 -0.0081  0.1094
  812loPI   GL211296   2.997  14.220   6.215 -0.1766 -0.2283  0.1239
  812loPI   C1A11297   2.917  14.718   6.429 -0.1541 -0.0333 -0.2838
  812loPI   C2A11298   2.865  14.583   6.832  0.1742  0.1276 -0.2454
  812loPI   C3A11299   2.855  14.493   7.232  0.1718 -0.0218 -0.0051
  812loPI   C4A11300   2.914  14.336   7.590  0.0375 -0.1015  0.2319
  812loPI   C5A11301   2.812  13.940   7.760  0.1669  0.3553 -0.3223
  812loPI   C6A11302   3.032  13.706   8.039  0.0300 -0.0845 -0.1637
  812loPI   C1B11303   3.171  14.250   6.594 -0.1405 -0.1645  0.1102
  812loPI   C2B11304   3.075  14.067   6.983 -0.0152 -0.1232 -0.2638
  812loPI   C3B11305   3.143  13.919   7.392 -0.1143  0.2399  0.2199
  812loPI   C4B11306   3.337  13.820   7.741  0.0487  0.0517 -0.0663
  813loPI    C111307   7.951  16.338   6.023 -0.0970 -0.0300 -0.0279
  813loPI    C211308   7.574  16.305   5.892 -0.1567  0.3829  0.0247
  813loPI    C311309   7.851  16.482   5.664 -0.0266  0.2109  0.0469
  813loPI   PO411310   7.963  16.467   6.227  0.1821  0.1503  0.0150
  813loPI   GL111311   7.732  16.785   6.464  0.0115  0.1611  0.5439
  813loPI   GL211312   7.661  16.938   6.666  0.0055  0.4298 -0.1049
  813loPI   C1A11313   8.075  16.799   6.836 -0.1331 -0.0982 -0.2979
  813loPI   C2A11314   8.339  16.851   7.070 -0.0277 -0.2423  0.1846
  813loPI   C3A11315   8.344  16.812   7.530 -0.3043 -0.0033  0.1706
  813loPI   C4A11316   8.527  16.676   7.979  0.0698  0.0084  0.1943
  813loPI   C5A11317   8.365  16.346   8.232 -0.1158  0.2701  0.1799
  813loPI   C6A11318   8.278  15.940   8.448  0.1489 -0.1436 -0.1451
  813loPI   C1B11319   7.596  16.903   7.096 -0.0391 -0.1331  0.1952
  813loPI   C2B11320   7.803  16.887   7.411  0.1699 -0.1212 -0.2135
  813loPI   C3B11321   7.732  17.048   7.773 -0.2176 -0.1661  0.1978
  813loPI   C4B11322   7.510  17.511   7.687  0.3471 -0.0730  0.3432
  814loPI    C111323  17.231  16.288   5.389 -0.0654  0.1421 -0.1284
  814loPI    C211324  16.847  16.366   5.470 -0.1852 -0.1639 -0.3807
  814loPI    C311325  16.963  16.305   5.092  0.1779  0.2587 -0.3455
  814loPI   PO411326  17.334  16.042   5.604  0.3161 -0.0549 -0.1206
  814loPI   GL111327  17.352  15.744   6.050  0.1269  0.0570 -0.2344
  814loPI   GL211328  17.377  15.396   6.039  0.0102 -0.0113  0.0220
  814loPI   C1A11329  17.310  15.758   6.518 -0.0201  0.0042 -0.1735
  814loPI   C2A11330  17.393  15.747   6.929  0.0668 -0.1352 -0.2877
  814loPI   C3A11331  17.732  15.347   6.998 -0.0622 -0.0506 -0.2278
  814loPI   C4A11332  17.943  15.325   7.442  0.2967 -0.0384  0.1561
  814loPI   C5A11333  17.882  15.041   7.773  0.0437  0.0108 -0.0012
  814loPI   C6A11334  17.579  14.848   8.143  0.2128  0.0690  0.0830
  814loPI   C1B11335  17.158  15.285   6.387 -0.1778  0.0169  0.0706
  814loPI   C2B11336  17.124  15.362   6.787 -0.3250  0.1607 -0.2597
  814loPI   C3B11337  17.020  15.226   7.305 -0.2833 -0.1523 -0.3100
  814loPI   C4B11338  16.711  15.210   7.585 -0.4600 -0.1100 -0.1066
  815loPI    C111339  17.833   4.792   5.685  0.1535  0.1557  0.0429
  815loPI    C211340  17.741   5.014   5.366 -0.0295  0.1164  0.0669
  815loPI    C311341  18.060   4.774   5.357  0.0752  0.2572 -0.0176
  815loPI   PO411342  17.633   4.822   5.842 -0.0728 -0.3338  0.0066
  815loPI   GL111343  17.593   4.913   6.229  0.3247  0.0245  0.3853
  815loPI   GL211344  17.743   5.149   6.469  0.0726 -0.1761  0.1303
  815loPI   C1A11345  17.636   4.646   6.453  0.1954  0.0508 -0.0762
  815loPI   C2A11346  17.766   4.742   6.946  0.1823  0.3136 -0.0723
  815loPI   C3A11347  17.811   4.910   7.396 -0.0502 -0.1694  0.1547
  815loPI   C4A11348  17.765   4.992   7.754 -0.3115 -0.0398  0.0563
  815loPI   C5A11349  17.691   4.934   8.126 -0.4221 -0.2364 -0.1975
  815loPI   C6A11350  17.817   5.106   8.558  0.1435  0.3261 -0.0396
  815loPI   C1B11351  17.634   5.274   6.875 -0.0235 -0.2066 -0.1957
  815loPI   C2B11352  17.505   5.276   7.307  0.0539 -0.0777  0.2262
  815loPI   C3B11353  17.380   5.337   7.642 -0.0230 -0.0922 -0.1162
  815loPI   C4B11354  16.938   5.485   7.740 -0.0943 -0.4397 -0.0774
  816loPI    C111355  12.093   6.637   5.122 -0.1694  0.0998  0.0394
  816loPI    C211356  12.175   6.865   4.804 -0.1171 -0.1429 -0.1245
  816loPI    C311357  12.471   6.738   5.041 -0.1462 -0.0430 -0.0334
  816loPI   PO411358  11.928   6.778   5.302 -0.0524  0.0316  0.3509
  816loPI   GL111359  11.680   6.919   5.628 -0.0550 -0.1369  0.2157
  816loPI   GL211360  11.441   6.935   5.753 -0.1996  0.2990 -0.0527
  816loPI   C1A11361  11.920   6.898   6.092 -0.1291 -0.2294  0.0491
  816loPI   C2A11362  11.939   7.102   6.518 -0.3768 -0.2509  0.1961
  816loPI   C3A11363  12.134   7.286   6.929 -0.2353  0.1974  0.0329
  816loPI   C4A11364  12.358   7.359   7.287  0.1931  0.1472 -0.1631
  816loPI   C5A11365  12.547   7.163   7.675  0.0455 -0.1434 -0.1511
  816loPI   C6A11366  13.063   6.990   7.838  0.4911  0.4314 -0.0997
  816loPI   C1B11367  11.098   6.789   5.979 -0.2860 -0.2770 -0.3752
  816loPI   C2B11368  10.894   6.571   6.381 -0.1140 -0.1670 -0.2419
  816loPI   C3B11369  10.876   6.505   6.819  0.0854 -0.4078 -0.3675
  816loPI   C4B11370  10.920   6.719   7.131  0.3629  0.0545 -0.0180
  817loPI    C111371   6.269   9.464   5.431 -0.0643 -0.0371 -0.1039
  817loPI    C211372   6.114   9.100   5.373 -0.0564 -0.0096 -0.3055
  817loPI    C311373   5.908   9.425   5.264 -0.0917  0.0503 -0.0656
  817loPI   PO411374   6.420   9.494   5.703  0.1815  0.0901 -0.2003
  817loPI   GL111375   6.266   9.481   6.151  0.3096 -0.4021  0.2837
  817loPI   GL211376   6.424   9.754   6.150  0.0095  0.0098 -0.1622
  817loPI   C1A11377   6.279   9.500   6.595 -0.1383 -0.1313 -0.1064
  817loPI   C2A11378   6.353   9.407   7.083 -0.0070  0.1493 -0.2324
  817loPI   C3A11379   6.291   9.266   7.472 -0.2104  0.0719  0.0849
  817loPI   C4A11380   6.176   8.918   7.791 -0.2911 -0.4396 -0.0254
  817loPI   C5A11381   6.224   8.636   8.024  0.0291 -0.0552  0.1888
  817loPI   C6A11382   6.538   8.290   8.218 -0.1680 -0.2255 -0.0535
  817loPI   C1B11383   6.573   9.903   6.491  0.0942  0.2988  0.2454
  817loPI   C2B11384   6.438   9.985   6.875 -0.0553  0.0034 -0.4307
  817loPI   C3B11385   6.472  10.000   7.321  0.1411 -0.2435 -0.0849
  817loPI   C4B11386   6.479  10.171   7.757 -0.0720 -0.1177 -0.0302
  818loPI    C111387  17.065   3.050   5.794  0.0154  0.2348  0.1961
  818loPI    C211388  17.420   2.976   5.965  0.1055  0.1240 -0.0347
  818loPI    C311389  17.372   2.922   5.571 -0.1485  0.2089 -0.0174
  818loPI   PO411390  16.812   2.925   6.005 -0.0925 -0.1394 -0.1071
  818loPI   GL111391  16.545   3.068   6.322 -0.0397 -0.3328 -0.0490
  818loPI   GL211392  16.673   3.379   6.354  0.0935 -0.3091  0.0421
  818loPI   C1A11393  16.190   3.128   6.645 -0.1346 -0.3653  0.0293
  818loPI   C2A11394  15.922   3.232   7.047  0.2226  0.0714  0.1389
  818loPI   C3A11395  15.595   3.297   7.407  0.0837 -0.2550  0.1216
  818loPI   C4A11396  15.337   3.151   7.735  0.0729  0.1589 -0.0211
  818loPI   C5A11397  15.385   3.048   8.116 -0.3516  0.0595 -0.2807
  818loPI   C6A11398  15.584   2.919   8.539  0.2222  0.2770 -0.0343
  818loPI   C1B11399  16.677   3.336   6.823  0.2645  0.1733  0.0976
  818loPI   C2B11400  16.439   3.171   7.105  0.0469  0.0465  0.0519
  818loPI   C3B11401  16.616   3.111   7.600 -0.1768 -0.0441 -0.3726
  818loPI   C4B11402  16.975   2.892   7.889 -0.1109 -0.0394 -0.3532
  819loPI    C111403   3.864   4.653   5.885  0.0416 -0.2666  0.2104
  819loPI    C211404   3.561   4.391   5.901 -0.0476 -0.1735  0.0719
  819loPI    C311405   3.802   4.399   5.581 -0.1989  0.0809 -0.0382
  819loPI   PO411406   3.750   4.886   6.004 -0.4409  0.1781  0.2005
  819loPI   GL111407   3.521   5.063   6.319  0.1078  0.0584  0.1257
  819loPI   GL211408   3.642   4.808   6.434  0.0203 -0.3344 -0.0036
  819loPI   C1A11409   3.737   5.233   6.688 -0.0608 -0.0605 -0.3037
  819loPI   C2A11410   3.586   5.468   7.028  0.1467 -0.1679  0.1999
  819loPI   C3A11411   3.689   5.367   7.485 -0.1172  0.1880 -0.3087
  819loPI   C4A11412   3.678   5.164   7.855 -0.2109 -0.0949 -0.2963
  819loPI   C5A11413   3.863   5.193   8.282 -0.2144  0.3306  0.0305
  819loPI   C6A11414   3.975   4.922   8.695  0.2723 -0.4463  0.1489
  819loPI   C1B11415   3.394   4.902   6.888 -0.1655  0.0078  0.0774
  819loPI   C2B11416   3.288   5.046   7.367 -0.2335 -0.2579  0.1836
  819loPI   C3B11417   3.245   4.967   7.835 -0.1792 -0.3492  0.0699
  819loPI   C4B11418   3.092   4.857   8.191 -0.0658 -0.0003 -0.2494
  820loPI    C111419   0.807   2.899   5.517  0.0164  0.0399 -0.0344
  820loPI    C211420   1.064   3.203   5.478 -0.1735  0.2143  0.0588
  820loPI    C311421   0.698   3.228   5.317 -0.2116  0.0609  0.1201
  820loPI   PO411422   0.847   2.783   5.806 -0.2847  0.1132  0.0166
  820loPI   GL111423   0.773   2.739   6.226 -0.0710 -0.1577 -0.4286
  820loPI   GL211424   0.572   2.532   6.172  0.2276 -0.2423  0.0400
  820loPI   C1A11425   0.511   2.846   6.629 -0.0736  0.1029 -0.3116
  820loPI   C2A11426   0.492   2.705   6.976  0.3777 -0.0318 -0.2079
  820loPI   C3A11427   0.499   2.707   7.465 -0.2356  0.4561 -0.2314
  820loPI   C4A11428   0.558   2.783   7.927  0.0918 -0.1135  0.1318
  820loPI   C5A11429   0.391   3.127   8.173  0.0750 -0.0868  0.3322
  820loPI   C6A11430   0.092   3.251   8.410  0.1961  0.1254  0.0304
  820loPI   C1B11431   0.493   2.369   6.564  0.0720 -0.0299 -0.3014
  820loPI   C2B11432   0.593   2.207   6.891 -0.0205  0.0704 -0.2927
  820loPI   C3B11433   0.610   2.227   7.374  0.1284 -0.1613  0.0817
  820loPI   C4B11434   0.326   2.092   7.771 -0.1264  0.1380 -0.0494
  821loPI    C111435   4.063   3.980   5.603 -0.0097 -0.1020  0.0080
  821loPI    C211436   4.341   4.240   5.482  0.0785 -0.2498 -0.1113
  821loPI    C311437   4.077   4.093   5.220 -0.3744  0.1973  0.0778
  821loPI   PO411438   4.056   4.063   5.931  0.0300 -0.2486 -0.1275
  821loPI   GL111439   4.328   4.184   6.332  0.1803 -0.1388 -0.1484
  821loPI   GL211440   4.579   4.015   6.433 -0.5087  0.1474 -0.0411
  821loPI   C1A11441   4.300   4.347   6.652  0.0811 -0.1255  0.0658
  821loPI   C2A11442   4.212   4.496   7.088  0.4671  0.2383 -0.0726
  821loPI   C3A11443   4.082   4.300   7.490 -0.1832 -0.0125 -0.1463
  821loPI   C4A11444   3.937   4.252   7.881 -0.0440  0.2736 -0.1338
  821loPI   C5A11445   4.119   4.500   8.236 -0.1542  0.1171  0.0470
  821loPI   C6A11446   4.289   4.833   8.359  0.2449  0.1511  0.0122
  821loPI   C1B11447   4.739   3.958   6.834  0.0167  0.1960  0.1543
  821loPI   C2B11448   4.668   4.195   7.236  0.2942 -0.0375  0.2012
  821loPI   C3B11449   4.687   4.112   7.643 -0.1111  0.0898  0.1033
  821loPI   C4B11450   4.460   4.167   8.027  0.2864  0.2444 -0.0887
  822loPI    C111451  11.429   8.355   5.621  0.1491 -0.0360  0.0199
  822loPI    C211452  11.046   8.258   5.688  0.1390 -0.0391 -0.0426
  822loPI    C311453  11.322   7.971   5.649  0.1392 -0.0383 -0.0464
  822loPI   PO411454  11.427   8.633   5.709  0.0594  0.0676 -0.1333
  822loPI   GL111455  11.499   8.738   6.104  0.0432 -0.1763 -0.1561
  822loPI   GL211456  11.724   8.497   6.117 -0.0389  0.0168  0.0862
  822loPI   C1A11457  11.400   8.832   6.492  0.4182  0.0471 -0.1559
  822loPI   C2A11458  11.359   8.840   6.951 -0.4472 -0.0688 -0.0626
  822loPI   C3A11459  11.302   8.915   7.417 -0.1612  0.1642 -0.0773
  822loPI   C4A11460  11.497   8.976   7.736 -0.0462  0.1865 -0.2700
  822loPI   C5A11461  11.847   8.844   7.991  0.2487 -0.3066 -0.2561
  822loPI   C6A11462  11.980   8.443   8.072  0.0131  0.0571 -0.0158
  822loPI   C1B11463  11.655   8.292   6.466 -0.2303  0.2886  0.0641
  822loPI   C2B11464  11.539   8.321   6.884 -0.1227 -0.1582  0.1115
  822loPI   C3B11465  11.538   8.488   7.304 -0.0261 -0.0222  0.0289
  822loPI   C4B11466  11.574   8.437   7.777 -0.0011 -0.1356 -0.0605
  823loPI    C111467   2.598  13.164   5.128 -0.0220  0.0269 -0.2171
  823loPI    C211468   2.945  13.047   4.967  0.0857 -0.1822  0.1534
  823loPI    C311469   2.669  12.775   5.067 -0.0360 -0.0451  0.1945
  823loPI   PO411470   2.623  13.303   5.419 -0.1537  0.0564 -0.0498
  823loPI   GL111471   2.825  13.370   5.731  0.3175  0.2763 -0.2839
  823loPI   GL211472   2.977  13.158   5.902 -0.0572  0.1506  0.1523
  823loPI   C1A11473   2.741  13.720   5.961  0.1567  0.2128 -0.1004
  823loPI   C2A11474   2.729  13.894   6.373 -0.2809  0.0481  0.1994
  823loPI   C3A11475   2.672  13.968   6.779  0.0198  0.1196 -0.0500
  823loPI   C4A11476   2.618  13.897   7.199  0.1502  0.0557  0.0623
  823loPI   C5A11477   2.581  13.646   7.458 -0.3535  0.0478  0.1304
  823loPI   C6A11478   2.558  13.526   7.784 -0.4519  0.3238 -0.0815
  823loPI   C1B11479   2.752  13.171   6.236 -0.2411 -0.1135 -0.1895
  823loPI   C2B11480   2.704  13.059   6.614  0.4827  0.0641  0.0312
  823loPI   C3B11481   2.665  12.699   6.898 -0.0280 -0.0143 -0.2578
  823loPI   C4B11482   2.612  12.661   7.349  0.0652  0.2031 -0.0158
  824loPI    C111483   9.370  13.793   6.013 -0.0725  0.2185  0.0005
  824loPI    C211484   9.000  13.663   5.937  0.0771 -0.1881 -0.0557
  824loPI    C311485   9.240  13.767   5.635  0.0176  0.0567 -0.0204
  824loPI   PO411486   9.469  13.626   6.135  0.2394 -0.0707 -0.1552
  824loPI   GL111487   9.371  13.652   6.560  0.2672  0.1468 -0.2343
  824loPI   GL211488   9.724  13.706   6.583 -0.1378  0.1266 -0.1085
  824loPI   C1A11489   8.961  13.544   6.841  0.1416 -0.1613  0.1002
  824loPI   C2A11490   9.075  13.539   7.281  0.0090  0.2348  0.4030
  824loPI   C3A11491   9.209  13.516   7.606 -0.1323 -0.0149  0.0925
  824loPI   C4A11492   9.306  13.298   8.050 -0.0377  0.1429  0.1622
  824loPI   C5A11493   9.484  13.198   8.365  0.0826  0.0116  0.1451
  824loPI   C6A11494   9.690  13.236   8.777 -0.0995  0.0468  0.0711
  824loPI   C1B11495   9.595  13.630   7.086 -0.1705 -0.0665  0.1659
  824loPI   C2B11496   9.735  13.618   7.636  0.2526 -0.2391  0.2028
  824loPI   C3B11497   9.841  13.455   7.989  0.2085 -0.0454  0.0074
  824loPI   C4B11498  10.071  13.283   8.253  0.4087 -0.0586  0.0373
  825loPI    C111499  11.601  14.705   5.585 -0.1196 -0.0623 -0.2258
  825loPI    C211500  11.720  15.080   5.514 -0.3793  0.0496 -0.0848
  825loPI    C311501  11.626  14.839   5.209  0.3272 -0.0882 -0.2102
  825loPI   PO411502  11.362  14.723   5.813 -0.3474  0.2752 -0.3600
  825loPI   GL111503  11.320  14.821   6.286  0.2505  0.1441  0.4035
  825loPI   GL211504  11.647  14.734   6.452  0.3524 -0.0301  0.0396
  825loPI   C1A11505  11.226  14.683   6.729 -0.2931  0.2164  0.2350
  825loPI   C2A11506  11.141  14.638   7.162 -0.0286  0.1831  0.0840
  825loPI   C3A11507  11.165  14.536   7.583  0.2379 -0.0215  0.0407
  825loPI   C4A11508  11.427  14.585   7.953  0.2980  0.1401 -0.2779
  825loPI   C5A11509  11.651  14.758   8.413 -0.3733 -0.1608 -0.0714
  825loPI   C6A11510  11.944  15.040   8.570 -0.3306 -0.0744  0.0735
  825loPI   C1B11511  11.736  14.619   6.806  0.1422  0.0211  0.0718
  825loPI   C2B11512  11.630  14.656   7.226  0.1957  0.0439 -0.0355
  825loPI   C3B11513  11.744  14.715   7.560 -0.0079 -0.1082 -0.3184
  825loPI   C4B11514  11.896  14.754   7.983  0.1542 -0.0271  0.2148
  826loPI    C111515   4.535   2.274   5.757 -0.0285 -0.1147  0.1089
  826loPI    C211516   4.868   2.082   5.649 -0.2143 -0.4586  0.1332
  826loPI    C311517   4.547   2.075   5.410 -0.2281 -0.1865  0.1414
  826loPI   PO411518   4.467   2.185   5.981 -0.0448 -0.0762  0.2040
  826loPI   GL111519   4.386   2.361   6.399  0.1743  0.0279 -0.0918
  826loPI   GL211520   4.398   2.064   6.414  0.2087  0.0939  0.1904
  826loPI   C1A11521   4.190   2.520   6.688 -0.1503 -0.1217 -0.2811
  826loPI   C2A11522   4.209   2.482   7.167 -0.1173 -0.1103  0.0589
  826loPI   C3A11523   4.022   2.197   7.424 -0.0259 -0.1037  0.0604
  826loPI   C4A11524   3.781   2.231   7.851  0.0181 -0.0367 -0.1828
  826loPI   C5A11525   3.803   2.498   8.266  0.0588 -0.2136 -0.1741
  826loPI   C6A11526   4.262   2.486   8.363 -0.1248 -0.0426  0.3383
  826loPI   C1B11527   4.487   2.051   6.776  0.1207 -0.2412 -0.3684
  826loPI   C2B11528   4.437   1.967   7.185  0.0996 -0.1171 -0.2155
  826loPI   C3B11529   4.411   1.773   7.632  0.0415 -0.1030 -0.2714
  826loPI   C4B11530   4.314   1.948   7.972 -0.1466 -0.1514 -0.0746
  827loPI    C111531   4.902  13.409   5.908  0.2736 -0.2110 -0.2120
  827loPI    C211532   4.690  13.541   5.595  0.0921  0.3286  0.1255
  827loPI    C311533   5.059  13.681   5.660  0.1557  0.1668  0.1173
  827loPI   PO411534   4.753  13.383   6.077  0.2464  0.1581 -0.3427
  827loPI   GL111535   4.409  13.300   6.301  0.0632  0.0613 -0.0924
  827loPI   GL211536   4.464  12.986   6.288  0.0495 -0.0880  0.0942
  827loPI   C1A11537   4.308  13.092   6.751  0.1836  0.0468  0.3619
  827loPI   C2A11538   4.547  12.955   6.980  0.2294  0.0867  0.2587
  827loPI   C3A11539   4.736  12.605   7.200 -0.0350 -0.0122 -0.0447
  827loPI   C4A11540   4.930  12.622   7.621 -0.2476 -0.0247  0.2443
  827loPI   C5A11541   4.803  12.698   7.996 -0.0330  0.2415  0.0347
  827loPI   C6A11542   4.470  12.813   8.138 -0.0649  0.5156 -0.1289
  827loPI   C1B11543   4.735  12.718   6.584  0.1672  0.1493 -0.2147
  827loPI   C2B11544   5.096  12.508   6.912  0.3165 -0.0972  0.1140
  827loPI   C3B11545   5.215  12.459   7.303  0.1895 -0.0426  0.2784
  827loPI   C4B11546   5.165  12.206   7.702 -0.1900  0.4606 -0.1247
  828loPI    C111547   6.760   9.855   5.784  0.0952 -0.1777 -0.1398
  828loPI    C211548   6.442  10.097   5.762  0.2038 -0.0254 -0.0527
  828loPI    C311549   6.594   9.935   5.429 -0.0104 -0.1603 -0.0870
  828loPI   PO411550   6.928   9.912   5.908  0.0779 -0.2038  0.0653
  828loPI   GL111551   7.148  10.170   6.256  0.0469  0.0088 -0.0675
  828loPI   GL211552   7.442   9.969   6.334 -0.0106 -0.0833  0.0581
  828loPI   C1A11553   6.831  10.411   6.569 -0.1175 -0.0334  0.0871
  828loPI   C2A11554   6.849  10.471   6.934 -0.0376  0.1762 -0.0159
  828loPI   C3A11555   6.838  10.417   7.374 -0.1453 -0.0575  0.0051
  828loPI   C4A11556   6.949  10.650   7.745 -0.0220  0.3164  0.1594
  828loPI   C5A11557   6.684  10.771   8.031 -0.0785  0.0271 -0.2167
  828loPI   C6A11558   6.368  10.771   8.301  0.2040 -0.1437 -0.0237
  828loPI   C1B11559   7.582   9.915   6.808  0.0515 -0.0920  0.0007
  828loPI   C2B11560   7.543   9.890   7.259 -0.1616  0.0378 -0.2641
  828loPI   C3B11561   7.458   9.908   7.728 -0.0866  0.1790  0.1274
  828loPI   C4B11562   7.275   9.871   8.118  0.0045  0.2583 -0.2323
  829loPI    C111563  13.565  12.770   5.607  0.1801  0.1399 -0.0051
  829loPI    C211564  13.715  12.863   5.248  0.1750 -0.2047 -0.0997
  829loPI    C311565  13.771  12.497   5.400 -0.2036 -0.2034  0.0543
  829loPI   PO411566  13.556  12.909   5.756  0.0130 -0.1328  0.2311
  829loPI   GL111567  13.449  13.041   6.122 -0.4058  0.1728  0.0841
  829loPI   GL211568  13.288  12.773   6.245 -0.0105 -0.1746  0.1530
  829loPI   C1A11569  13.475  13.351   6.321  0.1886 -0.0425 -0.0484
  829loPI   C2A11570  13.382  13.412   6.751 -0.1933 -0.1400 -0.1403
  829loPI   C3A11571  13.316  13.635   7.211 -0.1396 -0.0758 -0.2550
  829loPI   C4A11572  13.397  13.853   7.654 -0.0773  0.0178 -0.0462
  829loPI   C5A11573  13.446  14.061   7.962  0.2201  0.4145  0.1024
  829loPI   C6A11574  13.417  14.245   8.292  0.1206  0.1875  0.3104
  829loPI   C1B11575  13.220  12.884   6.720 -0.3773  0.3438  0.0247
  829loPI   C2B11576  13.254  13.086   7.086 -0.0201  0.0157  0.0798
  829loPI   C3B11577  13.123  13.221   7.491  0.0064 -0.1987 -0.0504
  829loPI   C4B11578  13.293  13.392   7.778 -0.0491  0.0030  0.1140
  830loPI    C111579   4.252   2.736   6.118 -0.0335  0.1741 -0.0556
  830loPI    C211580   4.027   3.058   6.193 -0.0087  0.1798 -0.0044
  830loPI    C311581   4.404   3.103   6.067  0.0603  0.1722  0.1969
  830loPI   PO411582   4.069   2.533   5.989  0.0242  0.0593  0.2570
  830loPI   GL111583   3.597   2.621   6.190  0.0882 -0.0290 -0.0869
  830loPI   GL211584   3.373   2.462   6.118 -0.0529 -0.0164 -0.1701
  830loPI   C1A11585   3.764   2.800   6.520 -0.0537 -0.0419  0.0301
  830loPI   C2A11586   3.833   2.873   7.030 -0.3467  0.0207 -0.1207
  830loPI   C3A11587   3.889   2.692   7.434 -0.1215  0.0879  0.0129
  830loPI   C4A11588   4.056   2.647   7.793 -0.0005 -0.0110 -0.1344
  830loPI   C5A11589   4.445   2.613   7.912 -0.1323  0.0402 -0.0342
  830loPI   C6A11590   4.526   2.331   7.647  0.3275  0.4739  0.0819
  830loPI   C1B11591   3.258   2.680   6.536  0.0020  0.1465 -0.2537
  830loPI   C2B11592   3.255   2.807   6.971 -0.3640  0.1422  0.2012
  830loPI   C3B11593   3.202   2.776   7.327 -0.0112  0.0190 -0.0568
  830loPI   C4B11594   3.181   2.627   7.768  0.2484  0.5187  0.1693
  831loPI    C111595  17.763   1.871   5.770  0.0471 -0.3523 -0.0039
  831loPI    C211596  18.083   1.838   6.007  0.1477 -0.1627 -0.1103
  831loPI    C311597  18.086   1.671   5.643  0.0788 -0.2629 -0.0653
  831loPI   PO411598  17.663   2.086   5.891  0.0552  0.0820  0.0303
  831loPI   GL111599  17.449   2.252   6.255  0.0093 -0.0417  0.3843
  831loPI   GL211600  17.428   1.999   6.364  0.1136  0.1330 -0.2253
  831loPI   C1A11601  17.640   2.360   6.717 -0.1126  0.0273 -0.0567
  831loPI   C2A11602  17.737   2.577   6.990  0.3958 -0.2174  0.1088
  831loPI   C3A11603  17.671   2.665   7.449 -0.3309  0.0404  0.3653
  831loPI   C4A11604  17.503   2.522   7.769 -0.0137  0.1441  0.0505
  831loPI   C5A11605  17.639   2.097   7.904  0.0544 -0.0582  0.1062
  831loPI   C6A11606  17.945   1.785   7.761  0.0777 -0.1301 -0.0632
  831loPI   C1B11607  17.455   1.914   6.783 -0.0825 -0.1243  0.1049
  831loPI   C2B11608  17.188   1.796   7.228  0.1867 -0.2582  0.0150
  831loPI   C3B11609  17.171   1.961   7.649  0.2225  0.0122 -0.3020
  831loPI   C4B11610  17.016   2.279   7.895  0.1764  0.2625  0.4409
  832loPI    C111611  15.515  10.631   5.573  0.0423  0.0798 -0.0969
  832loPI    C211612  15.790  10.821   5.354 -0.1071  0.2435 -0.1447
  832loPI    C311613  15.492  10.625   5.174 -0.0227  0.0661 -0.0931
  832loPI   PO411614  15.475  10.810   5.757  0.3614 -0.2087 -0.0518
  832loPI   GL111615  15.438  10.726   6.139 -0.1677 -0.2586  0.1904
  832loPI   GL211616  15.708  10.538   6.077  0.0782 -0.1175  0.1685
  832loPI   C1A11617  15.384  10.910   6.583  0.2292 -0.0624 -0.3842
  832loPI   C2A11618  15.358  11.038   6.975  0.2868 -0.1500  0.0919
  832loPI   C3A11619  15.449  11.198   7.403 -0.0449 -0.1406  0.0428
  832loPI   C4A11620  15.334  11.393   7.822  0.1070 -0.0100  0.2075
  832loPI   C5A11621  15.079  11.634   8.080 -0.0224  0.4715  0.3318
  832loPI   C6A11622  14.917  11.475   8.476 -0.0640  0.0981  0.2366
  832loPI   C1B11623  15.750  10.504   6.531  0.0534 -0.0644 -0.0171
  832loPI   C2B11624  15.679  10.411   6.842 -0.2943  0.1363  0.1679
  832loPI   C3B11625  15.541  10.121   7.180  0.0543 -0.1852  0.1310
  832loPI   C4B11626  15.464  10.130   7.649 -0.0786  0.1681 -0.1812
  833loPI    C111627   1.993  13.719   5.204  0.0525  0.0847  0.3053
  833loPI    C211628   2.235  14.018   5.312 -0.1187  0.2026  0.3676
  833loPI    C311629   1.982  14.066   5.006  0.2939 -0.0951 -0.0335
  833loPI   PO411630   2.131  13.424   5.413  0.4471 -0.0577  0.1319
  833loPI   GL111631   2.264  13.365   5.777  0.0057  0.1832 -0.1338
  833loPI   GL211632   1.902  13.417   5.873 -0.0484  0.1144  0.1932
  833loPI   C1A11633   2.298  13.525   6.182  0.3012  0.2771 -0.1854
  833loPI   C2A11634   2.442  13.560   6.560  0.0740  0.0836  0.0449
  833loPI   C3A11635   2.614  13.439   6.958  0.1985 -0.0915 -0.1826
  833loPI   C4A11636   2.465  13.175   7.341  0.1776 -0.2800  0.2035
  833loPI   C5A11637   2.268  13.094   7.717  0.2762 -0.0069  0.1612
  833loPI   C6A11638   2.040  13.187   8.089 -0.1041 -0.1414 -0.0236
  833loPI   C1B11639   1.558  13.202   6.059  0.2353 -0.0608 -0.3383
  833loPI   C2B11640   1.831  13.184   6.445 -0.2689  0.5469  0.1332
  833loPI   C3B11641   2.108  13.266   6.877  0.1457 -0.0242  0.0386
  833loPI   C4B11642   2.106  13.502   7.253 -0.0304  0.1157 -0.0840
  834loPI    C111643   6.739  17.200   6.045 -0.0404  0.1479 -0.2845
  834loPI    C211644   7.124  17.128   5.966 -0.0920 -0.1788 -0.2518
  834loPI    C311645   6.910  17.362   5.722  0.2085  0.2731 -0.0932
  834loPI   PO411646   6.624  17.220   6.363  0.0717 -0.1195 -0.2065
  834loPI   GL111647   6.831  17.388   6.712  0.0848  0.2118 -0.1321
  834loPI   GL211648   7.162  17.313   6.721  0.0745  0.0078 -0.1389
  834loPI   C1A11649   6.896  17.471   7.175  0.1328  0.0458  0.0962
  834loPI   C2A11650   6.831  17.546   7.507 -0.0198  0.3433 -0.3025
  834loPI   C3A11651   7.004  17.366   7.722 -0.1315  0.3272 -0.2493
  834loPI   C4A11652   7.021  17.427   8.019  0.2160  0.2265 -0.2375
  834loPI   C5A11653   7.038  17.176   8.393 -0.1795 -0.2423  0.1099
  834loPI   C6A11654   6.937  16.780   8.226 -0.0145  0.1052 -0.0917
  834loPI   C1B11655   7.481  17.454   7.080  0.0493  0.0826 -0.0937
  834loPI   C2B11656   7.326  17.170   7.370 -0.0526 -0.2987 -0.1101
  834loPI   C3B11657   7.344  16.774   7.490 -0.0866  0.1938  0.0832
  834loPI   C4B11658   7.285  16.433   7.214  0.0317  0.3698 -0.2318
  835loPI    C111659   7.108  13.734   6.064  0.1953  0.1628  0.1398
  835loPI    C211660   6.976  13.570   5.724  0.1192  0.1502  0.1752
  835loPI    C311661   6.727  13.783   5.952  0.1074 -0.0396  0.3424
  835loPI   PO411662   7.265  13.587   6.198 -0.1652  0.0345 -0.2173
  835loPI   GL111663   7.314  13.506   6.609  0.0027  0.0303 -0.0987
  835loPI   GL211664   7.121  13.243   6.537 -0.2700 -0.0301  0.2199
  835loPI   C1A11665   7.414  13.344   7.017  0.2173  0.0899 -0.2663
  835loPI   C2A11666   7.512  13.385   7.375  0.2615  0.1226 -0.1299
  835loPI   C3A11667   7.257  13.429   7.652 -0.0601  0.2383  0.1141
  835loPI   C4A11668   7.213  13.491   8.173  0.3259  0.2600  0.1745
  835loPI   C5A11669   7.081  13.556   8.492 -0.1843 -0.0091 -0.1017
  835loPI   C6A11670   6.811  13.651   8.794 -0.3354 -0.1990  0.0332
  835loPI   C1B11671   6.894  13.389   6.875 -0.2069  0.3167  0.0771
  835loPI   C2B11672   6.942  13.390   7.287 -0.0671  0.0477 -0.1607
  835loPI   C3B11673   6.873  13.148   7.663  0.0079 -0.0169 -0.0167
  835loPI   C4B11674   6.607  13.152   7.890  0.1808  0.1412 -0.1068
  836loPI    C111675  15.922   9.230   5.837 -0.1088  0.2511  0.1197
  836loPI    C211676  16.101   9.093   5.507  0.0064  0.3155  0.1548
  836loPI    C311677  15.877   8.848   5.730  0.0273  0.2417  0.0949
  836loPI   PO411678  16.006   9.560   5.676 -0.2760 -0.1781 -0.1944
  836loPI   GL111679  16.375   9.624   5.861  0.1482 -0.4994  0.3136
  836loPI   GL211680  16.294   9.595   6.106 -0.0140  0.1417 -0.0038
  836loPI   C1A11681  16.558   9.981   6.035  0.2681  0.0815 -0.2331
  836loPI   C2A11682  16.550  10.108   6.374 -0.1918  0.0315  0.5308
  836loPI   C3A11683  16.526  10.192   6.838  0.0786  0.0080  0.3905
  836loPI   C4A11684  16.570  10.258   7.369  0.0043 -0.0348 -0.0221
  836loPI   C5A11685  16.236  10.118   7.780  0.0571  0.0582 -0.1904
  836loPI   C6A11686  16.181  10.168   8.193 -0.4317 -0.0578  0.1033
  836loPI   C1B11687  16.445   9.664   6.481  0.1197  0.2837  0.0959
  836loPI   C2B11688  16.326   9.719   6.889 -0.5747  0.2696  0.1389
  836loPI   C3B11689  16.413   9.742   7.405 -0.0026  0.0896 -0.1078
  836loPI   C4B11690  16.569   9.656   7.780  0.5172  0.0337 -0.0095
  837loPI    C111691  14.649   6.103   5.642  0.0931  0.0665  0.1250
  837loPI    C211692  14.800   5.958   5.301  0.0463  0.2762  0.0134
  837loPI    C311693  14.875   5.773   5.647  0.3549  0.2383 -0.0710
  837loPI   PO411694  14.456   6.177   5.651  0.1457  0.0708  0.0112
  837loPI   GL111695  14.288   6.361   6.016  0.3025 -0.1025  0.1939
  837loPI   GL211696  14.201   6.758   5.978  0.0806 -0.0746  0.2056
  837loPI   C1A11697  14.235   6.546   6.444 -0.1175 -0.3293  0.1522
  837loPI   C2A11698  13.995   6.831   6.706  0.2449 -0.1236 -0.0500
  837loPI   C3A11699  13.971   6.854   7.117 -0.0336 -0.0480  0.0750
  837loPI   C4A11700  13.909   6.904   7.487 -0.1981 -0.2110 -0.3712
  837loPI   C5A11701  14.111   7.248   7.810 -0.3897 -0.1306 -0.1899
  837loPI   C6A11702  14.238   7.277   8.250 -0.1210 -0.1409 -0.1171
  837loPI   C1B11703  14.189   7.038   6.285  0.2179  0.1847 -0.0376
  837loPI   C2B11704  14.365   7.217   6.566  0.2112  0.0979  0.0645
  837loPI   C3B11705  14.395   7.161   7.026 -0.0765 -0.1162  0.0240
  837loPI   C4B11706  14.425   7.121   7.386  0.3251 -0.0994 -0.2536
  838loPI    C111707   4.974   0.758   6.022  0.0794 -0.0693 -0.1022
  838loPI    C211708   5.350   0.646   5.945  0.1664  0.1800 -0.0484
  838loPI    C311709   5.220   1.004   5.825  0.0139  0.1856  0.1291
  838loPI   PO411710   4.984   0.639   6.333 -0.0079 -0.1390  0.0308
  838loPI   GL111711   4.991   0.721   6.778 -0.0538 -0.2512 -0.0514
  838loPI   GL211712   4.914   1.043   6.747 -0.3633 -0.0483  0.1463
  838loPI   C1A11713   5.115   0.789   7.224 -0.0845 -0.0167  0.2507
  838loPI   C2A11714   5.222   0.638   7.588  0.2523 -0.0413  0.0790
  838loPI   C3A11715   5.096   0.546   7.979  0.0145 -0.1896  0.0136
  838loPI   C4A11716   5.076   0.593   8.326  0.0729  0.1989 -0.2800
  838loPI   C5A11717   5.098   0.680   8.755  0.1098 -0.3876 -0.3314
  838loPI   C6A11718   4.736   0.564   9.053  0.0049 -0.0197 -0.0572
  838loPI   C1B11719   5.095   1.289   7.112  0.0151  0.0888 -0.2214
  838loPI   C2B11720   5.183   1.170   7.607 -0.0148 -0.1652  0.0751
  838loPI   C3B11721   5.253   1.020   7.978  0.0379 -0.0171  0.0833
  838loPI   C4B11722   5.030   1.137   8.337  0.0060 -0.2057 -0.0818
  839loPI    C111723  12.229   8.147   5.539  0.1805 -0.2319 -0.0572
  839loPI    C211724  12.268   8.121   5.141 -0.0279  0.1445 -0.1071
  839loPI    C311725  11.906   8.094   5.309  0.0546  0.0293  0.0559
  839loPI   PO411726  12.411   8.357   5.593 -0.3646 -0.1841  0.0809
  839loPI   GL111727  12.540   8.396   6.020 -0.0343 -0.4109 -0.1877
  839loPI   GL211728  12.204   8.259   6.034  0.1457 -0.4552 -0.0103
  839loPI   C1A11729  12.461   8.688   6.344  0.3035  0.0605  0.3268
  839loPI   C2A11730  12.455   8.640   6.727 -0.3376 -0.0378 -0.1936
  839loPI   C3A11731  12.217   8.552   7.061  0.0944  0.1496 -0.2102
  839loPI   C4A11732  12.044   8.423   7.406  0.2252 -0.2467  0.0209
  839loPI   C5A11733  12.049   8.069   7.748 -0.2048 -0.0518  0.2695
  839loPI   C6A11734  11.849   7.680   7.903 -0.1745 -0.1861  0.0119
  839loPI   C1B11735  12.257   8.208   6.451 -0.3119  0.0220 -0.3834
  839loPI   C2B11736  12.165   8.121   6.890  0.2384  0.1705  0.2209
  839loPI   C3B11737  12.285   7.991   7.317 -0.2470 -0.2248  0.0857
  839loPI   C4B11738  12.320   7.617   7.740 -0.0143 -0.1876 -0.0993
  840loPI    C111739  12.990   2.588   5.406 -0.1446  0.1129 -0.3221
  840loPI    C211740  13.215   2.744   5.115  0.4764 -0.0766  0.0395
  840loPI    C311741  13.259   2.360   5.217 -0.3452 -0.2483 -0.1826
  840loPI   PO411742  12.970   2.760   5.619 -0.2869  0.0014 -0.5451
  840loPI   GL111743  12.988   2.843   6.080 -0.1164 -0.0349  0.3193
  840loPI   GL211744  13.260   2.523   6.182 -0.1177 -0.2366  0.3238
  840loPI   C1A11745  12.998   3.178   6.399  0.0138  0.1615 -0.0621
  840loPI   C2A11746  12.923   3.492   6.708 -0.3423 -0.0009  0.1433
  840loPI   C3A11747  13.096   3.424   7.127 -0.1046  0.2163 -0.0914
  840loPI   C4A11748  13.163   3.347   7.541 -0.1678 -0.0203 -0.1925
  840loPI   C5A11749  13.165   3.432   7.974 -0.2080 -0.3280 -0.0319
  840loPI   C6A11750  12.956   3.412   8.287 -0.1608  0.2305  0.0522
  840loPI   C1B11751  13.134   2.726   6.596  0.0365 -0.2438 -0.0571
  840loPI   C2B11752  12.878   2.914   6.964  0.1319  0.1983 -0.0697
  840loPI   C3B11753  13.016   2.787   7.431 -0.0629 -0.1605 -0.2338
  840loPI   C4B11754  13.134   2.731   7.869  0.0828 -0.0861  0.0977
  841loPI    C111755   0.364  10.745   5.274 -0.0990  0.0154  0.2917
  841loPI    C211756   0.016  10.730   5.078 -0.0806 -0.0757  0.2659
  841loPI    C311757   0.360  10.740   4.874 -0.0692  0.0503  0.2909
  841loPI   PO411758   0.304  10.685   5.468 -0.1888 -0.0392 -0.3561
  841loPI   GL111759   0.310  10.849   5.905  0.0334  0.0700  0.0038
  841loPI   GL211760   0.314  11.149   5.941 -0.1174 -0.0568  0.1729
  841loPI   C1A11761   0.193  10.547   6.123 -0.2382  0.3114 -0.0974
  841loPI   C2A11762   0.121  10.291   6.509  0.0595 -0.2862 -0.4677
  841loPI   C3A11763   0.168  10.284   6.926  0.0209  0.2657  0.2155
  841loPI   C4A11764   0.332  10.549   7.182 -0.1991  0.1452  0.1314
  841loPI   C5A11765   0.302  10.724   7.579  0.0928  0.2141 -0.0503
  841loPI   C6A11766   0.134  11.082   7.706  0.0013 -0.1071  0.0992
  841loPI   C1B11767   0.137  11.421   6.220 -0.2685  0.0154 -0.1233
  841loPI   C2B11768   0.031  11.614   6.474  0.2693  0.1514  0.1004
  841loPI   C3B11769  -0.176  11.903   6.644  0.1653 -0.1218 -0.0143
  841loPI   C4B11770  -0.465  12.248   6.851 -0.1774 -0.3037  0.0400
  842loPI    C111771   1.600   8.221   5.747  0.0726 -0.0032 -0.4126
  842loPI    C211772   1.234   8.134   5.611 -0.0109 -0.0701 -0.1505
  842loPI    C311773   1.325   8.510   5.714 -0.0133 -0.0576 -0.1938
  842loPI   PO411774   1.616   7.977   5.925 -0.0891  0.0437 -0.2475
  842loPI   GL111775   1.480   7.884   6.333  0.1034  0.1188 -0.1677
  842loPI   GL211776   1.174   7.959   6.115  0.0695  0.1723  0.2200
  842loPI   C1A11777   1.593   7.734   6.677 -0.1639 -0.0551  0.1311
  842loPI   C2A11778   1.745   7.599   7.151  0.2007  0.0236 -0.2702
  842loPI   C3A11779   1.879   7.520   7.599  0.2204 -0.1279 -0.0210
  842loPI   C4A11780   1.859   7.722   7.995  0.1807  0.0326  0.0583
  842loPI   C5A11781   1.895   7.497   8.298 -0.1400 -0.2743 -0.1081
  842loPI   C6A11782   2.135   7.343   8.594 -0.0453 -0.1001  0.1352
  842loPI   C1B11783   0.935   8.182   6.397 -0.0033 -0.2744 -0.2863
  842loPI   C2B11784   0.765   8.348   6.687  0.3450  0.0036  0.2287
  842loPI   C3B11785   0.664   8.267   7.075 -0.3955 -0.0701  0.0867
  842loPI   C4B11786   0.886   8.005   7.314 -0.0698  0.1176  0.1197
  843loPI    C111787   4.937   9.964   5.884 -0.2533 -0.1971  0.0425
  843loPI    C211788   5.200   9.761   6.106 -0.0346 -0.0952 -0.1192
  843loPI    C311789   5.136   9.656   5.725 -0.1016 -0.0132 -0.1309
  843loPI   PO411790   4.790  10.034   6.065 -0.0316 -0.0647 -0.0989
  843loPI   GL111791   4.859  10.103   6.450  0.0973 -0.4348 -0.2547
  843loPI   GL211792   4.841   9.846   6.545 -0.1432 -0.3256  0.3318
  843loPI   C1A11793   4.905  10.098   6.926 -0.0312  0.5463 -0.2084
  843loPI   C2A11794   4.881   9.794   7.251 -0.4599 -0.0797  0.2920
  843loPI   C3A11795   4.839   9.746   7.584 -0.0376  0.0391 -0.1055
  843loPI   C4A11796   4.785   9.615   7.931  0.1213 -0.0263 -0.0161
  843loPI   C5A11797   4.545   9.555   8.265  0.1873  0.1368 -0.0401
  843loPI   C6A11798   4.211   9.218   8.063 -0.0381 -0.0147  0.1306
  843loPI   C1B11799   5.158   9.525   6.718  0.2273 -0.4240  0.0998
  843loPI   C2B11800   5.177   9.341   7.034  0.0813  0.1185 -0.1830
  843loPI   C3B11801   5.113   9.322   7.540 -0.0682  0.1301 -0.1374
  843loPI   C4B11802   5.324   9.137   7.838 -0.1641  0.2014  0.1088
  844loPI    C111803  13.213   0.017   5.543  0.0249 -0.0264 -0.0132
  844loPI    C211804  13.261  -0.204   5.213  0.1745 -0.2923  0.1832
  844loPI    C311805  12.893  -0.117   5.344  0.1117 -0.0239 -0.1561
  844loPI   PO411806  13.396  -0.147   5.720  0.2229 -0.2426 -0.2512
  844loPI   GL111807  13.403  -0.231   6.163  0.2018 -0.1042 -0.1075
  844loPI   GL211808  13.175  -0.407   6.236 -0.2112 -0.0079  0.1770
  844loPI   C1A11809  13.652   0.080   6.444  0.1121  0.1148  0.0542
  844loPI   C2A11810  13.679   0.193   6.865 -0.2243  0.0624  0.2818
  844loPI   C3A11811  13.621   0.135   7.468  0.1240  0.0107  0.2299
  844loPI   C4A11812  13.586  -0.064   7.868 -0.0128  0.1471  0.0211
  844loPI   C5A11813  13.629  -0.373   8.086  0.0893  0.0072 -0.3129
  844loPI   C6A11814  13.545  -0.847   8.172 -0.2920 -0.1606  0.1936
  844loPI   C1B11815  13.213  -0.201   6.657  0.2493  0.0211 -0.1959
  844loPI   C2B11816  13.044   0.047   7.073  0.1456  0.1985 -0.2630
  844loPI   C3B11817  12.914   0.046   7.477 -0.2109 -0.0731 -0.4250
  844loPI   C4B11818  12.844  -0.055   7.811  0.2626 -0.2526 -0.1686
  845loPI    C111819   3.103   4.105   5.689  0.1265 -0.1262 -0.0768
  845loPI    C211820   3.072   4.503   5.687 -0.3020 -0.1552 -0.1487
  845loPI    C311821   3.307   4.319   5.421  0.0221  0.0547 -0.0133
  845loPI   PO411822   3.133   4.041   5.877 -0.1406 -0.0341 -0.1951
  845loPI   GL111823   3.341   3.995   6.266  0.0454  0.3310 -0.1881
  845loPI   GL211824   3.650   3.927   6.241 -0.2239  0.3092 -0.0101
  845loPI   C1A11825   3.155   4.068   6.596  0.2186 -0.1236  0.1504
  845loPI   C2A11826   3.078   4.081   6.990 -0.0594 -0.2541 -0.2010
  845loPI   C3A11827   3.117   4.063   7.414  0.3227 -0.1831 -0.1091
  845loPI   C4A11828   3.101   3.860   7.792 -0.0104  0.1525  0.2083
  845loPI   C5A11829   3.378   3.581   8.032 -0.0248  0.1378  0.2273
  845loPI   C6A11830   3.714   3.305   8.194 -0.0783 -0.0287 -0.2258
  845loPI   C1B11831   3.570   3.788   6.703  0.0463 -0.0660  0.0635
  845loPI   C2B11832   3.652   3.888   7.131  0.1852  0.4946 -0.1118
  845loPI   C3B11833   3.614   4.051   7.593 -0.0070 -0.0651  0.0469
  845loPI   C4B11834   3.436   4.223   7.922 -0.2146 -0.0432 -0.3831
  846loPI    C111835   7.626   5.061   5.498  0.2369 -0.2482 -0.0438
  846loPI    C211836   7.234   4.982   5.495  0.1941 -0.0485  0.0577
  846loPI    C311837   7.442   4.974   5.154  0.0963 -0.1256 -0.0009
  846loPI   PO411838   7.726   4.934   5.739  0.0715  0.1776 -0.3528
  846loPI   GL111839   7.718   4.895   6.257 -0.0344  0.0317 -0.1375
  846loPI   GL211840   7.607   5.206   6.192  0.1847  0.1760  0.1431
  846loPI   C1A11841   7.419   5.000   6.605 -0.3594 -0.5648  0.0855
  846loPI   C2A11842   7.526   5.206   6.803  0.0680  0.1221  0.0052
  846loPI   C3A11843   7.668   5.299   7.145  0.3059  0.1426 -0.1874
  846loPI   C4A11844   7.636   5.489   7.557  0.2488  0.3180 -0.0618
  846loPI   C5A11845   7.774   6.002   7.774 -0.2464 -0.1196  0.0001
  846loPI   C6A11846   8.180   6.061   7.542 -0.3273  0.1571 -0.0454
  846loPI   C1B11847   7.377   5.512   6.385  0.0771 -0.0933 -0.2274
  846loPI   C2B11848   7.113   5.719   6.533 -0.3175 -0.1285  0.0215
  846loPI   C3B11849   7.082   6.127   6.577 -0.1071  0.0181 -0.1465
  846loPI   C4B11850   7.049   6.535   6.859  0.1154  0.0046 -0.2659
  847loPI    C111851   8.634  14.083   5.749 -0.2357 -0.0248 -0.1593
  847loPI    C211852   8.602  13.717   5.591  0.0106 -0.1195  0.0050
  847loPI    C311853   8.813  13.999   5.402  0.1633 -0.1832  0.0779
  847loPI   PO411854   8.698  14.074   5.985 -0.0336 -0.0444 -0.0458
  847loPI   GL111855   8.864  14.335   6.475 -0.2120 -0.0750 -0.0002
  847loPI   GL211856   9.078  14.540   6.443 -0.0193  0.2293 -0.0692
  847loPI   C1A11857   9.162  14.169   6.790  0.4295  0.0708  0.0560
  847loPI   C2A11858   9.257  14.003   7.291  0.1222 -0.2648  0.4668
  847loPI   C3A11859   9.450  13.973   7.639  0.2892 -0.2010  0.0807
  847loPI   C4A11860   9.407  13.775   8.049 -0.2210  0.1198 -0.0483
  847loPI   C5A11861   9.432  14.002   8.391 -0.2356 -0.1964  0.3512
  847loPI   C6A11862   9.255  14.443   8.481  0.2088 -0.1656  0.1185
  847loPI   C1B11863   9.067  14.653   6.910  0.3523  0.0625  0.0062
  847loPI   C2B11864   9.068  14.512   7.227 -0.0234  0.4919  0.0510
  847loPI   C3B11865   9.334  14.555   7.657  0.1270 -0.0328 -0.0140
  847loPI   C4B11866   9.466  14.518   8.005  0.2160 -0.0377 -0.4451
  848loPI    C111867  15.528   5.571   5.659  0.3119 -0.0559  0.0711
  848loPI    C211868  15.630   5.707   5.297  0.0579  0.0192  0.0263
  848loPI    C311869  15.538   5.321   5.347 -0.2653  0.0811 -0.0676
  848loPI   PO411870  15.428   5.691   5.741  0.1884  0.2420  0.4411
  848loPI   GL111871  15.202   5.488   6.128  0.1695  0.0074  0.1268
  848loPI   GL211872  15.084   5.786   6.076  0.1810 -0.0811 -0.3544
  848loPI   C1A11873  15.266   5.744   6.606 -0.0327 -0.0040 -0.1941
  848loPI   C2A11874  14.909   6.004   6.905 -0.0311 -0.6201  0.1115
  848loPI   C3A11875  14.801   6.101   7.285 -0.1016  0.3671  0.1025
  848loPI   C4A11876  14.710   6.248   7.653  0.0790 -0.1659  0.0460
  848loPI   C5A11877  14.644   6.436   8.001  0.1720  0.2557 -0.0112
  848loPI   C6A11878  14.293   6.734   8.228  0.0714 -0.3223  0.0369
  848loPI   C1B11879  15.129   6.183   6.435 -0.2352  0.2026 -0.2085
  848loPI   C2B11880  15.064   6.526   6.683  0.0660  0.3605  0.1728
  848loPI   C3B11881  15.064   6.479   7.115  0.1564 -0.0809 -0.0875
  848loPI   C4B11882  15.201   6.643   7.498 -0.0142  0.4751 -0.2379
  849loPI    C111883   0.674   9.345   5.097 -0.1821 -0.0455  0.0843
  849loPI    C211884   0.758   9.612   4.811 -0.0804  0.1182  0.2646
  849loPI    C311885   0.874   9.231   4.770 -0.4793  0.0307 -0.1280
  849loPI   PO411886   0.716   9.454   5.312  0.0743  0.0922  0.2051
  849loPI   GL111887   0.572   9.621   5.678 -0.1880 -0.2021 -0.2396
  849loPI   GL211888   0.541   9.340   5.734 -0.0156  0.2640 -0.3040
  849loPI   C1A11889   0.693   9.685   6.098  0.3200 -0.1612 -0.4045
  849loPI   C2A11890   0.769   9.644   6.448 -0.2990  0.0601 -0.1851
  849loPI   C3A11891   0.554   9.815   6.768 -0.0765  0.1785  0.1951
  849loPI   C4A11892   0.492   9.599   7.109  0.0922  0.2006  0.1704
  849loPI   C5A11893   0.611   9.534   7.482 -0.2446 -0.0991 -0.2905
  849loPI   C6A11894   0.587   9.630   7.989 -0.0153  0.3284 -0.1185
  849loPI   C1B11895   0.416   9.292   6.232  0.0507 -0.0758  0.2855
  849loPI   C2B11896   0.577   9.253   6.738 -0.2943 -0.1569  0.1497
  849loPI   C3B11897   0.807   9.255   7.177 -0.0895  0.0666 -0.0851
  849loPI   C4B11898   1.096   9.205   7.503  0.0642 -0.3683  0.1038
  850loPI    C111899  16.635  13.531   5.452  0.0290 -0.1731  0.1322
  850loPI    C211900  16.953  13.747   5.562 -0.0583  0.0776 -0.0975
  850loPI    C311901  16.628  13.737   5.795  0.0145  0.0443  0.0032
  850loPI   PO411902  16.748  13.251   5.446  0.1165 -0.0343  0.2413
  850loPI   GL111903  16.807  13.104   5.899 -0.1920 -0.3356  0.1527
  850loPI   GL211904  17.019  12.919   6.102  0.1846  0.1222  0.1475
  850loPI   C1A11905  16.639  13.338   6.306  0.0180  0.1418  0.1245
  850loPI   C2A11906  16.687  13.326   6.755 -0.0135  0.1230  0.2194
  850loPI   C3A11907  16.702  13.390   7.253  0.2386  0.1361  0.0115
  850loPI   C4A11908  16.590  13.479   7.699 -0.2717  0.0126  0.1404
  850loPI   C5A11909  16.234  13.561   8.060  0.1279  0.3013  0.1764
  850loPI   C6A11910  15.869  13.505   8.457  0.1492  0.1444 -0.1151
  850loPI   C1B11911  16.952  12.886   6.551 -0.1420 -0.0360 -0.1912
  850loPI   C2B11912  17.037  13.045   6.919  0.1639  0.2815 -0.2740
  850loPI   C3B11913  16.985  12.918   7.290 -0.2231 -0.5177  0.3544
  850loPI   C4B11914  17.168  12.770   7.600 -0.1566  0.1676 -0.4678
  851loPI    C111915  14.192   3.356   5.657  0.0950 -0.0641 -0.0383
  851loPI    C211916  13.800   3.394   5.590  0.0425 -0.1790  0.1927
  851loPI    C311917  13.982   3.635   5.853  0.1611 -0.0163 -0.0348
  851loPI   PO411918  14.250   3.039   5.698 -0.1900  0.0520 -0.2351
  851loPI   GL111919  14.138   3.045   6.128 -0.0503 -0.3199 -0.2400
  851loPI   GL211920  13.891   3.177   6.034  0.1729 -0.0843 -0.1225
  851loPI   C1A11921  14.021   2.995   6.515  0.2656 -0.2194  0.2172
  851loPI   C2A11922  13.954   2.878   6.957 -0.1727 -0.2200 -0.1171
  851loPI   C3A11923  13.858   2.651   7.322 -0.1482 -0.0523 -0.1614
  851loPI   C4A11924  14.071   2.503   7.664  0.1593  0.1080  0.0125
  851loPI   C5A11925  14.307   2.236   8.041  0.0322  0.1653 -0.0430
  851loPI   C6A11926  14.702   2.163   8.286  0.0040 -0.1537  0.3631
  851loPI   C1B11927  13.516   3.095   6.362 -0.2982 -0.1536 -0.2478
  851loPI   C2B11928  13.386   3.101   6.812  0.0952  0.1376 -0.3667
  851loPI   C3B11929  13.460   2.969   7.274 -0.2457 -0.1209 -0.0168
  851loPI   C4B11930  13.530   2.993   7.680  0.0654 -0.0771  0.0762
  852loPI    C111931  17.167  14.658   5.321 -0.1096 -0.2036 -0.0336
  852loPI    C211932  17.552  14.553   5.356 -0.0023  0.1651 -0.0657
  852loPI    C311933  17.342  14.441   5.035  0.1211  0.0894 -0.1205
  852loPI   PO411934  17.152  14.690   5.541  0.1135  0.1250  0.3325
  852loPI   GL111935  16.997  14.485   5.891 -0.2111  0.1746 -0.1257
  852loPI   GL211936  17.024  14.102   5.959  0.1035 -0.1718 -0.1431
  852loPI   C1A11937  16.829  14.810   6.174  0.0389 -0.1110  0.2400
  852loPI   C2A11938  16.533  14.710   6.509 -0.2019  0.0604  0.1758
  852loPI   C3A11939  16.431  14.656   6.939 -0.0957  0.0834  0.0354
  852loPI   C4A11940  16.402  14.877   7.353  0.5285 -0.2234  0.2091
  852loPI   C5A11941  16.294  14.865   7.785  0.0599 -0.0569  0.0651
  852loPI   C6A11942  16.139  14.543   8.152 -0.1159 -0.1803 -0.1646
  852loPI   C1B11943  16.861  14.293   6.338 -0.1927 -0.3765  0.1523
  852loPI   C2B11944  16.778  14.342   6.694  0.0385 -0.3922  0.1110
  852loPI   C3B11945  16.857  14.282   7.060 -0.0655 -0.1910  0.2179
  852loPI   C4B11946  16.932  14.243   7.479 -0.1000 -0.2507  0.0751
  853loPI    C111947   1.900  15.281   5.769 -0.3119  0.0834  0.1552
  853loPI    C211948   2.218  15.084   5.909 -0.0672  0.4584  0.1383
  853loPI    C311949   2.077  15.001   5.544  0.0439  0.3270  0.1243
  853loPI   PO411950   1.999  15.578   5.980  0.1085  0.1729  0.2280
  853loPI   GL111951   2.040  15.546   6.348  0.4029 -0.0527  0.2476
  853loPI   GL211952   2.374  15.379   6.295 -0.0193  0.0608  0.0494
  853loPI   C1A11953   1.871  15.393   6.736 -0.2147 -0.3617  0.3655
  853loPI   C2A11954   1.960  15.457   7.192 -0.4749  0.0300 -0.0139
  853loPI   C3A11955   1.731  15.526   7.460  0.0982  0.2208  0.2661
  853loPI   C4A11956   1.328  15.438   7.693  0.2482 -0.1335 -0.3334
  853loPI   C5A11957   1.122  15.739   8.063  0.0175  0.0206 -0.3310
  853loPI   C6A11958   0.966  15.789   8.477  0.1241  0.0669 -0.1226
  853loPI   C1B11959   2.361  15.371   6.772 -0.3072  0.1462  0.0019
  853loPI   C2B11960   2.418  15.308   7.190  0.0019  0.0184  0.0447
  853loPI   C3B11961   2.424  15.130   7.630 -0.0745  0.3736 -0.2091
  853loPI   C4B11962   2.271  14.974   8.038  0.0153 -0.0788  0.1052
  854loPI    C111963   0.838   4.320   5.935 -0.0568 -0.1688 -0.3505
  854loPI    C211964   0.880   4.712   5.865  0.1157 -0.1411 -0.1050
  854loPI    C311965   1.180   4.460   5.783  0.0409 -0.2098 -0.1708
  854loPI   PO411966   0.804   4.291   6.232  0.1606 -0.0115 -0.1231
  854loPI   GL111967   0.670   4.099   6.558  0.0293 -0.0454 -0.2518
  854loPI   GL211968   0.610   3.855   6.433 -0.2885  0.0504 -0.1160
  854loPI   C1A11969   0.711   4.139   6.979 -0.0637 -0.3869  0.3139
  854loPI   C2A11970   0.626   4.212   7.414  0.2077 -0.0426  0.1257
  854loPI   C3A11971   0.566   4.453   7.757  0.2148  0.1693 -0.1349
  854loPI   C4A11972   0.569   4.541   8.144 -0.4823  0.1748 -0.2311
  854loPI   C5A11973   0.801   4.768   8.423 -0.0925  0.0555 -0.0725
  854loPI   C6A11974   1.173   4.694   8.574  0.1979 -0.0690  0.0760
  854loPI   C1B11975   0.764   3.541   6.834 -0.3603  0.0561  0.0196
  854loPI   C2B11976   0.797   3.522   7.356  0.1051 -0.2316 -0.2374
  854loPI   C3B11977   0.668   3.745   7.672  0.0751  0.1124 -0.1445
  854loPI   C4B11978   0.706   4.024   7.994 -0.0445 -0.1585  0.2824
  855loPI    C111979   2.492  10.203   5.423  0.2244 -0.1088  0.0672
  855loPI    C211980   2.733  10.379   5.157  0.0446  0.0738  0.0229
  855loPI    C311981   2.457  10.116   5.034  0.1042 -0.0036  0.0538
  855loPI   PO411982   2.601  10.258   5.706 -0.2154  0.1600 -0.0170
  855loPI   GL111983   2.456  10.549   6.105  0.2718 -0.0826 -0.3985
  855loPI   GL211984   2.486  10.908   6.159 -0.0779 -0.2410  0.0065
  855loPI   C1A11985   2.429  10.475   6.518  0.1066  0.0380 -0.1429
  855loPI   C2A11986   2.374  10.526   6.922 -0.1339  0.2774 -0.0401
  855loPI   C3A11987   2.331  10.380   7.322 -0.0269  0.2967 -0.2933
  855loPI   C4A11988   2.025  10.173   7.692  0.0948 -0.3863 -0.3868
  855loPI   C5A11989   1.984  10.374   8.144 -0.0021  0.0152 -0.0608
  855loPI   C6A11990   1.932  10.669   8.553  0.1117  0.1079 -0.0674
  855loPI   C1B11991   2.493  10.941   6.578  0.1266  0.1783 -0.1493
  855loPI   C2B11992   2.554  11.105   7.042 -0.1000  0.1271 -0.2534
  855loPI   C3B11993   2.610  10.802   7.393  0.1036  0.1591 -0.0454
  855loPI   C4B11994   2.808  10.380   7.516 -0.1109 -0.1114  0.0612
  856loPI    C111995   2.629   8.986   5.848 -0.1598  0.2791  0.0386
  856loPI    C211996   2.963   9.104   5.662 -0.0131 -0.1750  0.0031
  856loPI    C311997   2.775   9.353   5.911  0.1194  0.2305 -0.2924
  856loPI   PO411998   2.711   8.777   6.046  0.0631 -0.1945  0.1324
  856loPI   GL111999   2.655   8.415   6.331 -0.0118 -0.0059  0.1092
  856loPI   GL212000   2.482   8.142   6.163  0.2757  0.0714 -0.1464
  856loPI   C1A12001   2.917   8.112   6.629  0.0992  0.0420 -0.2223
  856loPI   C2A12002   3.037   8.042   7.071 -0.0158 -0.1535 -0.1604
  856loPI   C3A12003   3.195   8.043   7.491 -0.3161  0.2013  0.2804
  856loPI   C4A12004   3.306   7.890   7.861 -0.2222  0.1189 -0.0661
  856loPI   C5A12005   3.206   7.662   8.259 -0.0610  0.0346 -0.1144
  856loPI   C6A12006   3.576   7.380   8.371  0.2435 -0.0688 -0.1700
  856loPI   C1B12007   2.447   7.814   6.519 -0.2739 -0.2014 -0.0117
  856loPI   C2B12008   2.605   7.852   6.954 -0.0662 -0.2029 -0.0136
  856loPI   C3B12009   2.633   7.938   7.395 -0.3302 -0.3958  0.0884
  856loPI   C4B12010   2.807   7.887   7.787 -0.0673  0.1937  0.3834
  857loPI    C112011   2.222  16.048   5.699  0.1601  0.2213 -0.0358
  857loPI    C212012   2.168  16.392   5.502 -0.5170  0.1272 -0.0371
  857loPI    C312013   2.167  16.044   5.303 -0.1634  0.0966  0.0076
  857loPI   PO412014   2.444  16.092   5.819  0.0589  0.4230  0.2850
  857loPI   GL112015   2.337  15.886   6.133 -0.0363 -0.1969  0.1066
  857loPI   GL212016   2.070  16.045   6.206  0.2841  0.0247  0.1452
  857loPI   C1A12017   2.404  15.858   6.601 -0.0908  0.0204 -0.0442
  857loPI   C2A12018   2.419  15.835   7.082  0.1784 -0.3878  0.2939
  857loPI   C3A12019   2.276  15.638   7.571 -0.0657 -0.2414  0.0095
  857loPI   C4A12020   2.370  15.928   7.892  0.0438 -0.3323  0.1677
  857loPI   C5A12021   2.058  16.117   8.114 -0.1491 -0.0432  0.3265
  857loPI   C6A12022   1.978  16.244   8.521  0.0029 -0.1861  0.1012
  857loPI   C1B12023   1.914  15.911   6.606 -0.0018 -0.0129 -0.0207
  857loPI   C2B12024   1.936  15.956   7.137  0.2721 -0.2424 -0.0975
  857loPI   C3B12025   1.944  16.000   7.571  0.0240 -0.1899 -0.2027
  857loPI   C4B12026   1.810  15.769   7.882 -0.0495  0.0278 -0.1646
  858loPI    C112027   2.113   3.276   5.510  0.1995  0.1890 -0.1023
  858loPI    C212028   1.841   3.493   5.312 -0.0407  0.0676  0.0882
  858loPI    C312029   1.955   3.137   5.170  0.2161  0.2316 -0.1274
  858loPI   PO412030   2.111   3.449   5.735 -0.0947  0.3444 -0.1252
  858loPI   GL112031   2.355   3.748   5.944  0.0867 -0.2781 -0.1296
  858loPI   GL212032   2.462   3.444   6.127 -0.0219 -0.1071  0.1829
  858loPI   C1A12033   2.284   4.063   6.361  0.0661  0.2527 -0.0819
  858loPI   C2A12034   2.159   4.026   6.774  0.1871 -0.0020  0.2201
  858loPI   C3A12035   1.997   4.064   7.220 -0.2487 -0.0613  0.2035
  858loPI   C4A12036   2.105   4.286   7.557 -0.0883 -0.2489 -0.2616
  858loPI   C5A12037   2.266   4.585   7.961  0.4649 -0.0121 -0.0686
  858loPI   C6A12038   2.490   4.528   8.379 -0.1094 -0.0557 -0.3179
  858loPI   C1B12039   2.133   3.578   6.544 -0.2916 -0.0978 -0.0235
  858loPI   C2B12040   2.071   3.579   6.941  0.2289  0.1380 -0.0459
  858loPI   C3B12041   2.228   3.599   7.335  0.2349 -0.0400  0.1045
  858loPI   C4B12042   2.138   3.781   7.745  0.2303 -0.0449 -0.0109
  859loPI    C112043   6.573   8.978   5.532 -0.0745  0.0815  0.0418
  859loPI    C212044   6.902   8.982   5.304 -0.1380 -0.1225 -0.0556
  859loPI    C312045   6.582   8.769   5.191 -0.3331  0.1361 -0.0013
  859loPI   PO412046   6.741   8.928   5.817  0.3887  0.2462  0.0511
  859loPI   GL112047   6.652   8.912   6.194 -0.1342 -0.1273  0.0060
  859loPI   GL212048   6.441   8.999   6.404  0.1028  0.1059  0.0199
  859loPI   C1A12049   6.579   8.506   6.401  0.2587 -0.1014 -0.2215
  859loPI   C2A12050   6.642   8.229   6.726  0.1852  0.1366 -0.0305
  859loPI   C3A12051   7.088   8.168   6.787  0.1310 -0.0712 -0.0446
  859loPI   C4A12052   7.209   7.977   7.137  0.2859  0.2161  0.2407
  859loPI   C5A12053   7.311   7.933   7.607 -0.0535  0.3483  0.0907
  859loPI   C6A12054   7.430   7.976   7.856 -0.1242  0.1490 -0.1067
  859loPI   C1B12055   6.490   8.842   6.872  0.1805  0.0730 -0.2437
  859loPI   C2B12056   6.425   8.787   7.278  0.0718  0.0389 -0.1470
  859loPI   C3B12057   6.593   8.575   7.651  0.3546  0.0144 -0.0620
  859loPI   C4B12058   6.781   8.675   8.026  0.2621  0.1824  0.1518
  860loPI    C112059   4.350  15.564   5.880  0.0233 -0.1267 -0.2113
  860loPI    C212060   4.714  15.428   5.788  0.2222  0.2242  0.0337
  860loPI    C312061   4.522  15.672   5.535  0.1402  0.0130 -0.1105
  860loPI   PO412062   4.332  15.648   6.029  0.2270 -0.0747  0.1920
  860loPI   GL112063   4.337  15.436   6.394  0.2310 -0.3020  0.0937
  860loPI   GL212064   4.040  15.219   6.429  0.2354  0.2484 -0.0150
  860loPI   C1A12065   4.223  15.504   6.794 -0.0144  0.1135 -0.3771
  860loPI   C2A12066   4.146  15.409   7.171  0.0857 -0.1725 -0.4753
  860loPI   C3A12067   4.001  15.421   7.577  0.0550 -0.0348 -0.0257
  860loPI   C4A12068   3.970  15.704   7.945 -0.0217  0.2273  0.2882
  860loPI   C5A12069   4.021  15.623   8.263  0.2028 -0.1378  0.0621
  860loPI   C6A12070   4.081  15.359   8.561 -0.5670 -0.0404  0.1975
  860loPI   C1B12071   3.832  14.974   6.775 -0.0534 -0.2230  0.1836
  860loPI   C2B12072   3.772  15.030   7.226 -0.0423 -0.3679 -0.0867
  860loPI   C3B12073   3.598  14.872   7.588  0.0210 -0.0670 -0.2276
  860loPI   C4B12074   3.818  14.560   7.885  0.2947  0.1024 -0.2336
  861loPI    C112075  17.629  17.449   5.945 -0.1058 -0.1289 -0.0766
  861loPI    C212076  17.506  17.249   5.622 -0.1472  0.1399 -0.2301
  861loPI    C312077  17.882  17.208   5.751 -0.2324 -0.2510 -0.0918
  861loPI   PO412078  17.363  17.697   5.973 -0.0930 -0.0572 -0.0342
  861loPI   GL112079  17.295  17.819   6.377 -0.1138 -0.0329 -0.1614
  861loPI   GL212080  17.380  17.447   6.443 -0.2934 -0.0294  0.0965
  861loPI   C1A12081  17.209  17.703   6.817 -0.1729  0.0615  0.0754
  861loPI   C2A12082  17.335  17.538   7.235  0.2898  0.4239 -0.1537
  861loPI   C3A12083  17.495  17.217   7.559 -0.4015  0.1358  0.1317
  861loPI   C4A12084  17.804  16.985   7.765  0.1372 -0.1267  0.3620
  861loPI   C5A12085  17.856  16.767   8.142 -0.0322  0.0443 -0.0378
  861loPI   C6A12086  17.773  16.388   8.402 -0.0280  0.1078 -0.0780
  861loPI   C1B12087  17.631  17.280   6.754 -0.1583 -0.0884 -0.2827
  861loPI   C2B12088  17.751  17.188   7.091  0.4465  0.1900  0.0039
  861loPI   C3B12089  18.040  17.372   7.376 -0.1511  0.1106  0.0505
  861loPI   C4B12090  18.260  17.331   7.748  0.3256 -0.1919 -0.0854
  862loPI    C112091   3.133   6.284   5.759 -0.0865 -0.0531  0.0011
  862loPI    C212092   3.180   6.150   5.385  0.1213  0.0684 -0.0182
  862loPI    C312093   3.492   6.300   5.584  0.0574 -0.1830  0.2790
  862loPI   PO412094   2.927   6.165   5.836  0.1167  0.2667 -0.2743
  862loPI   GL112095   2.996   5.950   6.218 -0.3608 -0.1765 -0.0989
  862loPI   GL212096   3.208   6.081   6.229 -0.0586 -0.1407  0.0579
  862loPI   C1A12097   2.975   5.805   6.615 -0.2657 -0.0402 -0.1062
  862loPI   C2A12098   2.775   5.817   6.941 -0.1609 -0.1772  0.3100
  862loPI   C3A12099   2.852   5.859   7.309  0.1862  0.0404  0.1642
  862loPI   C4A12100   2.606   5.768   7.676 -0.1852 -0.1592  0.0874
  862loPI   C5A12101   2.481   6.013   7.967 -0.0036 -0.6106 -0.1153
  862loPI   C6A12102   2.076   5.949   8.195  0.0034 -0.2037  0.0189
  862loPI   C1B12103   3.485   6.253   6.563 -0.1365 -0.0186  0.1529
  862loPI   C2B12104   3.701   6.220   7.008 -0.1380 -0.1103  0.0836
  862loPI   C3B12105   3.969   6.559   7.121 -0.4575 -0.1684  0.0894
  862loPI   C4B12106   4.178   6.642   6.815  0.3728 -0.3314  0.2394
  863loPI    C112107   9.796  17.213   5.673 -0.0735  0.0057  0.1684
  863loPI    C212108   9.406  17.253   5.754 -0.1831  0.0118 -0.3320
  863loPI    C312109   9.594  17.528   5.531  0.1951  0.1900  0.1865
  863loPI   PO412110   9.904  17.100   5.839  0.0708  0.0712  0.2270
  863loPI   GL112111   9.978  17.417   6.203 -0.1406 -0.2360  0.0878
  863loPI   GL212112   9.678  17.390   6.200  0.3529  0.3235  0.0963
  863loPI   C1A12113  10.005  17.427   6.600 -0.1320  0.0063 -0.3740
  863loPI   C2A12114   9.864  17.286   6.977  0.3984 -0.2334 -0.1687
  863loPI   C3A12115   9.571  17.196   7.282 -0.2147 -0.2395  0.1610
  863loPI   C4A12116   9.380  17.336   7.619  0.2907 -0.0058 -0.0624
  863loPI   C5A12117   9.141  17.446   8.048 -0.4336 -0.1093 -0.0635
  863loPI   C6A12118   8.794  17.245   8.167  0.0441  0.3478  0.1281
  863loPI   C1B12119   9.654  17.132   6.508  0.2829 -0.1562 -0.0355
  863loPI   C2B12120   9.543  16.902   6.807 -0.3976 -0.1888 -0.1373
  863loPI   C3B12121   9.536  16.718   7.174 -0.2260  0.1233 -0.0087
  863loPI   C4B12122   9.277  16.861   7.551  0.2291 -0.1038 -0.0698
  864loPI    C112123  10.945   1.505   5.463  0.1337 -0.0222  0.0467
  864loPI    C212124  11.217   1.213   5.442  0.1089 -0.0230 -0.3301
  864loPI    C312125  10.858   1.166   5.271 -0.3712 -0.2649  0.6658
  864loPI   PO412126  11.033   1.633   5.685  0.0552  0.1409 -0.0103
  864loPI   GL112127  10.950   1.701   6.226  0.0984 -0.2495  0.0003
  864loPI   GL212128  10.739   1.387   6.458 -0.3458  0.2395  0.2241
  864loPI   C1A12129  10.998   2.014   6.454  0.1495 -0.2491  0.0839
  864loPI   C2A12130  10.886   2.017   6.875 -0.2956  0.2053 -0.0805
  864loPI   C3A12131  10.795   2.153   7.312 -0.3413  0.1614  0.0526
  864loPI   C4A12132  10.686   2.322   7.706 -0.0537 -0.4331 -0.0446
  864loPI   C5A12133  10.830   2.516   8.052  0.1662 -0.2232  0.3008
  864loPI   C6A12134  10.935   2.588   8.407  0.0392  0.0656 -0.1828
  864loPI   C1B12135  10.912   1.487   6.806 -0.0311 -0.0123  0.0516
  864loPI   C2B12136  10.884   1.622   7.236 -0.1089 -0.2428 -0.2569
  864loPI   C3B12137  10.794   1.517   7.624 -0.1981  0.1918 -0.0347
  864loPI   C4B12138  10.752   1.449   8.044 -0.0458  0.2124  0.1264
  865loPI    C112139   5.648  14.060   5.905 -0.1422  0.1791 -0.0229
  865loPI    C212140   5.250  14.095   5.911 -0.1394  0.2086 -0.0044
  865loPI    C312141   5.437  13.991   5.573 -0.1945 -0.1876  0.0821
  865loPI   PO412142   5.693  13.957   6.185  0.2153 -0.1634  0.0707
  865loPI   GL112143   5.369  14.036   6.452  0.0537 -0.0351  0.1142
  865loPI   GL212144   5.463  13.995   6.689 -0.3502 -0.0015 -0.2920
  865loPI   C1A12145   4.986  14.058   6.699  0.0097 -0.1390  0.2857
  865loPI   C2A12146   4.783  14.022   7.045 -0.1768  0.4647  0.0922
  865loPI   C3A12147   4.710  13.837   7.446  0.1186  0.2645 -0.0605
  865loPI   C4A12148   4.532  13.799   7.854  0.0631  0.2295  0.0841
  865loPI   C5A12149   4.654  13.865   8.275  0.0114  0.1483 -0.0065
  865loPI   C6A12150   4.940  14.164   8.437 -0.0794 -0.0588 -0.1867
  865loPI   C1B12151   5.550  13.829   7.120  0.1358 -0.0672 -0.0388
  865loPI   C2B12152   5.579  13.825   7.540  0.1526 -0.0297  0.1280
  865loPI   C3B12153   5.479  13.928   8.021 -0.4433 -0.0435  0.1665
  865loPI   C4B12154   5.626  14.101   8.350 -0.2556  0.2497 -0.3536
  866loPI    C112155  10.125  12.173   5.970  0.1652  0.0432 -0.0061
  866loPI    C212156   9.895  12.199   5.644  0.0481  0.1559  0.0843
  866loPI    C312157   9.739  12.069   5.989  0.2307 -0.1987  0.0376
  866loPI   PO412158  10.259  12.408   6.016  0.1066  0.0547  0.1056
  866loPI   GL112159  10.406  12.577   6.300 -0.2613  0.1995 -0.2268
  866loPI   GL212160  10.750  12.507   6.138  0.2729 -0.2871 -0.2400
  866loPI   C1A12161  10.582  12.386   6.653  0.1139 -0.1110 -0.1191
  866loPI   C2A12162  10.653  12.288   7.078 -0.0180  0.0898 -0.0677
  866loPI   C3A12163  10.612  12.510   7.538  0.1059  0.1109  0.0566
  866loPI   C4A12164  10.610  12.340   7.930 -0.1354 -0.0669  0.3362
  866loPI   C5A12165  10.728  12.164   8.268  0.0625 -0.2597  0.0035
  866loPI   C6A12166  10.867  12.517   8.498 -0.0037  0.2421  0.0799
  866loPI   C1B12167  10.949  12.695   6.490  0.1284 -0.4256  0.0252
  866loPI   C2B12168  11.077  12.587   6.934  0.1144  0.2363 -0.0312
  866loPI   C3B12169  11.099  12.712   7.435  0.0373  0.2396  0.1323
  866loPI   C4B12170  10.794  12.966   7.497 -0.0440 -0.1491  0.0317
  867loPI    C112171  14.141   5.267   5.725  0.0184 -0.1225  0.0252
  867loPI    C212172  13.884   5.316   5.422  0.1630 -0.1338 -0.1004
  867loPI    C312173  13.874   5.566   5.735  0.1018 -0.0398 -0.1768
  867loPI   PO412174  14.394   5.249   5.744  0.0859 -0.1771  0.1743
  867loPI   GL112175  14.468   5.376   6.149  0.3661  0.3601 -0.1334
  867loPI   GL212176  14.106   5.463   6.190  0.0588 -0.0008  0.3354
  867loPI   C1A12177  14.530   5.226   6.575 -0.3134  0.1001  0.1815
  867loPI   C2A12178  14.737   5.306   6.972  0.2067  0.1315 -0.0827
  867loPI   C3A12179  14.816   5.087   7.329 -0.1247 -0.2604  0.0922
  867loPI   C4A12180  15.170   4.910   7.429 -0.3044 -0.0158 -0.0684
  867loPI   C5A12181  15.563   4.982   7.726  0.0453  0.0174  0.1722
  867loPI   C6A12182  15.884   5.143   8.033 -0.0336  0.0753 -0.0189
  867loPI   C1B12183  13.824   5.373   6.533  0.0135 -0.1756 -0.1384
  867loPI   C2B12184  13.560   5.443   6.891 -0.0147 -0.0363 -0.0531
  867loPI   C3B12185  13.735   5.435   7.296  0.2480 -0.2341 -0.2471
  867loPI   C4B12186  13.711   5.293   7.822  0.3029 -0.1710 -0.0441
  868loPI    C112187  16.980  15.816   5.089 -0.2559  0.0914 -0.1592
  868loPI    C212188  16.719  15.563   4.922 -0.2231 -0.0039 -0.0670
  868loPI    C312189  17.067  15.639   4.742 -0.1873 -0.1075 -0.0419
  868loPI   PO412190  16.836  15.874   5.397  0.2717  0.0794 -0.1999
  868loPI   GL112191  16.616  15.932   5.799  0.0110  0.1820 -0.3370
  868loPI   GL212192  16.940  16.139   5.937  0.1600 -0.0097  0.1016
  868loPI   C1A12193  16.733  15.634   6.101 -0.0158  0.2065 -0.1567
  868loPI   C2A12194  16.793  15.637   6.505  0.0134 -0.2658  0.1361
  868loPI   C3A12195  16.855  15.714   7.027 -0.1077  0.3386  0.0802
  868loPI   C4A12196  16.821  15.758   7.482 -0.0185  0.1929  0.0843
  868loPI   C5A12197  16.629  15.792   7.947  0.2896 -0.1315  0.1413
  868loPI   C6A12198  16.603  16.109   8.231 -0.0513 -0.0097  0.1015
  868loPI   C1B12199  16.983  16.144   6.387 -0.0347 -0.1844  0.0966
  868loPI   C2B12200  16.977  16.077   6.775 -0.0760 -0.0492 -0.0212
  868loPI   C3B12201  16.775  16.169   7.197  0.1665 -0.0029  0.0062
  868loPI   C4B12202  16.496  16.496   7.048 -0.0482  0.0575 -0.1702
  869loPI    C112203   3.333   3.363   5.817  0.0941 -0.0331  0.1900
  869loPI    C212204   3.228   3.576   5.495 -0.0012  0.1377  0.3320
  869loPI    C312205   3.582   3.391   5.506 -0.1476 -0.1780 -0.0208
  869loPI   PO412206   3.299   3.518   6.040 -0.2337  0.0711 -0.0410
  869loPI   GL112207   3.166   3.441   6.403 -0.1989  0.0352  0.0519
  869loPI   GL212208   2.922   3.261   6.283 -0.0750  0.0288 -0.1243
  869loPI   C1A12209   3.174   3.601   6.817 -0.1127  0.1259  0.2543
  869loPI   C2A12210   3.180   3.623   7.219 -0.0448 -0.0783  0.3558
  869loPI   C3A12211   3.480   3.577   7.558  0.2234 -0.1306 -0.0579
  869loPI   C4A12212   3.804   3.610   7.696  0.1562  0.0538 -0.0657
  869loPI   C5A12213   3.819   3.795   8.066  0.2993  0.1636  0.2995
  869loPI   C6A12214   4.132   3.859   8.387  0.3991  0.1426 -0.0201
  869loPI   C1B12215   2.934   3.137   6.724 -0.2198 -0.1202  0.1185
  869loPI   C2B12216   2.931   3.163   7.179 -0.1850  0.3110  0.0116
  869loPI   C3B12217   2.963   3.393   7.651 -0.1811 -0.0715  0.0701
  869loPI   C4B12218   2.880   3.540   8.094  0.0832  0.0335  0.2327
  870loPI    C112219   9.330   8.497   5.079  0.0228  0.2741 -0.0665
  870loPI    C212220   9.719   8.444   5.001  0.0246  0.1513  0.0233
  870loPI    C312221   9.443   8.276   4.765  0.0296 -0.1260  0.2101
  870loPI   PO412222   9.316   8.476   5.352  0.0335 -0.0002 -0.2921
  870loPI   GL112223   9.004   8.535   5.710  0.1364 -0.3988 -0.0092
  870loPI   GL212224   8.772   8.361   5.774  0.0084  0.3504  0.2161
  870loPI   C1A12225   9.109   8.535   6.166 -0.3882 -0.0073  0.0627
  870loPI   C2A12226   9.315   8.350   6.501 -0.0368  0.0811 -0.0496
  870loPI   C3A12227   9.248   8.218   6.986  0.1483 -0.1167 -0.0215
  870loPI   C4A12228   9.153   8.021   7.440 -0.0369  0.0808 -0.0179
  870loPI   C5A12229   9.165   8.029   7.828 -0.0450 -0.0845 -0.1733
  870loPI   C6A12230   9.175   7.755   8.229 -0.1390  0.3559  0.0394
  870loPI   C1B12231   8.703   8.340   6.255 -0.2677  0.0921 -0.2214
  870loPI   C2B12232   8.783   8.255   6.711 -0.2488  0.4031 -0.0384
  870loPI   C3B12233   8.813   8.128   7.131  0.2256  0.0616 -0.0115
  870loPI   C4B12234   8.576   7.859   7.414  0.2427  0.1823 -0.1224
  871loPI    C112235   7.515   9.039   5.713 -0.0930  0.0196  0.1476
  871loPI    C212236   7.144   9.184   5.683 -0.0793  0.0158 -0.0499
  871loPI    C312237   7.203   8.789   5.708 -0.0860  0.0134 -0.0713
  871loPI   PO412238   7.589   9.155   5.920 -0.0681 -0.0586 -0.1440
  871loPI   GL112239   7.532   9.252   6.366 -0.1102  0.1256  0.1478
  871loPI   GL212240   7.539   9.526   6.459 -0.0080  0.2723 -0.2111
  871loPI   C1A12241   7.390   9.032   6.677  0.0651 -0.0407  0.0731
  871loPI   C2A12242   7.291   8.997   7.106  0.3433  0.2376  0.2415
  871loPI   C3A12243   6.865   8.942   7.252 -0.0650  0.0624 -0.1993
  871loPI   C4A12244   6.738   9.058   7.698  0.2897  0.0666  0.1278
  871loPI   C5A12245   6.518   9.187   8.000 -0.1895 -0.0722 -0.1348
  871loPI   C6A12246   6.319   9.593   8.226  0.0189 -0.0185 -0.1553
  871loPI   C1B12247   7.357   9.470   6.902  0.0410 -0.1098  0.0149
  871loPI   C2B12248   7.288   9.430   7.447 -0.1514  0.2287  0.1665
  871loPI   C3B12249   7.200   9.075   7.613 -0.3343  0.1303  0.1730
  871loPI   C4B12250   7.247   8.991   8.041  0.2099  0.1114 -0.0996
  872loPI    C112251   0.226   9.806   4.968 -0.1026 -0.2640 -0.0130
  872loPI    C212252   0.263   9.434   4.826  0.0436 -0.2168 -0.1002
  872loPI    C312253   0.161   9.733   4.580  0.1954 -0.1526 -0.0858
  872loPI   PO412254   0.418   9.828   5.108  0.1854  0.1709 -0.1624
  872loPI   GL112255   0.305   9.998   5.505 -0.0435  0.1838  0.0154
  872loPI   GL212256   0.661  10.074   5.540  0.0292  0.3075  0.1946
  872loPI   C1A12257   0.173   9.842   5.919  0.1429 -0.3988  0.2121
  872loPI   C2A12258   0.171   9.719   6.342  0.2497  0.0786  0.3825
  872loPI   C3A12259   0.131   9.327   6.662 -0.0178  0.1758 -0.2872
  872loPI   C4A12260  -0.094   9.071   6.991  0.0884  0.0332  0.0023
  872loPI   C5A12261  -0.245   8.979   7.339 -0.0933 -0.0678 -0.0561
  872loPI   C6A12262  -0.401   8.636   7.499  0.0245 -0.2986  0.3113
  872loPI   C1B12263   0.538  10.200   5.978 -0.1774 -0.1128  0.0365
  872loPI   C2B12264   0.595  10.388   6.410  0.1520 -0.0323 -0.1984
  872loPI   C3B12265   0.572  10.749   6.770  0.0308 -0.0351 -0.1249
  872loPI   C4B12266   0.732  11.196   6.875 -0.1093 -0.1234 -0.0837
  873loPI    C112267  14.435  14.972   5.544 -0.1445 -0.0563 -0.1464
  873loPI    C212268  14.300  14.597   5.509 -0.1040 -0.0706 -0.1508
  873loPI    C312269  14.623  14.712   5.304 -0.1111 -0.0359 -0.1423
  873loPI   PO412270  14.476  14.969   5.742 -0.6162 -0.1526  0.0184
  873loPI   GL112271  14.694  15.054   6.111 -0.3297  0.1655  0.1782
  873loPI   GL212272  14.889  15.155   6.245 -0.1854  0.1958  0.0280
  873loPI   C1A12273  14.598  14.869   6.545  0.0860 -0.0585  0.0849
  873loPI   C2A12274  14.482  15.087   6.922  0.0613 -0.0914 -0.1839
  873loPI   C3A12275  14.357  15.311   7.368 -0.3825  0.1413 -0.0930
  873loPI   C4A12276  14.489  15.384   7.754  0.1321  0.0897  0.2479
  873loPI   C5A12277  14.756  15.128   7.905  0.2230 -0.0628  0.0343
  873loPI   C6A12278  14.781  14.739   8.110  0.1917  0.5882  0.2543
  873loPI   C1B12279  14.752  15.369   6.637  0.1886  0.0641  0.0779
  873loPI   C2B12280  14.678  15.546   7.081 -0.0079  0.3749  0.0624
  873loPI   C3B12281  14.677  15.734   7.473  0.0774  0.1171  0.0126
  873loPI   C4B12282  14.687  15.968   7.886 -0.3569 -0.1251  0.1880
  874loPI    C112283   7.794   2.565   5.711 -0.0074  0.0989  0.2638
  874loPI    C212284   7.832   2.963   5.698  0.0052  0.0894 -0.0496
  874loPI    C312285   7.579   2.778   5.449  0.2197 -0.1241 -0.1118
  874loPI   PO412286   7.874   2.536   6.058 -0.1553  0.2520  0.1018
  874loPI   GL112287   7.911   2.606   6.462 -0.1177 -0.0962  0.1054
  874loPI   GL212288   7.688   2.274   6.458 -0.3444  0.0130 -0.0159
  874loPI   C1A12289   8.136   2.879   6.724 -0.2022  0.2202 -0.1713
  874loPI   C2A12290   8.263   3.057   7.028  0.0124 -0.1357 -0.1969
  874loPI   C3A12291   8.280   2.851   7.478  0.0149 -0.0965  0.3456
  874loPI   C4A12292   8.023   2.750   7.778  0.0008 -0.2210 -0.3771
  874loPI   C5A12293   7.926   2.966   8.071  0.0415  0.2346  0.2357
  874loPI   C6A12294   7.829   3.347   8.280  0.0700 -0.2708 -0.0864
  874loPI   C1B12295   7.658   2.339   6.928 -0.3419  0.1735 -0.2820
  874loPI   C2B12296   7.652   2.659   7.167 -0.0185  0.1896  0.0573
  874loPI   C3B12297   7.735   3.021   7.336  0.1349 -0.1261  0.2463
  874loPI   C4B12298   7.664   3.269   7.674  0.0640  0.3477  0.3813
  875loPI    C112299   5.985   3.894   5.637  0.0638 -0.0674 -0.0000
  875loPI    C212300   6.120   4.058   5.298  0.1719  0.0394  0.0942
  875loPI    C312301   5.738   4.107   5.405  0.1690  0.1117  0.0510
  875loPI   PO412302   6.178   4.010   5.817 -0.0036  0.0793 -0.1085
  875loPI   GL112303   6.185   4.057   6.314  0.2005 -0.3005  0.0183
  875loPI   GL212304   6.183   4.427   6.410 -0.0610 -0.2092 -0.0898
  875loPI   C1A12305   6.080   4.037   6.684  0.2548  0.0260 -0.3123
  875loPI   C2A12306   6.124   4.054   7.129 -0.0019  0.3408 -0.1396
  875loPI   C3A12307   6.162   4.076   7.585 -0.2928 -0.1312 -0.2587
  875loPI   C4A12308   6.439   4.132   7.897 -0.2506  0.2185  0.0590
  875loPI   C5A12309   6.418   4.214   8.365  0.2690 -0.1858 -0.2987
  875loPI   C6A12310   6.213   4.455   8.613 -0.0186  0.3205  0.1402
  875loPI   C1B12311   6.251   4.484   6.876  0.0029  0.0319 -0.0413
  875loPI   C2B12312   6.240   4.584   7.342  0.0319  0.2093  0.0063
  875loPI   C3B12313   6.346   4.663   7.676  0.0129 -0.0858  0.0986
  875loPI   C4B12314   6.387   4.653   8.054  0.0612  0.1541 -0.3011
  876loPI    C112315   7.151   4.297   5.574 -0.0908 -0.1449  0.0668
  876loPI    C212316   7.506   4.269   5.754 -0.0916  0.2752  0.1426
  876loPI    C312317   7.451   4.536   5.462 -0.1108 -0.3461 -0.4472
  876loPI   PO412318   7.027   4.324   5.874  0.2293 -0.1711  0.1111
  876loPI   GL112319   7.250   4.356   6.276  0.2212  0.1814  0.0682
  876loPI   GL212320   7.181   3.975   6.274 -0.1288  0.0007  0.0494
  876loPI   C1A12321   7.178   4.554   6.612  0.0485  0.3752  0.1703
  876loPI   C2A12322   7.229   4.735   6.993 -0.1072 -0.0629 -0.0750
  876loPI   C3A12323   7.157   4.824   7.377 -0.3380  0.1658 -0.0945
  876loPI   C4A12324   7.408   4.780   7.715 -0.2381 -0.0234  0.0166
  876loPI   C5A12325   7.696   4.551   7.781  0.0542  0.2154  0.5373
  876loPI   C6A12326   7.896   4.140   7.965  0.1911  0.0472  0.2486
  876loPI   C1B12327   7.447   4.112   6.684 -0.2022  0.1864  0.1852
  876loPI   C2B12328   7.431   4.250   7.103  0.1145  0.0656  0.1463
  876loPI   C3B12329   7.319   4.240   7.462 -0.0443 -0.1502  0.0052
  876loPI   C4B12330   7.351   4.199   7.916 -0.3348 -0.0794  0.2175
  877loPI    C112331  12.384  15.494   5.965 -0.0322 -0.1323 -0.2604
  877loPI    C212332  11.996  15.433   5.890 -0.0460 -0.0793 -0.2332
  877loPI    C312333  12.240  15.552   5.596 -0.0905  0.0829 -0.2050
  877loPI   PO412334  12.448  15.263   6.041  0.0413 -0.0765 -0.1156
  877loPI   GL112335  12.434  14.836   6.123  0.1112 -0.3442 -0.1375
  877loPI   GL212336  12.267  14.637   6.251 -0.0084 -0.0671 -0.2635
  877loPI   C1A12337  12.670  14.842   6.570 -0.3421 -0.3537 -0.0160
  877loPI   C2A12338  12.620  14.751   7.087 -0.1309 -0.2815 -0.1125
  877loPI   C3A12339  12.712  14.921   7.472 -0.0212 -0.1982 -0.1683
  877loPI   C4A12340  12.959  14.918   7.827 -0.0895  0.2322 -0.0666
  877loPI   C5A12341  13.188  15.178   8.201 -0.0684  0.1883  0.2785
  877loPI   C6A12342  13.426  15.072   8.552  0.1390  0.1112  0.5171
  877loPI   C1B12343  12.213  14.809   6.707  0.1421 -0.2238 -0.1734
  877loPI   C2B12344  12.141  14.753   7.125 -0.2951  0.1763  0.1800
  877loPI   C3B12345  12.260  14.783   7.507 -0.1041  0.0960 -0.2607
  877loPI   C4B12346  12.353  14.984   7.905 -0.0010  0.1271 -0.2924
  878loPI    C112347   3.530   2.086   5.817  0.2943 -0.0087  0.3106
  878loPI    C212348   3.197   1.866   5.787  0.1389  0.2743 -0.1519
  878loPI    C312349   3.421   1.935   5.463  0.4767  0.3550  0.0927
  878loPI   PO412350   3.682   2.007   5.968 -0.1751 -0.0483 -0.1286
  878loPI   GL112351   3.850   2.226   6.382  0.1735  0.3485  0.1283
  878loPI   GL212352   3.976   2.091   6.756  0.4714  0.5214  0.2369
  878loPI   C1A12353   3.591   2.377   6.721 -0.2422  0.0380 -0.0243
  878loPI   C2A12354   3.666   2.407   7.098 -0.0713  0.0732 -0.0948
  878loPI   C3A12355   3.511   2.355   7.459 -0.0247  0.2889  0.0725
  878loPI   C4A12356   3.275   2.132   7.801  0.1178 -0.0165  0.0307
  878loPI   C5A12357   3.261   2.357   8.220 -0.0116  0.0704  0.1708
  878loPI   C6A12358   3.043   2.692   8.437 -0.0207  0.1744 -0.0869
  878loPI   C1B12359   3.820   1.854   7.106  0.1377  0.1968 -0.0625
  878loPI   C2B12360   3.658   1.775   7.625  0.0102 -0.0702 -0.0472
  878loPI   C3B12361   3.660   1.822   8.092  0.1798 -0.5077 -0.2922
  878loPI   C4B12362   3.628   1.583   8.559 -0.0361  0.0762  0.1235
  879loPI    C112363   1.453   7.060   5.726  0.0317 -0.0936  0.0873
  879loPI    C212364   1.848   7.052   5.665  0.0026 -0.1536 -0.0992
  879loPI    C312365   1.598   6.946   5.372 -0.1619  0.1701 -0.0810
  879loPI   PO412366   1.441   6.973   5.950  0.0536  0.3346  0.0526
  879loPI   GL112367   1.533   6.809   6.354  0.1813 -0.0891  0.0220
  879loPI   GL212368   1.662   6.581   6.361 -0.1252  0.1609  0.0025
  879loPI   C1A12369   1.156   6.883   6.727  0.0255 -0.1935  0.1746
  879loPI   C2A12370   0.918   6.881   7.018 -0.3725  0.1726  0.0846
  879loPI   C3A12371   1.029   6.893   7.504  0.1480  0.0655 -0.0770
  879loPI   C4A12372   1.032   6.669   7.979  0.1318  0.0560 -0.1840
  879loPI   C5A12373   0.845   6.315   8.236 -0.1060  0.1813 -0.0176
  879loPI   C6A12374   1.057   5.987   8.571  0.1174  0.2484  0.2271
  879loPI   C1B12375   1.658   6.681   6.818  0.2027 -0.2727  0.0645
  879loPI   C2B12376   1.450   6.958   7.155 -0.2434 -0.0897 -0.3487
  879loPI   C3B12377   1.465   7.230   7.417 -0.0273  0.1005  0.0442
  879loPI   C4B12378   1.454   7.378   7.759  0.2289  0.0731 -0.2665
  880loPI    C112379  13.990   2.125   5.121 -0.0209 -0.0555 -0.0633
  880loPI    C212380  13.745   2.302   4.860  0.0743  0.0291 -0.0961
  880loPI    C312381  13.909   1.947   4.772 -0.0055 -0.0096 -0.0902
  880loPI   PO412382  13.859   2.171   5.388  0.1897  0.0844  0.1108
  880loPI   GL112383  13.992   2.092   5.859  0.2611 -0.1278 -0.1033
  880loPI   GL212384  13.636   2.169   5.818 -0.3560 -0.2102 -0.1157
  880loPI   C1A12385  14.046   1.958   6.344 -0.0262 -0.2146 -0.0121
  880loPI   C2A12386  13.901   1.875   6.802 -0.0677 -0.2604  0.2298
  880loPI   C3A12387  13.782   1.685   7.185 -0.0578  0.0419  0.0155
  880loPI   C4A12388  13.461   1.519   7.448 -0.0270 -0.1049  0.0253
  880loPI   C5A12389  13.162   1.768   7.806  0.3121  0.1051 -0.3683
  880loPI   C6A12390  13.539   1.934   8.158 -0.2301 -0.0252  0.0432
  880loPI   C1B12391  13.585   2.142   6.275 -0.2383  0.1549  0.2085
  880loPI   C2B12392  13.517   2.138   6.738  0.0010  0.0426  0.0283
  880loPI   C3B12393  13.586   2.164   7.153 -0.1216  0.2554 -0.0231
  880loPI   C4B12394  13.383   2.405   7.565 -0.0345  0.2966 -0.0988
  881loPI    C112395  14.530  17.229   5.660 -0.1626 -0.0734  0.1653
  881loPI    C212396  14.615  17.347   5.288  0.0252  0.0525  0.2465
  881loPI    C312397  14.286  17.131   5.359 -0.0772  0.1333  0.0268
  881loPI   PO412398  14.508  17.512   5.813 -0.0662  0.0841 -0.1346
  881loPI   GL112399  14.709  17.710   6.204  0.1832  0.3292 -0.0970
  881loPI   GL212400  14.456  17.785   6.196  0.1960  0.0065 -0.0292
  881loPI   C1A12401  14.617  17.746   6.653  0.1034 -0.0395 -0.1347
  881loPI   C2A12402  14.556  17.788   7.036  0.0812 -0.1394  0.0544
  881loPI   C3A12403  14.582  17.926   7.364  0.1997 -0.1025  0.0444
  881loPI   C4A12404  14.380  18.134   7.694 -0.0646  0.1160  0.0990
  881loPI   C5A12405  13.972  18.306   7.801 -0.0050 -0.0360 -0.1570
  881loPI   C6A12406  13.903  18.209   8.285  0.0593 -0.0503 -0.2209
  881loPI   C1B12407  14.013  17.562   6.381 -0.3913  0.2646  0.1667
  881loPI   C2B12408  13.644  17.590   6.528 -0.0130  0.1899 -0.0960
  881loPI   C3B12409  13.546  17.692   7.034 -0.3218  0.0955  0.1227
  881loPI   C4B12410  13.120  17.641   7.284  0.2542  0.0256 -0.0172
  882loPI    C112411   9.068  10.945   5.918 -0.1976  0.1574 -0.2112
  882loPI    C212412   8.974  10.989   5.532  0.1216 -0.3386 -0.3549
  882loPI    C312413   9.340  10.864   5.636 -0.0066 -0.3497  0.1040
  882loPI   PO412414   8.890  11.052   6.028  0.0515  0.0017 -0.2109
  882loPI   GL112415   8.750  11.062   6.468  0.1680  0.0513  0.0921
  882loPI   GL212416   8.554  11.124   6.515 -0.1141  0.1555 -0.1928
  882loPI   C1A12417   9.000  11.224   6.799  0.3406 -0.0811  0.0529
  882loPI   C2A12418   9.096  11.149   7.201 -0.1737 -0.0146  0.1254
  882loPI   C3A12419   9.454  11.171   7.314 -0.0696  0.2827  0.2278
  882loPI   C4A12420   9.541  11.140   7.823  0.2113  0.0161 -0.1296
  882loPI   C5A12421   9.863  11.057   8.151  0.2874  0.3164  0.3077
  882loPI   C6A12422  10.176  10.757   8.398  0.1616  0.1302 -0.3187
  882loPI   C1B12423   8.464  11.192   6.957 -0.1393 -0.0714  0.1060
  882loPI   C2B12424   8.571  11.103   7.332  0.1300  0.1168  0.0823
  882loPI   C3B12425   8.205  11.131   7.747  0.0041 -0.3422  0.2502
  882loPI   C4B12426   8.005  11.454   8.089  0.0840  0.0118 -0.0581
  883loPI    C112427  15.674   1.378   5.406 -0.0116 -0.0112 -0.0461
  883loPI    C212428  15.748   1.078   5.660 -0.1823 -0.0021  0.0155
  883loPI    C312429  15.801   1.025   5.267 -0.2329 -0.1206  0.0243
  883loPI   PO412430  15.591   1.637   5.663 -0.2094 -0.0156 -0.1349
  883loPI   GL112431  15.510   1.854   6.076  0.0619  0.1076  0.0549
  883loPI   GL212432  15.389   2.029   6.244  0.2089  0.1062  0.3801
  883loPI   C1A12433  15.848   2.097   6.334  0.1326 -0.2726 -0.1996
  883loPI   C2A12434  15.926   2.097   6.773 -0.0553 -0.3480  0.2161
  883loPI   C3A12435  15.863   2.294   7.220 -0.1238 -0.1818  0.0179
  883loPI   C4A12436  15.918   2.530   7.639  0.2121 -0.0193  0.0672
  883loPI   C5A12437  15.842   2.576   8.115  0.0404  0.0068 -0.0008
  883loPI   C6A12438  15.831   2.471   8.483  0.0040 -0.1047 -0.2154
  883loPI   C1B12439  15.415   1.999   6.645  0.2678  0.2700 -0.1920
  883loPI   C2B12440  15.443   2.005   7.093 -0.1522  0.1936  0.1732
  883loPI   C3B12441  15.412   2.291   7.459 -0.0641 -0.1344 -0.1574
  883loPI   C4B12442  15.426   2.698   7.672  0.0523  0.2799 -0.0076
  884loPI    C112443   6.372   5.018   5.505  0.0424  0.2829 -0.0422
  884loPI    C212444   6.727   5.196   5.462  0.1734 -0.0031 -0.1711
  884loPI    C312445   6.523   5.075   5.140  0.2029 -0.3077 -0.0788
  884loPI   PO412446   6.429   4.860   5.674  0.2019 -0.1288 -0.2224
  884loPI   GL112447   6.766   4.771   5.935 -0.1746 -0.0645  0.0940
  884loPI   GL212448   6.896   4.680   6.208 -0.2309 -0.0371  0.0640
  884loPI   C1A12449   6.829   5.140   6.376  0.4240  0.3235  0.0694
  884loPI   C2A12450   6.963   5.155   6.751  0.1159  0.1840 -0.0068
  884loPI   C3A12451   7.109   5.229   7.114  0.1218 -0.2975 -0.1007
  884loPI   C4A12452   7.213   5.233   7.639  0.2298 -0.0637  0.0991
  884loPI   C5A12453   7.356   5.543   7.959 -0.0614 -0.0567 -0.4840
  884loPI   C6A12454   7.546   5.457   8.371  0.0153 -0.1178  0.0081
  884loPI   C1B12455   6.709   4.679   6.598  0.0663  0.1804 -0.1640
  884loPI   C2B12456   6.627   4.894   7.000 -0.0971 -0.1549 -0.1128
  884loPI   C3B12457   6.674   4.950   7.357 -0.1794 -0.1646  0.2414
  884loPI   C4B12458   6.763   5.004   7.781 -0.0027  0.0682  0.0982
  885loPI    C112459   0.592  15.290   5.845 -0.0005 -0.1977 -0.1812
  885loPI    C212460   0.285  15.425   6.063  0.2620  0.0886  0.0206
  885loPI    C312461   0.543  15.684   5.898  0.3782 -0.1470 -0.1738
  885loPI   PO412462   0.491  14.991   5.874  0.2238  0.1628 -0.2144
  885loPI   GL112463   0.234  14.903   6.207  0.0647  0.0080  0.2704
  885loPI   GL212464   0.291  14.757   6.378 -0.2492  0.3344 -0.0548
  885loPI   C1A12465   0.125  15.176   6.507  0.0543 -0.0118  0.0626
  885loPI   C2A12466   0.194  15.187   6.927 -0.0162  0.1471 -0.2833
  885loPI   C3A12467   0.347  15.135   7.247 -0.0374 -0.1134 -0.1303
  885loPI   C4A12468   0.319  15.047   7.610 -0.0725 -0.2432  0.0501
  885loPI   C5A12469   0.241  14.799   7.945  0.0929 -0.0926  0.1197
  885loPI   C6A12470   0.142  14.363   7.890  0.1480 -0.3333 -0.3240
  885loPI   C1B12471   0.442  14.779   6.840  0.0499 -0.0417  0.0830
  885loPI   C2B12472   0.533  14.711   7.282 -0.5216  0.1765  0.0505
  885loPI   C3B12473   0.659  14.533   7.700  0.1554  0.1558 -0.1307
  885loPI   C4B12474   0.699  14.537   8.183  0.0061 -0.2853  0.1812
  886loPI    C112475  14.531   7.706   5.603  0.1096  0.0076 -0.2240
  886loPI    C212476  14.757   7.435   5.414 -0.1594 -0.2881 -0.1304
  886loPI    C312477  14.507   7.666   5.205  0.1248 -0.0535 -0.2189
  886loPI   PO412478  14.678   7.579   5.897 -0.2801  0.2151 -0.1309
  886loPI   GL112479  14.403   7.496   6.165  0.0650 -0.1233  0.1835
  886loPI   GL212480  14.129   7.650   6.281 -0.0344 -0.1159 -0.0603
  886loPI   C1A12481  14.694   7.626   6.520  0.1126  0.0951 -0.0592
  886loPI   C2A12482  14.723   7.518   7.008 -0.0626 -0.1019  0.0749
  886loPI   C3A12483  14.833   7.424   7.439 -0.1473 -0.0936  0.1725
  886loPI   C4A12484  14.653   7.456   7.786  0.0582  0.2276  0.0540
  886loPI   C5A12485  14.625   7.816   7.942  0.1057  0.0888 -0.0428
  886loPI   C6A12486  14.867   8.178   8.107  0.1500  0.0504 -0.0961
  886loPI   C1B12487  14.206   7.837   6.670  0.0786 -0.3024 -0.1706
  886loPI   C2B12488  14.319   7.782   7.000 -0.3011  0.2650 -0.2816
  886loPI   C3B12489  14.284   8.094   7.279  0.3360 -0.1061 -0.0661
  886loPI   C4B12490  14.237   8.134   7.681 -0.2477 -0.0286 -0.2155
  887loPI    C112491  10.609   5.746   5.648 -0.0687  0.1143  0.2214
  887loPI    C212492  10.734   5.450   5.885  0.0025  0.0294  0.0792
  887loPI    C312493  10.706   5.391   5.490 -0.2688  0.1192  0.0829
  887loPI   PO412494  10.779   5.899   5.654  0.2815 -0.1700  0.0177
  887loPI   GL112495  10.919   6.247   5.867  0.0556  0.0447 -0.0649
  887loPI   GL212496  11.250   6.083   5.841 -0.3231  0.2465  0.0635
  887loPI   C1A12497  10.789   6.099   6.315  0.1004  0.2577  0.2528
  887loPI   C2A12498  10.756   6.051   6.653  0.0259  0.1129 -0.0471
  887loPI   C3A12499  10.956   6.058   7.016  0.2514  0.0400  0.1641
  887loPI   C4A12500  10.981   6.184   7.410  0.0603  0.4231  0.1382
  887loPI   C5A12501  10.876   6.436   7.699 -0.2844 -0.1274 -0.3514
  887loPI   C6A12502  10.717   6.865   7.705  0.0372  0.2079 -0.1595
  887loPI   C1B12503  11.253   6.119   6.244 -0.0924  0.0061 -0.2937
  887loPI   C2B12504  11.302   6.337   6.578  0.1787  0.2943  0.1808
  887loPI   C3B12505  11.395   6.602   6.894 -0.2028  0.0778  0.2306
  887loPI   C4B12506  11.327   6.524   7.395  0.1173 -0.0759  0.0977
  888loPI    C112507  13.775   2.830   5.661 -0.2153  0.3368 -0.2080
  888loPI    C212508  13.437   2.617   5.656 -0.0434  0.0463  0.1051
  888loPI    C312509  13.478   2.923   5.911 -0.1924  0.2975 -0.1659
  888loPI   PO412510  13.937   2.588   5.718  0.1798 -0.2980  0.0117
  888loPI   GL112511  14.136   2.556   6.083  0.0698 -0.1485 -0.1309
  888loPI   GL212512  13.759   2.637   6.197 -0.3132  0.1607 -0.3502
  888loPI   C1A12513  14.156   2.459   6.541 -0.1519  0.0643  0.1098
  888loPI   C2A12514  14.061   2.371   6.929 -0.1447 -0.2234  0.1498
  888loPI   C3A12515  14.045   2.065   7.254 -0.1467  0.2642  0.0170
  888loPI   C4A12516  14.372   1.876   7.493  0.1092  0.1446 -0.1894
  888loPI   C5A12517  14.602   1.857   7.876  0.1367 -0.3619 -0.1575
  888loPI   C6A12518  14.930   1.578   8.046  0.1152  0.1332  0.1940
  888loPI   C1B12519  13.621   2.620   6.514 -0.0533  0.0530  0.1246
  888loPI   C2B12520  13.496   2.604   6.932  0.3153 -0.1558  0.0904
  888loPI   C3B12521  13.054   2.421   7.022 -0.0265 -0.0438 -0.0782
  888loPI   C4B12522  12.878   2.335   7.523  0.0276 -0.3200  0.0048
  889loPI    C112523  14.698  11.565   5.240 -0.0006 -0.0592  0.1099
  889loPI    C212524  14.696  11.921   5.058  0.0644  0.0157  0.2544
  889loPI    C312525  14.888  11.613   4.890  0.2920  0.1351  0.2905
  889loPI   PO412526  14.686  11.605   5.554 -0.1082  0.1262  0.1419
  889loPI   GL112527  14.810  11.349   5.876  0.1150  0.0189 -0.2948
  889loPI   GL212528  14.961  11.062   5.916  0.5987  0.1889 -0.0183
  889loPI   C1A12529  14.599  11.275   6.300  0.0331  0.1353 -0.0798
  889loPI   C2A12530  14.501  11.356   6.729  0.0160  0.0178  0.1649
  889loPI   C3A12531  14.519  11.554   7.196 -0.1009  0.7288  0.2812
  889loPI   C4A12532  14.462  11.556   7.572 -0.0456  0.3440 -0.3586
  889loPI   C5A12533  14.627  11.867   7.978 -0.1753  0.2129  0.1401
  889loPI   C6A12534  14.836  12.007   8.354 -0.3887 -0.2115 -0.1763
  889loPI   C1B12535  15.061  11.155   6.332 -0.2445  0.3544  0.2389
  889loPI   C2B12536  14.882  11.045   6.702 -0.4043 -0.1122  0.1036
  889loPI   C3B12537  14.837  11.049   7.140  0.0029  0.0599 -0.4448
  889loPI   C4B12538  14.559  11.079   7.460 -0.4476 -0.3372 -0.0640
  890loPI    C112539   2.004   6.169   5.641  0.3117  0.1279  0.0929
  890loPI    C212540   2.246   5.855   5.592 -0.2943 -0.3566  0.0881
  890loPI    C312541   2.102   6.049   5.273 -0.1109 -0.2215  0.0861
  890loPI   PO412542   2.152   6.347   5.940 -0.1741 -0.1142  0.5838
  890loPI   GL112543   2.154   6.757   6.164  0.0244  0.1908 -0.1002
  890loPI   GL212544   1.969   7.025   6.121 -0.1971 -0.1000  0.0940
  890loPI   C1A12545   2.163   6.722   6.578 -0.1412  0.1050  0.0180
  890loPI   C2A12546   2.267   6.569   6.957 -0.2208 -0.1499 -0.4786
  890loPI   C3A12547   2.071   6.612   7.248  0.0698 -0.0571  0.1438
  890loPI   C4A12548   1.722   6.614   7.388 -0.0766  0.0175  0.1421
  890loPI   C5A12549   1.471   6.810   7.756  0.1688  0.1532  0.2451
  890loPI   C6A12550   1.529   6.895   8.117 -0.2232 -0.0205  0.3220
  890loPI   C1B12551   2.093   7.203   6.406  0.0445  0.0423 -0.0858
  890loPI   C2B12552   2.130   7.488   6.771 -0.0707 -0.1172  0.2379
  890loPI   C3B12553   2.259   7.482   7.142 -0.1697 -0.0823  0.0835
  890loPI   C4B12554   2.443   7.468   7.472  0.0891 -0.0274  0.2831
  891loPI    C112555  13.001  12.848   5.601 -0.2904  0.0703 -0.0307
  891loPI    C212556  13.146  12.653   5.284  0.0574 -0.2241  0.2994
  891loPI    C312557  13.222  13.043   5.330 -0.2826 -0.0964 -0.1454
  891loPI   PO412558  13.022  12.708   5.716  0.1827  0.2427 -0.2126
  891loPI   GL112559  12.919  12.453   6.166  0.2202  0.3612  0.0905
  891loPI   GL212560  13.169  12.181   6.033 -0.1939 -0.2462  0.0957
  891loPI   C1A12561  12.953  12.483   6.639  0.0403  0.1198  0.1878
  891loPI   C2A12562  12.909  12.495   7.063  0.0303 -0.2149 -0.0732
  891loPI   C3A12563  13.059  12.712   7.412 -0.1499  0.2862 -0.1152
  891loPI   C4A12564  13.091  12.834   7.856 -0.2139 -0.0987 -0.0195
  891loPI   C5A12565  13.146  12.435   8.133  0.1707 -0.1190  0.0220
  891loPI   C6A12566  13.431  12.217   8.327 -0.1523  0.7483  0.3534
  891loPI   C1B12567  13.345  12.187   6.450  0.1187  0.1135 -0.2462
  891loPI   C2B12568  13.335  12.264   6.853  0.0581  0.2569 -0.0581
  891loPI   C3B12569  13.461  12.424   7.269  0.1105 -0.0182 -0.1638
  891loPI   C4B12570  13.281  12.289   7.619  0.1160 -0.0891  0.2284
  892loPI    C112571  13.821  17.314   5.641 -0.0493  0.0237 -0.0021
  892loPI    C212572  13.580  17.280   5.958  0.0364  0.1135  0.0736
  892loPI    C312573  13.431  17.393   5.604 -0.0680 -0.0355  0.0693
  892loPI   PO412574  14.060  17.265   5.798 -0.1683  0.0091  0.4433
  892loPI   GL112575  14.380  17.108   6.185 -0.2820  0.1805 -0.0354
  892loPI   GL212576  14.319  16.784   6.280 -0.0908  0.0473 -0.1174
  892loPI   C1A12577  14.393  17.166   6.630  0.0504  0.1605  0.1914
  892loPI   C2A12578  14.440  17.214   6.929 -0.0259  0.0933 -0.2129
  892loPI   C3A12579  14.491  17.412   7.336 -0.2669  0.4111 -0.1238
  892loPI   C4A12580  14.392  17.620   7.726 -0.0919  0.3717  0.0586
  892loPI   C5A12581  14.141  17.774   8.075  0.1715 -0.0739 -0.1260
  892loPI   C6A12582  14.095  17.578   8.567  0.1159  0.2105 -0.0581
  892loPI   C1B12583  14.209  16.748   6.732  0.0891 -0.1758 -0.0813
  892loPI   C2B12584  14.110  16.889   7.162  0.0579 -0.1390  0.0109
  892loPI   C3B12585  14.083  17.191   7.477  0.1047 -0.0987  0.0489
  892loPI   C4B12586  13.945  17.348   7.841 -0.0839  0.1607  0.2109
  893loPI    C112587  12.779  10.175   5.096 -0.0864  0.0554 -0.1384
  893loPI    C212588  12.570  10.516   5.102  0.0371  0.1310 -0.0849
  893loPI    C312589  12.536  10.266   4.792 -0.1078  0.1574 -0.0913
  893loPI   PO412590  12.907  10.200   5.347 -0.2238 -0.0250 -0.1286
  893loPI   GL112591  12.889   9.901   5.774  0.0042  0.0912 -0.2116
  893loPI   GL212592  12.764   9.691   5.974 -0.3295  0.2326 -0.1829
  893loPI   C1A12593  12.958  10.102   6.185  0.4390 -0.0993  0.1435
  893loPI   C2A12594  13.075  10.218   6.548 -0.0914 -0.2506  0.1456
  893loPI   C3A12595  13.443  10.224   6.716 -0.1051  0.0670 -0.1194
  893loPI   C4A12596  13.572  10.407   7.047  0.3017 -0.1368  0.1500
  893loPI   C5A12597  13.900  10.580   7.282 -0.2421  0.1878 -0.2475
  893loPI   C6A12598  14.214  10.700   7.476 -0.0693  0.1253 -0.0472
  893loPI   C1B12599  12.676   9.571   6.448  0.3943  0.0887  0.2502
  893loPI   C2B12600  12.619   9.591   6.965  0.0336 -0.2333 -0.0021
  893loPI   C3B12601  12.438   9.576   7.408 -0.5151 -0.0393  0.0216
  893loPI   C4B12602  12.227   9.363   7.724  0.0509 -0.0032  0.0885
  894loPI    C112603  12.167  13.752   5.667 -0.1519 -0.0422  0.0246
  894loPI    C212604  12.206  13.853   5.282  0.0652  0.0780  0.0761
  894loPI    C312605  12.467  13.991   5.551 -0.2209  0.1850  0.3035
  894loPI   PO412606  12.097  13.537   5.722 -0.0221  0.1155  0.0799
  894loPI   GL112607  11.979  13.357   6.072  0.1179 -0.2549  0.1974
  894loPI   GL212608  12.165  13.674   6.200 -0.3382  0.0484  0.2736
  894loPI   C1A12609  11.860  13.266   6.511  0.1210 -0.0100 -0.2443
  894loPI   C2A12610  11.842  13.295   6.934 -0.0887  0.0222 -0.0015
  894loPI   C3A12611  11.741  13.328   7.385 -0.2529 -0.1618  0.0023
  894loPI   C4A12612  11.691  13.309   7.743 -0.0876  0.0229 -0.0740
  894loPI   C5A12613  11.675  13.367   8.190  0.0575 -0.1338 -0.0550
  894loPI   C6A12614  11.836  13.252   8.514  0.2323 -0.0235  0.1141
  894loPI   C1B12615  12.408  13.911   6.582  0.1332  0.1302  0.1573
  894loPI   C2B12616  12.475  13.863   6.950 -0.2266 -0.1278  0.1076
  894loPI   C3B12617  12.432  13.866   7.457 -0.1064  0.1535 -0.0701
  894loPI   C4B12618  12.451  13.915   7.838 -0.0603  0.3811  0.1055
  895loPI    C112619  10.352  17.911   5.860  0.0439  0.0709 -0.0273
  895loPI    C212620  10.431  17.779   5.491  0.0950  0.1192 -0.0338
  895loPI    C312621  10.192  17.568   5.732 -0.1343  0.2081 -0.1797
  895loPI   PO412622  10.144  18.169   5.790 -0.2244  0.0865  0.1582
  895loPI   GL112623  10.061  18.482   6.091 -0.3512 -0.2492  0.0370
  895loPI   GL212624   9.851  18.731   6.064  0.0097  0.0812  0.0255
  895loPI   C1A12625  10.145  18.430   6.556  0.2217  0.1695  0.0657
  895loPI   C2A12626  10.173  18.515   6.904 -0.2484  0.1358 -0.0654
  895loPI   C3A12627  10.191  18.481   7.336 -0.2742  0.3775  0.1415
  895loPI   C4A12628   9.962  18.379   7.696 -0.0687  0.2012 -0.0225
  895loPI   C5A12629   9.769  18.440   8.092  0.1012 -0.0847 -0.0952
  895loPI   C6A12630   9.729  18.326   8.540  0.0335  0.1216  0.1012
  895loPI   C1B12631   9.938  18.856   6.449 -0.0660  0.4974 -0.0085
  895loPI   C2B12632  10.177  19.002   6.829  0.0535 -0.2232 -0.0619
  895loPI   C3B12633  10.199  19.000   7.298  0.4855 -0.2852 -0.1216
  895loPI   C4B12634  10.021  18.912   7.661  0.1253 -0.0289  0.0629
  896loPI    C112635  13.135   0.308   5.927  0.1396 -0.2460 -0.1186
  896loPI    C212636  13.535   0.303   5.944  0.1365 -0.3691 -0.0724
  896loPI    C312637  13.350   0.484   5.639  0.2257 -0.2201 -0.0393
  896loPI   PO412638  13.010   0.093   5.970  0.1997 -0.0525  0.0556
  896loPI   GL112639  12.805  -0.070   6.257  0.0452 -0.1282  0.0520
  896loPI   GL212640  12.579  -0.296   6.165  0.0017 -0.0616 -0.0418
  896loPI   C1A12641  12.761   0.053   6.684  0.2236  0.1403  0.2380
  896loPI   C2A12642  12.590  -0.028   7.096  0.1120  0.1507  0.1019
  896loPI   C3A12643  12.428  -0.033   7.505  0.1675  0.1147 -0.0329
  896loPI   C4A12644  12.253   0.086   7.962  0.0806  0.1920  0.2872
  896loPI   C5A12645  12.035   0.305   8.210 -0.2971 -0.0490 -0.0150
  896loPI   C6A12646  11.877   0.649   8.215 -0.0553  0.0550 -0.0547
  896loPI   C1B12647  12.687  -0.436   6.565  0.1587  0.3051 -0.1053
  896loPI   C2B12648  12.764  -0.568   6.991 -0.0145  0.2838  0.0130
  896loPI   C3B12649  12.691  -0.472   7.479 -0.0686 -0.0715  0.1264
  896loPI   C4B12650  12.457  -0.435   7.849 -0.1235  0.1554  0.0789
  897loPI    C112651  16.261   7.158   5.450 -0.1148  0.0029 -0.1434
  897loPI    C212652  16.415   7.527   5.428 -0.1146  0.0064 -0.0814
  897loPI    C312653  16.454   7.276   5.120  0.0916 -0.0220 -0.0335
  897loPI   PO412654  16.020   7.231   5.671  0.1253  0.1764 -0.0498
  897loPI   GL112655  15.710   7.280   6.083  0.1293 -0.0907 -0.0327
  897loPI   GL212656  15.423   7.050   6.200  0.0285  0.1099 -0.0100
  897loPI   C1A12657  15.814   7.367   6.444 -0.0620 -0.0055  0.1057
  897loPI   C2A12658  15.854   7.416   6.868 -0.0297 -0.2094  0.0655
  897loPI   C3A12659  15.723   7.459   7.337  0.0089 -0.0467  0.1481
  897loPI   C4A12660  15.643   7.495   7.733 -0.0489 -0.2320 -0.1907
  897loPI   C5A12661  15.540   7.379   8.113  0.0273 -0.2031  0.0304
  897loPI   C6A12662  15.365   7.393   8.516 -0.1259 -0.1360  0.0717
  897loPI   C1B12663  15.336   6.960   6.618  0.1098 -0.1182 -0.0441
  897loPI   C2B12664  15.359   6.841   7.041 -0.2447  0.1922  0.0223
  897loPI   C3B12665  15.368   7.103   7.467 -0.0522  0.1758 -0.2675
  897loPI   C4B12666  15.481   7.012   7.863  0.0835  0.5076  0.4475
  898loPI    C112667   2.094   1.563   5.629  0.3272 -0.1794  0.1217
  898loPI    C212668   2.100   1.173   5.541  0.1466 -0.1561  0.0007
  898loPI    C312669   1.964   1.436   5.273  0.3825  0.0037  0.0351
  898loPI   PO412670   1.981   1.509   5.902 -0.0566 -0.0484  0.0467
  898loPI   GL112671   1.961   1.281   6.222  0.2280 -0.0384 -0.1380
  898loPI   GL212672   1.821   1.073   6.391  0.1020  0.0688 -0.2111
  898loPI   C1A12673   1.840   1.541   6.530 -0.0325 -0.0222  0.0249
  898loPI   C2A12674   1.881   1.488   6.945  0.1909  0.2725  0.0318
  898loPI   C3A12675   1.970   1.315   7.304 -0.0769 -0.3291 -0.0859
  898loPI   C4A12676   2.224   1.372   7.676 -0.0641 -0.4286  0.0632
  898loPI   C5A12677   2.471   1.516   7.982  0.1341 -0.1560 -0.0732
  898loPI   C6A12678   2.609   1.654   8.375 -0.4419 -0.1735  0.2685
  898loPI   C1B12679   1.647   1.046   6.836 -0.1667 -0.5193 -0.0732
  898loPI   C2B12680   1.527   1.088   7.302  0.2016  0.1231  0.3439
  898loPI   C3B12681   1.578   1.099   7.719  0.2878 -0.1017 -0.0741
  898loPI   C4B12682   1.417   1.348   8.052  0.0967  0.0603  0.1524
  899loPI    C112683   7.915  11.647   5.752  0.0467 -0.1076  0.1916
  899loPI    C212684   7.551  11.552   5.613  0.0864  0.2124 -0.1474
  899loPI    C312685   7.755  11.855   5.450  0.3866  0.2238  0.2332
  899loPI   PO412686   7.813  11.720   6.042  0.0227  0.0311 -0.1991
  899loPI   GL112687   7.854  11.541   6.398  0.0751 -0.2361  0.0472
  899loPI   GL212688   7.626  11.780   6.489 -0.3137 -0.0283 -0.3643
  899loPI   C1A12689   8.057  11.606   6.802  0.0942 -0.3972  0.4818
  899loPI   C2A12690   8.212  11.605   7.201  0.0957  0.0981  0.0562
  899loPI   C3A12691   8.460  11.564   7.596 -0.1466 -0.0846 -0.0953
  899loPI   C4A12692   8.640  11.516   7.988  0.0482  0.1473 -0.0762
  899loPI   C5A12693   9.039  11.231   8.203 -0.2478 -0.0486  0.0351
  899loPI   C6A12694   9.486  11.253   8.343 -0.4504 -0.0787 -0.0494
  899loPI   C1B12695   7.682  11.905   7.043 -0.2623  0.0574 -0.2594
  899loPI   C2B12696   7.951  11.981   7.348 -0.1575  0.0906  0.1212
  899loPI   C3B12697   8.021  12.218   7.579  0.2586  0.4069  0.0900
  899loPI   C4B12698   8.325  12.359   7.703 -0.1498 -0.2920 -0.0793
  900loPI    C112699   6.319   7.898   5.248  0.1194  0.1890 -0.0767
  900loPI    C212700   6.546   7.569   5.227  0.1713  0.2132  0.0888
  900loPI    C312701   6.221   7.602   4.997  0.1685  0.0483  0.0677
  900loPI   PO412702   6.385   7.979   5.507 -0.1601 -0.1470  0.0122
  900loPI   GL112703   6.403   8.181   5.985  0.3668 -0.2917 -0.0749
  900loPI   GL212704   6.506   7.904   6.056  0.1259 -0.0785 -0.1220
  900loPI   C1A12705   6.268   8.084   6.427  0.3024  0.3336  0.1570
  900loPI   C2A12706   6.220   7.912   6.849 -0.2915  0.1050  0.0365
  900loPI   C3A12707   6.433   7.952   7.290 -0.0244 -0.0096 -0.1199
  900loPI   C4A12708   6.458   7.993   7.713 -0.1251 -0.1155  0.3784
  900loPI   C5A12709   6.371   7.807   8.003  0.1529 -0.1274  0.2014
  900loPI   C6A12710   6.760   7.825   8.290  0.2041  0.0789 -0.1250
  900loPI   C1B12711   6.614   7.736   6.555  0.1249  0.1258  0.0951
  900loPI   C2B12712   6.765   7.791   6.961 -0.1765  0.0618  0.0660
  900loPI   C3B12713   6.843   7.723   7.426 -0.1036  0.0870  0.2311
  900loPI   C4B12714   6.797   7.647   7.849 -0.3492 -0.1631 -0.1132
  901loPI    C112715   0.860   0.221   5.644  0.1607 -0.3312  0.1175
  901loPI    C212716   1.096   0.194   5.322  0.0306 -0.2859  0.0174
  901loPI    C312717   0.705   0.265   5.277  0.0608  0.0100  0.1972
  901loPI   PO412718   0.878   0.027   5.828 -0.4108  0.1541  0.2376
  901loPI   GL112719   0.741  -0.332   5.957 -0.2481  0.0364 -0.0538
  901loPI   GL212720   0.551  -0.402   6.240 -0.2139 -0.4291  0.1422
  901loPI   C1A12721   1.048  -0.237   6.371  0.2297  0.2122  0.1790
  901loPI   C2A12722   0.963  -0.259   6.781  0.2099 -0.1651  0.2074
  901loPI   C3A12723   0.892  -0.313   7.164  0.1437 -0.1064 -0.1373
  901loPI   C4A12724   1.112  -0.271   7.674  0.4124  0.2923  0.2109
  901loPI   C5A12725   1.049  -0.108   8.009 -0.0404 -0.1549 -0.1278
  901loPI   C6A12726   0.683  -0.013   8.308 -0.0062 -0.0426 -0.2630
  901loPI   C1B12727   0.346  -0.337   6.746  0.0334  0.0731  0.1508
  901loPI   C2B12728   0.220  -0.249   7.210 -0.1768  0.3565 -0.0332
  901loPI   C3B12729   0.139  -0.213   7.644  0.0568  0.1429 -0.2476
  901loPI   C4B12730   0.165  -0.377   8.131  0.2317  0.1509  0.0535
  902loPI    C112731  14.649   4.488   5.632  0.1435 -0.2596  0.0712
  902loPI    C212732  14.830   4.552   5.281  0.1546 -0.0739  0.1098
  902loPI    C312733  14.653   4.855   5.474 -0.1398 -0.2391  0.1058
  902loPI   PO412734  14.502   4.343   5.637  0.3126  0.2440  0.0765
  902loPI   GL112735  14.481   4.224   6.042 -0.2975  0.0015  0.2910
  902loPI   GL212736  14.745   4.379   6.142 -0.1089 -0.0230  0.0315
  902loPI   C1A12737  14.355   4.036   6.461  0.2470 -0.4974  0.0982
  902loPI   C2A12738  14.267   3.861   6.806  0.3052  0.1168  0.0655
  902loPI   C3A12739  14.008   3.748   7.204 -0.0291  0.1627 -0.1448
  902loPI   C4A12740  14.088   3.665   7.640 -0.0691  0.2759 -0.0005
  902loPI   C5A12741  14.225   3.374   7.996 -0.1167  0.4684 -0.0110
  902loPI   C6A12742  14.201   3.164   8.440 -0.1202 -0.4757 -0.0269
  902loPI   C1B12743  14.809   4.329   6.638 -0.0672  0.0114  0.1531
  902loPI   C2B12744  14.844   4.255   7.039 -0.0444 -0.0527 -0.0335
  902loPI   C3B12745  14.956   4.443   7.360  0.2085  0.0476  0.1388
  902loPI   C4B12746  15.326   4.452   7.647 -0.1781 -0.0005 -0.1804
  903loPI    C112747   8.068   0.037   6.144 -0.2308 -0.3206 -0.0519
  903loPI    C212748   7.843   0.259   5.899 -0.0037  0.0659  0.0810
  903loPI    C312749   7.685   0.107   6.233 -0.1840 -0.0475 -0.0543
  903loPI   PO412750   8.221   0.148   6.244 -0.0669  0.1717  0.0869
  903loPI   GL112751   8.082   0.330   6.718 -0.1384  0.2593  0.1409
  903loPI   GL212752   7.824   0.497   6.590  0.0875 -0.0054  0.1831
  903loPI   C1A12753   8.186   0.154   7.164  0.3754 -0.2276  0.0290
  903loPI   C2A12754   8.306   0.142   7.561  0.2600  0.0747 -0.1277
  903loPI   C3A12755   8.344   0.137   8.018  0.3745 -0.0644  0.1405
  903loPI   C4A12756   8.250   0.363   8.383  0.0683 -0.2405 -0.1717
  903loPI   C5A12757   8.426   0.295   8.820  0.0871 -0.1338  0.0302
  903loPI   C6A12758   8.404   0.233   9.262  0.3832 -0.2798 -0.2001
  903loPI   C1B12759   7.951   0.544   7.129 -0.2852 -0.0509  0.1278
  903loPI   C2B12760   7.966   0.620   7.462  0.1227  0.1384 -0.1045
  903loPI   C3B12761   8.035   0.548   7.934  0.2671 -0.0104 -0.0290
  903loPI   C4B12762   8.020   0.806   8.316 -0.2011  0.2201  0.2481
  904loPI    C112763   4.839  17.975   6.094 -0.1642 -0.0777 -0.1779
  904loPI    C212764   5.069  18.182   5.841  0.0931  0.0002  0.1133
  904loPI    C312765   4.760  17.970   5.702  0.1362  0.1646 -0.2459
  904loPI   PO412766   4.990  17.913   6.230 -0.1736  0.1136  0.2567
  904loPI   GL112767   5.101  17.636   6.528 -0.2723 -0.0232  0.0013
  904loPI   GL212768   5.365  17.858   6.547  0.1220  0.0043  0.1452
  904loPI   C1A12769   5.336  17.451   6.822 -0.0457 -0.3067  0.0019
  904loPI   C2A12770   5.334  17.421   7.313  0.2653 -0.1617 -0.1664
  904loPI   C3A12771   5.365  17.523   7.815 -0.0398  0.0633 -0.0269
  904loPI   C4A12772   5.021  17.631   8.097  0.0018 -0.0489  0.0301
  904loPI   C5A12773   4.628  17.829   8.400  0.0827  0.1615 -0.1729
  904loPI   C6A12774   4.277  18.108   8.481 -0.0736 -0.1539 -0.0497
  904loPI   C1B12775   5.296  17.979   6.945  0.4346 -0.2850  0.0956
  904loPI   C2B12776   5.366  17.929   7.320  0.2474 -0.1144  0.2328
  904loPI   C3B12777   5.102  18.114   7.704 -0.0732 -0.2367  0.1122
  904loPI   C4B12778   4.740  18.053   7.951  0.0611 -0.1494 -0.1078
  905loPI    C112779   1.510  10.065   5.608 -0.0676  0.0732  0.0121
  905loPI    C212780   1.583   9.691   5.488 -0.3737 -0.0084  0.0709
  905loPI    C312781   1.399   9.947   5.242  0.0960  0.1967 -0.0788
  905loPI   PO412782   1.534  10.087   5.837 -0.0602 -0.1390 -0.5457
  905loPI   GL112783   1.650   9.764   6.113  0.1078  0.0174 -0.2198
  905loPI   GL212784   1.338   9.593   6.111  0.2091 -0.3016 -0.2354
  905loPI   C1A12785   1.844   9.794   6.482  0.0065  0.0977  0.0879
  905loPI   C2A12786   1.936   9.694   6.845  0.0828  0.0438 -0.0677
  905loPI   C3A12787   2.008   9.843   7.258 -0.0001  0.1118 -0.3960
  905loPI   C4A12788   2.025   9.653   7.573 -0.1928 -0.1042  0.2658
  905loPI   C5A12789   2.036   9.358   7.964 -0.2855  0.0632  0.0403
  905loPI   C6A12790   1.768   9.312   8.262 -0.0974 -0.2739  0.0594
  905loPI   C1B12791   1.436   9.530   6.541  0.1713  0.0206 -0.3423
  905loPI   C2B12792   1.474   9.397   6.983  0.2300  0.2588 -0.0291
  905loPI   C3B12793   1.659   9.473   7.340 -0.3044  0.0552  0.1775
  905loPI   C4B12794   1.534   9.443   7.769  0.2667  0.0170  0.1012
  906loPI    C112795   8.448  17.506   5.835  0.1354  0.1007 -0.0662
  906loPI    C212796   8.152  17.312   5.649 -0.0602  0.1849  0.1522
  906loPI    C312797   8.410  17.534   5.438 -0.1779  0.1463 -0.0350
  906loPI   PO412798   8.513  17.334   5.982 -0.1490 -0.0305  0.2812
  906loPI   GL112799   8.575  17.294   6.429 -0.1435  0.3368  0.2120
  906loPI   GL212800   8.776  17.149   6.480 -0.3214  0.3313 -0.3732
  906loPI   C1A12801   8.470  17.292   6.882  0.0271 -0.0794 -0.2127
  906loPI   C2A12802   8.497  17.249   7.264  0.0052 -0.1168 -0.0971
  906loPI   C3A12803   8.398  17.262   7.717 -0.0019  0.0258  0.1489
  906loPI   C4A12804   8.302  17.143   8.057 -0.0349 -0.0375 -0.0094
  906loPI   C5A12805   7.914  16.888   8.274 -0.0481 -0.2731  0.2003
  906loPI   C6A12806   7.735  16.583   8.559  0.1496  0.0702  0.1264
  906loPI   C1B12807   8.715  16.790   6.723  0.2110 -0.0048 -0.0311
  906loPI   C2B12808   8.573  16.387   6.960  0.2479 -0.1754  0.0392
  906loPI   C3B12809   8.399  16.318   7.359  0.0404  0.1307  0.3323
  906loPI   C4B12810   8.236  16.344   7.704 -0.2536 -0.0259 -0.2451
  907loPI    C112811  12.689  10.956   5.270 -0.0503  0.0513  0.1600
  907loPI    C212812  12.977  11.209   5.157  0.1561 -0.1833  0.1508
  907loPI    C312813  12.855  10.921   4.908  0.0086 -0.1701  0.2067
  907loPI   PO412814  12.765  10.955   5.567  0.1503 -0.0870 -0.0467
  907loPI   GL112815  12.590  10.910   5.937  0.4249 -0.0414 -0.0493
  907loPI   GL212816  12.762  11.204   6.121  0.1003  0.0029  0.0693
  907loPI   C1A12817  12.658  10.633   6.208 -0.0617  0.0488 -0.0370
  907loPI   C2A12818  12.650  10.537   6.634  0.0046  0.0332 -0.1674
  907loPI   C3A12819  12.968  10.437   6.977 -0.0584 -0.1719  0.3487
  907loPI   C4A12820  13.113  10.486   7.314  0.0944  0.0396 -0.2047
  907loPI   C5A12821  13.193  10.392   7.839  0.0943  0.0313  0.1105
  907loPI   C6A12822  12.854  10.128   8.081 -0.0516 -0.0668  0.1460
  907loPI   C1B12823  12.814  10.955   6.504 -0.0253 -0.4560 -0.0281
  907loPI   C2B12824  12.755  11.017   6.947  0.4021 -0.1272  0.0003
  907loPI   C3B12825  12.818  10.856   7.392 -0.0719  0.1329 -0.1498
  907loPI   C4B12826  13.000  10.912   7.780  0.0485  0.0091 -0.0389
  908loPI    C112827   1.181  14.612   5.362  0.1116  0.3327  0.1091
  908loPI    C212828   1.181  14.639   4.962  0.1520 -0.3086  0.0553
  908loPI    C312829   0.853  14.737   5.169  0.0644 -0.1635 -0.1487
  908loPI   PO412830   1.216  14.492   5.491  0.3162  0.2314  0.0463
  908loPI   GL112831   1.552  14.380   5.860  0.3233  0.0031  0.0815
  908loPI   GL212832   1.160  14.441   6.006 -0.1532  0.1543 -0.2653
  908loPI   C1A12833   1.510  14.123   6.221 -0.1560  0.0706 -0.0229
  908loPI   C2A12834   1.553  14.113   6.640 -0.1262 -0.0103 -0.0538
  908loPI   C3A12835   1.581  14.177   7.108 -0.1550 -0.2035 -0.1005
  908loPI   C4A12836   1.506  13.996   7.497 -0.4575  0.0139 -0.4105
  908loPI   C5A12837   1.222  13.786   7.827  0.0444 -0.0888 -0.1367
  908loPI   C6A12838   1.020  13.628   8.137  0.0535  0.1639 -0.0449
  908loPI   C1B12839   1.406  14.571   6.371  0.0812 -0.3201  0.1335
  908loPI   C2B12840   1.531  14.756   6.666 -0.1518 -0.1464 -0.1822
  908loPI   C3B12841   1.561  14.726   7.077  0.0511 -0.4245  0.1300
  908loPI   C4B12842   1.593  14.551   7.527 -0.0844  0.0143  0.3929
  909loPI    C112843  17.792   3.206   5.595  0.1157 -0.1057  0.2345
  909loPI    C212844  17.850   2.919   5.322  0.1013 -0.0307  0.1523
  909loPI    C312845  17.661   3.257   5.220 -0.0066 -0.0506  0.2841
  909loPI   PO412846  17.935   3.102   5.829 -0.2352  0.5282 -0.1477
  909loPI   GL112847  17.858   2.889   6.198  0.0005 -0.1962  0.0959
  909loPI   GL212848  17.918   3.166   6.356 -0.1616  0.1495 -0.0265
  909loPI   C1A12849  18.091   2.726   6.645  0.0883 -0.1867  0.1020
  909loPI   C2A12850  18.080   2.902   6.940  0.0911  0.0436  0.3822
  909loPI   C3A12851  18.102   2.916   7.280  0.1487 -0.3139  0.0104
  909loPI   C4A12852  18.108   3.023   7.706 -0.2819  0.2024 -0.0064
  909loPI   C5A12853  17.827   3.298   8.021 -0.0455  0.0833  0.2483
  909loPI   C6A12854  17.791   3.644   8.346  0.1293 -0.0691 -0.0377
  909loPI   C1B12855  17.615   3.042   6.731  0.5025 -0.2350 -0.4074
  909loPI   C2B12856  17.418   3.092   7.144 -0.3708 -0.0002 -0.0072
  909loPI   C3B12857  17.381   3.104   7.612 -0.2146  0.0824 -0.0049
  909loPI   C4B12858  17.500   2.956   7.993  0.1701 -0.3624 -0.0403
  910loPI    C112859  13.420   3.537   5.335  0.1963  0.0367 -0.0355
  910loPI    C212860  13.714   3.806   5.361  0.5957 -0.3795 -0.1093
  910loPI    C312861  13.711   3.541   5.061 -0.0783 -0.1356 -0.3382
  910loPI   PO412862  13.294   3.640   5.576  0.2378  0.2406  0.0789
  910loPI   GL112863  13.147   3.841   5.969  0.0275  0.1937  0.1373
  910loPI   GL212864  13.296   3.929   6.227  0.1858  0.0545  0.2548
  910loPI   C1A12865  12.875   3.601   6.197  0.1458 -0.2811  0.2195
  910loPI   C2A12866  12.556   3.477   6.386 -0.0530 -0.3852 -0.0811
  910loPI   C3A12867  12.370   3.411   6.736  0.1839  0.0766 -0.3679
  910loPI   C4A12868  12.573   3.484   7.097 -0.0574 -0.4674  0.5146
  910loPI   C5A12869  12.704   3.221   7.414 -0.3465  0.1449  0.1381
  910loPI   C6A12870  12.812   3.108   7.913  0.3054  0.3129  0.0811
  910loPI   C1B12871  13.384   4.058   6.663 -0.0401  0.1184  0.1060
  910loPI   C2B12872  13.461   3.918   7.143  0.2771 -0.2547 -0.3547
  910loPI   C3B12873  13.658   4.034   7.513  0.2124 -0.1767  0.0527
  910loPI   C4B12874  13.682   4.065   7.913 -0.1288 -0.0357 -0.0745
  911loPI    C112875  10.342   2.658   5.522 -0.0427  0.0284 -0.3235
  911loPI    C212876   9.970   2.584   5.397 -0.1357 -0.0927  0.0128
  911loPI    C312877  10.184   2.874   5.225 -0.3992  0.0063 -0.1558
  911loPI   PO412878  10.399   2.417   5.708 -0.1598 -0.0617 -0.0835
  911loPI   GL112879  10.519   2.392   6.076  0.1013 -0.1100 -0.3258
  911loPI   GL212880  10.231   2.337   6.163  0.0185  0.1983  0.0715
  911loPI   C1A12881  10.765   2.466   6.398 -0.1113  0.1196  0.0008
  911loPI   C2A12882  10.732   2.801   6.716  0.0526  0.4481  0.0218
  911loPI   C3A12883  10.659   2.659   7.264  0.1364 -0.0315 -0.4099
  911loPI   C4A12884  10.358   2.735   7.526 -0.0748  0.4539  0.2640
  911loPI   C5A12885  10.294   2.800   7.853 -0.0359  0.1220 -0.0959
  911loPI   C6A12886  10.458   2.766   8.231 -0.1161  0.3166 -0.1324
  911loPI   C1B12887  10.333   2.264   6.603  0.2305 -0.1184 -0.2681
  911loPI   C2B12888  10.496   2.310   6.932 -0.0803  0.0950  0.0548
  911loPI   C3B12889  10.102   2.363   7.276  0.0289  0.0452  0.1844
  911loPI   C4B12890  10.001   2.311   7.725 -0.2196 -0.0404 -0.1043
  912loPI    C112891  16.236  16.160   5.544  0.1295 -0.1945  0.0691
  912loPI    C212892  15.961  16.416   5.407  0.2317  0.0394  0.2914
  912loPI    C312893  16.345  16.465   5.309  0.2223 -0.1709  0.1423
  912loPI   PO412894  16.153  16.103   5.839  0.2776 -0.3898  0.3352
  912loPI   GL112895  16.308  16.028   6.255 -0.0497 -0.0825  0.1104
  912loPI   GL212896  16.135  16.292   6.324  0.2254 -0.3569  0.2574
  912loPI   C1A12897  15.954  15.918   6.619 -0.1311 -0.2580 -0.1181
  912loPI   C2A12898  15.894  15.756   7.088  0.0347 -0.2523  0.1463
  912loPI   C3A12899  15.787  15.557   7.471  0.0700 -0.2337 -0.2982
  912loPI   C4A12900  15.529  15.512   7.822  0.0874  0.0277  0.0141
  912loPI   C5A12901  15.663  15.221   8.223  0.1229  0.0624 -0.0107
  912loPI   C6A12902  15.588  14.790   8.192 -0.0907 -0.0842 -0.0549
  912loPI   C1B12903  16.065  16.336   6.826 -0.2416 -0.1063  0.1624
  912loPI   C2B12904  16.191  16.175   7.252 -0.0699  0.0424 -0.4209
  912loPI   C3B12905  16.204  15.828   7.630  0.1501 -0.0011 -0.1440
  912loPI   C4B12906  16.248  15.345   7.664 -0.3418 -0.1405  0.3010
  913loPI    C112907  17.662  16.829   5.914  0.0920 -0.1423  0.0589
  913loPI    C212908  17.694  16.500   5.689  0.4033 -0.1947  0.1750
  913loPI    C312909  18.003  16.752   5.720  0.2433 -0.0072  0.2666
  913loPI   PO412910  17.628  16.721   6.114  0.0165 -0.0544  0.0691
  913loPI   GL112911  17.392  16.845   6.486  0.3379  0.0948  0.0419
  913loPI   GL212912  17.174  16.676   6.447  0.2945  0.1172  0.0785
  913loPI   C1A12913  17.440  16.811   6.893 -0.1015 -0.0751 -0.1574
  913loPI   C2A12914  17.491  16.734   7.328 -0.2308 -0.0935 -0.3512
  913loPI   C3A12915  17.481  16.503   7.689 -0.1288  0.1390 -0.0658
  913loPI   C4A12916  17.703  16.246   7.967 -0.0838  0.0784  0.3671
  913loPI   C5A12917  18.081  15.982   8.137 -0.2263  0.0583 -0.1669
  913loPI   C6A12918  18.413  15.888   8.397 -0.3824  0.0964  0.0516
  913loPI   C1B12919  16.984  16.622   6.785 -0.1829  0.0193  0.3754
  913loPI   C2B12920  16.973  16.607   7.187  0.0579 -0.1049 -0.0177
  913loPI   C3B12921  16.735  16.530   7.564  0.0196  0.1647  0.1210
  913loPI   C4B12922  16.597  16.167   7.660 -0.0692 -0.4846  0.2558
  914loPI    C112923   0.933  13.936   5.956  0.0829 -0.0530 -0.2098
  914loPI    C212924   0.857  13.880   5.567  0.1642 -0.1219 -0.2161
  914loPI    C312925   1.219  14.004   5.685  0.1012  0.0223 -0.1718
  914loPI   PO412926   0.748  14.117   6.060  0.0617 -0.0493  0.0209
  914loPI   GL112927   0.961  14.289   6.437  0.1826 -0.1961 -0.2380
  914loPI   GL212928   0.712  14.417   6.577  0.1498 -0.1515  0.0542
  914loPI   C1A12929   1.198  14.393   6.808 -0.1806  0.1203 -0.1573
  914loPI   C2A12930   1.174  14.338   7.300  0.2643 -0.0573 -0.0374
  914loPI   C3A12931   1.145  14.309   7.736 -0.1965 -0.1920  0.2260
  914loPI   C4A12932   1.087  14.131   8.155  0.0562 -0.2573  0.0666
  914loPI   C5A12933   0.955  14.012   8.614 -0.0755 -0.1204  0.0974
  914loPI   C6A12934   0.553  13.912   8.733  0.3513  0.2051 -0.0617
  914loPI   C1B12935   0.739  14.329   6.998  0.1051  0.2240  0.3823
  914loPI   C2B12936   0.722  14.147   7.362  0.1840 -0.3212  0.1662
  914loPI   C3B12937   0.567  14.076   7.843 -0.2890  0.3157  0.1486
  914loPI   C4B12938   0.484  14.074   8.272  0.1274 -0.5117 -0.0008
  915loPI    C112939  16.260   6.000   5.781 -0.1075 -0.1889 -0.1585
  915loPI    C212940  15.960   5.744   5.844 -0.1414 -0.0553  0.2534
  915loPI    C312941  16.328   5.606   5.770 -0.2225 -0.2202  0.1505
  915loPI   PO412942  16.165   6.194   5.979  0.0563  0.1427 -0.0188
  915loPI   GL112943  15.950   6.253   6.254 -0.4423  0.1885 -0.2460
  915loPI   GL212944  16.061   6.199   6.550  0.3308  0.1173 -0.0916
  915loPI   C1A12945  15.614   6.052   6.470  0.1895 -0.1471  0.0323
  915loPI   C2A12946  15.729   5.694   6.761  0.0887 -0.3697  0.3968
  915loPI   C3A12947  15.791   5.513   7.132  0.1247  0.1128  0.1928
  915loPI   C4A12948  15.793   5.876   7.339  0.0142 -0.0095 -0.4945
  915loPI   C5A12949  15.758   6.081   7.623 -0.2820 -0.1730 -0.0467
  915loPI   C6A12950  15.566   6.464   7.805  0.1660  0.2545 -0.2478
  915loPI   C1B12951  15.926   6.239   6.976  0.0179 -0.1783 -0.1346
  915loPI   C2B12952  15.656   6.452   7.255 -0.2361 -0.0399  0.1339
  915loPI   C3B12953  15.296   6.180   7.546 -0.0687  0.1715 -0.1231
  915loPI   C4B12954  15.045   6.016   7.938  0.1149 -0.2195  0.0180
  916loPI    C112955  11.725  17.408   5.720  0.1407 -0.2876 -0.0849
  916loPI    C212956  11.500  17.529   5.413  0.0582 -0.2026  0.0084
  916loPI    C312957  11.419  17.182   5.596 -0.1180 -0.0807  0.1647
  916loPI   PO412958  11.970  17.539   5.663 -0.1587 -0.0064 -0.0355
  916loPI   GL112959  12.125  17.804   5.991 -0.0264  0.3931 -0.1415
  916loPI   GL212960  11.839  17.770   6.127 -0.0445  0.1733 -0.1037
  916loPI   C1A12961  12.297  18.110   6.315  0.1773 -0.5350  0.1930
  916loPI   C2A12962  12.347  18.368   6.611  0.1972 -0.0102 -0.1127
  916loPI   C3A12963  12.304  18.701   6.926  0.3230 -0.1046  0.0817
  916loPI   C4A12964  12.231  18.909   7.310  0.2896  0.0116 -0.0778
  916loPI   C5A12965  12.199  18.742   7.715  0.2530 -0.0469 -0.1451
  916loPI   C6A12966  12.420  18.718   8.100 -0.2450 -0.0788  0.0388
  916loPI   C1B12967  11.722  17.645   6.478  0.0894 -0.1427  0.1283
  916loPI   C2B12968  11.624  17.551   6.773 -0.0690 -0.0488 -0.2983
  916loPI   C3B12969  11.757  17.510   7.131 -0.1027 -0.1291 -0.0078
  916loPI   C4B12970  11.639  17.480   7.533  0.1357 -0.0068  0.2549
  917loPI    C112971   8.385   6.010   5.061  0.3555  0.0801  0.0061
  917loPI    C212972   8.413   5.641   4.909 -0.0042  0.0490  0.0074
  917loPI    C312973   8.446   5.960   4.669 -0.1170  0.0082 -0.0630
  917loPI   PO412974   8.366   5.922   5.340  0.0642  0.0837  0.0344
  917loPI   GL112975   8.605   6.080   5.695 -0.3683  0.1275  0.2406
  917loPI   GL212976   8.608   5.867   6.016  0.0675  0.0091  0.1777
  917loPI   C1A12977   8.939   6.231   5.941 -0.0932 -0.0299  0.1398
  917loPI   C2A12978   8.962   6.214   6.367 -0.1322  0.0611  0.3937
  917loPI   C3A12979   8.974   6.202   6.851 -0.1905  0.0751 -0.0958
  917loPI   C4A12980   8.988   6.287   7.291 -0.1287  0.2175 -0.2163
  917loPI   C5A12981   9.059   6.411   7.734 -0.0145 -0.2096  0.0294
  917loPI   C6A12982   9.225   6.676   8.051  0.3407 -0.0832  0.3281
  917loPI   C1B12983   8.646   5.811   6.423  0.0723  0.2548 -0.6472
  917loPI   C2B12984   8.621   5.771   6.879 -0.0764 -0.1081  0.4257
  917loPI   C3B12985   8.587   5.930   7.124 -0.1734 -0.2682  0.0514
  917loPI   C4B12986   8.649   6.034   7.539 -0.1161 -0.0250 -0.0729
  918loPI    C112987   5.197   4.575   5.896  0.0511 -0.1876  0.3129
  918loPI    C212988   5.539   4.532   5.693 -0.0441  0.3438  0.0214
  918loPI    C312989   5.203   4.364   5.556 -0.0099  0.2879  0.0059
  918loPI   PO412990   5.318   4.484   6.204  0.4131 -0.0900  0.0571
  918loPI   GL112991   5.419   4.668   6.523  0.0808  0.0410  0.1239
  918loPI   GL212992   5.754   4.664   6.497 -0.0992  0.1554 -0.1164
  918loPI   C1A12993   5.474   4.768   6.930 -0.0932  0.3021 -0.1937
  918loPI   C2A12994   5.521   4.739   7.415  0.3499  0.1063 -0.0812
  918loPI   C3A12995   5.561   4.888   7.843  0.1599  0.3249 -0.0099
  918loPI   C4A12996   5.337   4.805   8.199 -0.2661 -0.0154 -0.3552
  918loPI   C5A12997   5.588   4.745   8.492  0.1509 -0.0282 -0.0862
  918loPI   C6A12998   5.848   4.611   8.894 -0.0610 -0.1059  0.0933
  918loPI   C1B12999   5.920   4.871   6.852 -0.2784 -0.1555 -0.0768
  918loPI   C2B13000   5.983   5.004   7.261 -0.0123  0.1633 -0.0145
  918loPI   C3B13001   5.984   5.036   7.658  0.4803 -0.0842 -0.1063
  918loPI   C4B13002   5.962   5.023   8.108 -0.1203 -0.0876 -0.3487
  919loPI    C113003  15.283  11.260   5.553 -0.1266 -0.3359  0.0302
  919loPI    C213004  15.100  11.268   5.198 -0.0043  0.1799 -0.0286
  919loPI    C313005  15.477  11.138   5.225  0.0359  0.2768 -0.1143
  919loPI   PO413006  15.324  11.475   5.635 -0.2538  0.0178 -0.0868
  919loPI   GL113007  15.400  11.501   6.008  0.3376 -0.1094  0.1723
  919loPI   GL213008  15.541  11.239   5.994  0.0546 -0.0645 -0.0620
  919loPI   C1A13009  15.505  11.339   6.467  0.1389 -0.0891  0.2693
  919loPI   C2A13010  15.583  11.539   6.846 -0.0383  0.0274  0.1709
  919loPI   C3A13011  15.807  11.617   7.201 -0.0341  0.1254 -0.1093
  919loPI   C4A13012  15.863  11.582   7.581 -0.1427  0.1218  0.0055
  919loPI   C5A13013  16.194  11.474   7.780  0.0803 -0.0548 -0.2852
  919loPI   C6A13014  16.313  11.073   8.093  0.1198 -0.1476  0.0038
  919loPI   C1B13015  15.841  11.006   6.321  0.1030 -0.0119 -0.0322
  919loPI   C2B13016  15.890  10.970   6.700 -0.3323  0.0304 -0.0668
  919loPI   C3B13017  15.872  11.163   7.034  0.1644 -0.4088  0.1987
  919loPI   C4B13018  16.050  11.208   7.380 -0.5426  0.1418  0.3393
  920loPI    C113019   6.818   3.376   5.723 -0.1141  0.0234  0.2484
  920loPI    C213020   6.554   3.657   5.617 -0.1339 -0.0655  0.0577
  920loPI    C313021   6.628   3.349   5.373 -0.0740 -0.1994  0.2420
  920loPI   PO413022   6.855   3.419   6.008  0.0429 -0.2648  0.0712
  920loPI   GL113023   6.744   3.667   6.476  0.0789  0.3668  0.3250
  920loPI   GL213024   6.508   3.704   6.545 -0.2981 -0.3500 -0.0961
  920loPI   C1A13025   7.018   3.620   6.744  0.3569  0.3405 -0.0136
  920loPI   C2A13026   7.138   3.827   7.079  0.0200  0.0752 -0.1779
  920loPI   C3A13027   7.257   3.782   7.525 -0.1495 -0.1017 -0.0539
  920loPI   C4A13028   7.624   3.823   7.607  0.2331 -0.1291  0.0901
  920loPI   C5A13029   7.819   4.143   7.480  0.1665  0.2438  0.1937
  920loPI   C6A13030   7.919   4.213   7.052 -0.0719 -0.0002  0.2273
  920loPI   C1B13031   6.522   3.802   7.025 -0.0393 -0.2014  0.3274
  920loPI   C2B13032   6.745   3.703   7.364 -0.2102 -0.0448  0.4192
  920loPI   C3B13033   6.810   3.546   7.758  0.3794 -0.0840  0.1420
  920loPI   C4B13034   6.854   3.366   8.176  0.0617 -0.0743  0.0250
  921loPI    C113035   5.445  12.703   5.853 -0.0278  0.1155 -0.1740
  921loPI    C213036   5.492  12.346   5.679  0.1652  0.0743 -0.0413
  921loPI    C313037   5.501  12.680   5.458 -0.1848 -0.0095 -0.1900
  921loPI   PO413038   5.565  12.711   6.082  0.4415  0.1115 -0.3368
  921loPI   GL113039   5.493  12.901   6.573  0.0216  0.1028 -0.2748
  921loPI   GL213040   5.722  13.028   6.510  0.2838 -0.0932  0.3272
  921loPI   C1A13041   5.528  12.722   6.945  0.1462  0.0229 -0.0037
  921loPI   C2A13042   5.593  12.838   7.302 -0.1440  0.2345 -0.0609
  921loPI   C3A13043   5.438  12.869   7.625 -0.1341 -0.0974  0.2587
  921loPI   C4A13044   5.318  12.656   7.924  0.1055  0.1391 -0.0233
  921loPI   C5A13045   5.151  12.335   8.192 -0.1858  0.0426  0.0837
  921loPI   C6A13046   4.831  12.381   8.415  0.2246 -0.2219  0.2188
  921loPI   C1B13047   6.066  13.063   6.869  0.0475 -0.2740 -0.0018
  921loPI   C2B13048   6.092  12.823   7.191 -0.0904  0.0626  0.1083
  921loPI   C3B13049   6.041  12.775   7.613 -0.3827  0.1859 -0.0596
  921loPI   C4B13050   5.831  12.717   7.946  0.0019  0.0181  0.0381
  922loPI    C113051  14.172   1.409   5.503 -0.1296 -0.0378  0.1251
  922loPI    C213052  14.067   1.652   5.203 -0.1851 -0.3051 -0.0749
  922loPI    C313053  14.371   1.396   5.157  0.1812  0.0472  0.2960
  922loPI   PO413054  14.189   1.594   5.743 -0.0499  0.0064  0.0891
  922loPI   GL113055  14.507   1.792   5.961  0.0875  0.0127  0.1790
  922loPI   GL213056  14.443   2.125   6.048 -0.1087  0.1668  0.0121
  922loPI   C1A13057  14.565   1.842   6.424 -0.2869 -0.1234  0.0556
  922loPI   C2A13058  14.383   1.935   6.828  0.0144  0.2046  0.1595
  922loPI   C3A13059  14.281   1.607   7.030 -0.0551  0.0337 -0.0926
  922loPI   C4A13060  14.201   1.412   7.454  0.0120  0.0206 -0.2177
  922loPI   C5A13061  14.366   1.409   7.879 -0.1145  0.0722 -0.1647
  922loPI   C6A13062  14.656   1.049   8.037 -0.2509  0.0270  0.5607
  922loPI   C1B13063  14.562   2.406   6.331  0.3078 -0.0800  0.3040
  922loPI   C2B13064  14.614   2.386   6.733 -0.0065 -0.0047 -0.1473
  922loPI   C3B13065  14.550   2.274   7.159 -0.0370 -0.1849  0.1120
  922loPI   C4B13066  14.544   2.316   7.618  0.3379 -0.2793 -0.0714
  923loPI    C113067   4.073   9.878   6.005 -0.0748 -0.1415 -0.0748
  923loPI    C213068   4.298  10.147   5.813  0.1242 -0.1457  0.1481
  923loPI    C313069   3.971  10.265   6.012  0.0989 -0.0968  0.0777
  923loPI   PO413070   4.199   9.699   6.149 -0.0269 -0.1224 -0.0283
  923loPI   GL113071   4.422   9.649   6.435  0.2489  0.0261  0.0421
  923loPI   GL213072   4.669   9.397   6.286 -0.1603  0.1509 -0.2473
  923loPI   C1A13073   4.693   9.548   6.893 -0.0040 -0.2357 -0.1560
  923loPI   C2A13074   4.670   9.346   7.301  0.0375 -0.1405  0.0081
  923loPI   C3A13075   4.811   8.909   7.487 -0.1827 -0.0241  0.0130
  923loPI   C4A13076   4.723   8.553   7.874  0.2448  0.0973 -0.2154
  923loPI   C5A13077   4.367   8.227   7.968 -0.2363 -0.0095  0.0030
  923loPI   C6A13078   4.114   8.066   8.214  0.1686  0.1910  0.0387
  923loPI   C1B13079   4.829   9.207   6.633 -0.1876  0.0373  0.2674
  923loPI   C2B13080   4.851   8.932   6.931  0.1013  0.2721  0.1951
  923loPI   C3B13081   4.421   8.833   7.019  0.0306 -0.0948  0.0971
  923loPI   C4B13082   4.054   8.769   6.787 -0.2891  0.2659  0.0757
  924loPI    C113083  17.200  10.004   5.563  0.0525  0.0004  0.1050
  924loPI    C213084  17.377   9.919   5.215 -0.1713  0.1655 -0.0521
  924loPI    C313085  17.235   9.624   5.444 -0.2145  0.0683 -0.2029
  924loPI   PO413086  17.351  10.199   5.682  0.0257 -0.0695  0.0249
  924loPI   GL113087  17.688  10.579   5.743 -0.0354 -0.1269 -0.1913
  924loPI   GL213088  17.978  10.402   5.648 -0.1969 -0.2103  0.2388
  924loPI   C1A13089  17.862  10.815   6.082  0.1585 -0.1411  0.1178
  924loPI   C2A13090  17.800  11.126   6.384 -0.2243  0.1647  0.1148
  924loPI   C3A13091  17.733  11.258   6.763 -0.0354  0.0880  0.2265
  924loPI   C4A13092  17.671  11.644   7.020 -0.0778 -0.1739 -0.2200
  924loPI   C5A13093  17.940  11.687   7.397  0.0206 -0.0006 -0.0675
  924loPI   C6A13094  17.982  11.924   7.805 -0.1622 -0.0123 -0.5172
  924loPI   C1B13095  17.768  10.271   6.109  0.1776 -0.1457  0.0862
  924loPI   C2B13096  17.784  10.021   6.450 -0.0627  0.2455 -0.1655
  924loPI   C3B13097  17.762   9.918   6.789 -0.1438  0.0303 -0.0815
  924loPI   C4B13098  18.084   9.764   6.920 -0.1148  0.4046  0.0808
  925loPI    C113099  15.113  12.421   5.406 -0.0822 -0.1137 -0.0717
  925loPI    C213100  14.895  12.709   5.578  0.0721 -0.0797  0.0701
  925loPI    C313101  14.771  12.540   5.237 -0.1703 -0.0555  0.1447
  925loPI   PO413102  15.235  12.263   5.640 -0.2622  0.0758 -0.2139
  925loPI   GL113103  15.251  12.470   5.994 -0.3571  0.0843 -0.1794
  925loPI   GL213104  15.127  12.845   5.995 -0.1359  0.0679 -0.1441
  925loPI   C1A13105  15.206  12.203   6.387  0.0130 -0.0243  0.0173
  925loPI   C2A13106  15.120  12.347   6.854  0.0847 -0.1447  0.0169
  925loPI   C3A13107  15.066  12.184   7.313 -0.2178 -0.2730  0.1404
  925loPI   C4A13108  14.871  11.798   7.390 -0.1808 -0.1502  0.0357
  925loPI   C5A13109  14.928  11.422   7.496 -0.2162 -0.3679 -0.1750
  925loPI   C6A13110  14.998  10.953   7.647 -0.0419 -0.0530  0.1428
  925loPI   C1B13111  15.214  12.770   6.431  0.0051  0.0058  0.0992
  925loPI   C2B13112  15.276  12.857   6.864 -0.0822 -0.1508 -0.2777
  925loPI   C3B13113  15.152  12.780   7.219  0.1082  0.1223 -0.1540
  925loPI   C4B13114  15.029  12.824   7.645 -0.2091 -0.0221 -0.0585
  926loPI    C113115  11.273   5.050   5.579 -0.1673  0.0616 -0.2108
  926loPI    C213116  11.579   5.295   5.659 -0.1744  0.0200 -0.0537
  926loPI    C313117  11.586   5.068   5.330 -0.0212 -0.0046 -0.0342
  926loPI   PO413118  11.126   5.107   5.760 -0.1764 -0.1193  0.0133
  926loPI   GL113119  11.190   5.424   6.122 -0.1070  0.2270 -0.1085
  926loPI   GL213120  11.181   5.678   6.118  0.1038  0.1718 -0.0538
  926loPI   C1A13121  11.024   5.286   6.480  0.2538  0.0499 -0.2255
  926loPI   C2A13122  11.086   5.294   6.838 -0.1594  0.1767 -0.0461
  926loPI   C3A13123  10.991   5.248   7.273 -0.0376 -0.0573  0.0622
  926loPI   C4A13124  10.825   5.403   7.706  0.1128 -0.3828  0.0799
  926loPI   C5A13125  10.744   5.650   8.015 -0.2768  0.0388  0.0995
  926loPI   C6A13126  10.262   5.736   8.117 -0.0576 -0.1301  0.4093
  926loPI   C1B13127  11.184   5.760   6.612 -0.3511 -0.4607  0.0375
  926loPI   C2B13128  11.221   5.676   7.122 -0.0012 -0.2807 -0.3418
  926loPI   C3B13129  11.155   5.662   7.543  0.0854 -0.0528  0.0567
  926loPI   C4B13130  11.089   5.997   7.877 -0.0381 -0.0376 -0.1512
  927loPI    C113131   3.119   6.715   5.461  0.3514 -0.0191  0.0555
  927loPI    C213132   3.334   6.554   5.164  0.0341  0.0135 -0.1971
  927loPI    C313133   3.161   6.912   5.115  0.0698  0.0695  0.0691
  927loPI   PO413134   3.296   6.735   5.700 -0.0098  0.2846 -0.2804
  927loPI   GL113135   3.124   6.550   6.218  0.2725  0.2443  0.2368
  927loPI   GL213136   3.242   6.878   6.179 -0.1601 -0.0234  0.1961
  927loPI   C1A13137   3.047   6.413   6.553 -0.0458 -0.1595  0.2647
  927loPI   C2A13138   3.176   6.176   6.928 -0.1368 -0.0491  0.2777
  927loPI   C3A13139   3.266   5.868   7.052 -0.0789 -0.0505 -0.0154
  927loPI   C4A13140   3.308   5.701   7.444  0.0050 -0.1109  0.1127
  927loPI   C5A13141   3.370   5.568   7.921  0.1664  0.1300  0.3602
  927loPI   C6A13142   3.361   5.283   8.248  0.0288 -0.3913  0.1310
  927loPI   C1B13143   3.067   6.951   6.558 -0.1426 -0.0954 -0.1333
  927loPI   C2B13144   3.172   7.173   6.937  0.0116 -0.1036 -0.1279
  927loPI   C3B13145   3.355   7.088   7.399  0.0008 -0.0687 -0.0904
  927loPI   C4B13146   3.593   6.848   7.715  0.1298  0.3103 -0.0369
  928loPI    C113147   2.369  10.680   5.432  0.2374  0.0693 -0.2527
  928loPI    C213148   2.143  10.903   5.189  0.1973  0.2928 -0.0151
  928loPI    C313149   2.506  10.783   5.071 -0.0060  0.0011 -0.3664
  928loPI   PO413150   2.285  10.740   5.682 -0.1105  0.0284 -0.2358
  928loPI   GL113151   2.062  10.850   5.982 -0.1661 -0.1087  0.1543
  928loPI   GL213152   1.988  11.188   6.048  0.0404  0.1052 -0.0430
  928loPI   C1A13153   2.008  10.779   6.343 -0.1277  0.2548  0.1005
  928loPI   C2A13154   2.021  10.857   6.772  0.0317  0.1457  0.0983
  928loPI   C3A13155   1.699  10.815   7.148 -0.1945 -0.3939 -0.2361
  928loPI   C4A13156   1.672  10.928   7.533 -0.1300 -0.1538 -0.0568
  928loPI   C5A13157   1.554  11.221   7.860 -0.0129  0.2098 -0.0555
  928loPI   C6A13158   1.682  11.603   8.068 -0.0857 -0.0615  0.3345
  928loPI   C1B13159   2.154  11.289   6.460 -0.0965  0.1289 -0.0340
  928loPI   C2B13160   2.097  11.283   6.949  0.3479  0.3292 -0.1268
  928loPI   C3B13161   2.177  11.153   7.393 -0.0859  0.2902  0.1245
  928loPI   C4B13162   2.035  11.171   7.752  0.1270  0.2209 -0.0365
  929loPI    C113163   0.390  14.408   5.783 -0.2194 -0.0619 -0.1359
  929loPI    C213164   0.767  14.372   5.653 -0.1805 -0.2492  0.0241
  929loPI    C313165   0.464  14.244   5.426 -0.1560 -0.0128 -0.1456
  929loPI   PO413166   0.337  14.368   5.993  0.0155 -0.1859 -0.1060
  929loPI   GL113167   0.292  14.097   6.288  0.3608  0.0519  0.1312
  929loPI   GL213168   0.156  13.691   6.183 -0.1233  0.0523 -0.0169
  929loPI   C1A13169   0.260  14.277   6.651  0.0077 -0.2915  0.2004
  929loPI   C2A13170   0.249  14.333   7.025  0.2812  0.2653 -0.0885
  929loPI   C3A13171   0.225  14.177   7.390  0.2481  0.0765 -0.2264
  929loPI   C4A13172   0.230  13.712   7.610 -0.1556 -0.0572 -0.0793
  929loPI   C5A13173   0.111  13.298   7.937  0.2227  0.2172  0.1102
  929loPI   C6A13174   0.316  12.963   8.229 -0.0784  0.0786 -0.2824
  929loPI   C1B13175   0.096  13.728   6.576  0.2241 -0.0490  0.2369
  929loPI   C2B13176   0.047  13.745   6.921 -0.0850 -0.0862  0.0453
  929loPI   C3B13177  -0.181  13.889   7.261  0.0375 -0.3614 -0.3992
  929loPI   C4B13178  -0.383  13.610   7.400  0.0312 -0.2192 -0.0233
  930loPI    C113179   2.556  15.190   5.293  0.1212  0.1706 -0.0484
  930loPI    C213180   2.540  14.905   5.012 -0.0695  0.1020  0.0301
  930loPI    C313181   2.275  15.204   5.008 -0.1017  0.0758  0.1635
  930loPI   PO413182   2.554  15.118   5.531 -0.3160  0.2252  0.2824
  930loPI   GL113183   2.789  14.970   5.991 -0.0740 -0.3969  0.2348
  930loPI   GL213184   2.856  15.261   6.089  0.2941  0.1618 -0.0209
  930loPI   C1A13185   2.408  14.854   6.281  0.0670 -0.0539 -0.0089
  930loPI   C2A13186   2.464  14.841   6.743 -0.2617 -0.0929 -0.0885
  930loPI   C3A13187   2.433  14.795   7.177 -0.2672 -0.0334 -0.0238
  930loPI   C4A13188   2.594  14.678   7.684 -0.0066 -0.1946  0.0948
  930loPI   C5A13189   2.426  14.489   7.995  0.0785  0.0745 -0.0755
  930loPI   C6A13190   2.123  14.256   8.191  0.1503 -0.0134  0.1559
  930loPI   C1B13191   2.730  15.163   6.459 -0.0575 -0.0303 -0.0497
  930loPI   C2B13192   2.832  15.135   6.967 -0.1505  0.0683  0.0404
  930loPI   C3B13193   2.843  15.179   7.407 -0.0349 -0.2295  0.0168
  930loPI   C4B13194   2.782  15.559   7.753  0.1926 -0.0962  0.0521
  931loPI    C113195  15.711  11.765   5.457  0.0261 -0.1724  0.0205
  931loPI    C213196  15.507  11.593   5.160 -0.0051 -0.2298  0.0748
  931loPI    C313197  15.835  11.808   5.079 -0.1034 -0.1119 -0.0154
  931loPI   PO413198  15.589  11.875   5.595 -0.0701 -0.0841 -0.2814
  931loPI   GL113199  15.569  12.019   6.037  0.5540  0.3808 -0.0796
  931loPI   GL213200  15.724  12.248   5.898  0.0682 -0.0569 -0.1123
  931loPI   C1A13201  15.513  11.844   6.398  0.1548  0.2654  0.0818
  931loPI   C2A13202  15.387  11.975   6.805 -0.2785 -0.2728 -0.2984
  931loPI   C3A13203  15.572  12.089   7.179 -0.1063  0.0599 -0.3193
  931loPI   C4A13204  15.498  11.885   7.505 -0.1491 -0.0923 -0.1293
  931loPI   C5A13205  15.294  12.036   7.784  0.0194  0.0803  0.0013
  931loPI   C6A13206  14.832  12.258   7.723  0.0033 -0.2215 -0.1100
  931loPI   C1B13207  15.652  12.402   6.358 -0.0217 -0.4074  0.2235
  931loPI   C2B13208  15.596  12.505   6.833  0.0827 -0.0261  0.0014
  931loPI   C3B13209  15.632  12.613   7.187 -0.0196  0.0016 -0.1259
  931loPI   C4B13210  15.415  12.488   7.600  0.0119 -0.0172 -0.0337
  932loPI    C113211   6.302   5.747   5.304  0.0811 -0.2851  0.3979
  932loPI    C213212   6.131   5.392   5.233 -0.1939 -0.0908  0.0620
  932loPI    C313213   6.224   5.634   4.928 -0.1061  0.1717  0.2933
  932loPI   PO413214   6.456   5.661   5.627  0.1800 -0.3900 -0.3217
  932loPI   GL113215   6.373   5.728   5.986  0.0416  0.0531  0.0408
  932loPI   GL213216   6.157   5.559   6.269  0.3303  0.2569 -0.3529
  932loPI   C1A13217   6.643   5.653   6.352  0.0730 -0.1385  0.1648
  932loPI   C2A13218   6.681   5.599   6.771 -0.4246  0.3143  0.1085
  932loPI   C3A13219   6.834   5.611   7.228  0.0444  0.1309  0.3111
  932loPI   C4A13220   6.800   5.553   7.684  0.0778 -0.2609  0.2706
  932loPI   C5A13221   6.900   5.871   7.879 -0.0135  0.1221 -0.0169
  932loPI   C6A13222   6.735   6.296   7.878 -0.0404  0.0163  0.0675
  932loPI   C1B13223   6.227   5.623   6.683  0.0121 -0.0764  0.0028
  932loPI   C2B13224   6.345   5.869   7.060  0.0481 -0.2179 -0.1482
  932loPI   C3B13225   6.564   5.921   7.495 -0.1305  0.0367  0.1294
  932loPI   C4B13226   6.397   5.816   7.825 -0.0596 -0.0845  0.0802
  933loPI    C113227   5.946  10.896   5.653  0.1647 -0.2523 -0.1456
  933loPI    C213228   6.304  11.067   5.601 -0.0219  0.2136  0.0494
  933loPI    C313229   6.025  11.095   5.315 -0.0635  0.2665  0.0948
  933loPI   PO413230   5.887  11.015   5.939  0.2813  0.0539 -0.0960
  933loPI   GL113231   5.855  11.210   6.258 -0.0898  0.0596  0.1202
  933loPI   GL213232   5.620  10.903   6.377 -0.2557 -0.1393  0.1672
  933loPI   C1A13233   5.741  11.372   6.742  0.0359 -0.2118  0.2154
  933loPI   C2A13234   5.777  11.469   7.176  0.1757  0.0385  0.1261
  933loPI   C3A13235   5.698  11.282   7.510  0.1678  0.0828 -0.1613
  933loPI   C4A13236   5.519  10.916   7.701 -0.1161 -0.0585  0.1341
  933loPI   C5A13237   5.461  10.610   8.066  0.0556  0.1558 -0.0664
  933loPI   C6A13238   5.534  10.176   8.142 -0.2712  0.1125 -0.0271
  933loPI   C1B13239   5.464  10.973   6.776  0.0985  0.0098 -0.2132
  933loPI   C2B13240   5.335  10.933   7.251  0.0734  0.0272  0.1442
  933loPI   C3B13241   5.061  10.762   7.581  0.1676  0.4017  0.0565
  933loPI   C4B13242   4.653  10.809   7.767 -0.1277  0.5177 -0.0338
  934loPI    C113243  14.451  16.685   5.213 -0.0795 -0.0371  0.0297
  934loPI    C213244  14.067  16.612   5.298 -0.0200 -0.2382  0.1326
  934loPI    C313245  14.233  16.451   4.972 -0.0267 -0.1383  0.0795
  934loPI   PO413246  14.536  16.752   5.458  0.0408 -0.1880  0.0019
  934loPI   GL113247  14.586  16.556   5.924 -0.0103  0.1129 -0.2396
  934loPI   GL213248  14.771  16.857   5.968 -0.1218 -0.0871  0.0429
  934loPI   C1A13249  14.675  16.440   6.391  0.0666  0.0727 -0.0237
  934loPI   C2A13250  14.739  16.603   6.763  0.1396  0.2528  0.1019
  934loPI   C3A13251  14.745  16.826   7.095  0.0278  0.3769 -0.0899
  934loPI   C4A13252  14.739  16.974   7.422 -0.1113 -0.3017  0.2927
  934loPI   C5A13253  14.662  17.118   7.808 -0.0670 -0.0960 -0.0481
  934loPI   C6A13254  14.529  17.357   8.122 -0.1637 -0.4904 -0.0305
  934loPI   C1B13255  15.009  16.773   6.381  0.2683 -0.1851 -0.0181
  934loPI   C2B13256  15.119  16.943   6.749 -0.1455  0.1819  0.2154
  934loPI   C3B13257  15.211  16.949   7.130 -0.0224 -0.0641 -0.0987
  934loPI   C4B13258  15.216  17.085   7.530 -0.0522  0.0789  0.2033
  935loPI    C113259  10.990   7.829   5.307 -0.1814 -0.1465  0.0546
  935loPI    C213260  10.748   7.683   5.024 -0.0544  0.0949 -0.1835
  935loPI    C313261  10.930   8.035   4.969  0.0441  0.1013  0.1621
  935loPI   PO413262  10.839   7.787   5.606 -0.0069  0.2850 -0.2380
  935loPI   GL113263  10.989   7.538   5.973  0.2006 -0.1137  0.4557
  935loPI   GL213264  11.231   7.307   6.103  0.3088 -0.0964 -0.0259
  935loPI   C1A13265  11.020   7.701   6.349  0.0060 -0.1344 -0.0789
  935loPI   C2A13266  10.906   7.683   6.758 -0.0107 -0.0594 -0.0528
  935loPI   C3A13267  10.796   7.509   7.155 -0.0723 -0.0347 -0.0328
  935loPI   C4A13268  11.006   7.137   7.355  0.1107  0.2300  0.1276
  935loPI   C5A13269  11.337   7.026   7.211  0.1428 -0.2987  0.1845
  935loPI   C6A13270  11.689   6.806   7.403  0.1115 -0.2295 -0.2910
  935loPI   C1B13271  11.465   7.367   6.520 -0.2262 -0.1142  0.1758
  935loPI   C2B13272  11.648   7.247   6.907 -0.2499  0.2884  0.1299
  935loPI   C3B13273  11.832   6.877   6.961  0.0878  0.3460 -0.1258
  935loPI   C4B13274  11.816   6.568   6.684  0.1277  0.1751  0.0983
  936loPI    C113275  15.744  12.440   5.431 -0.0015  0.2199  0.0949
  936loPI    C213276  15.906  12.262   5.112  0.1438  0.0807  0.2445
  936loPI    C313277  15.525  12.189   5.211  0.0271  0.3016 -0.0275
  936loPI   PO413278  15.939  12.542   5.555 -0.1142  0.0701  0.0818
  936loPI   GL113279  16.074  12.600   5.984 -0.0542  0.0247 -0.0793
  936loPI   GL213280  15.791  12.791   6.047  0.4458 -0.0741  0.0394
  936loPI   C1A13281  16.084  12.655   6.456 -0.1043 -0.0370 -0.0838
  936loPI   C2A13282  16.071  12.682   6.909  0.1722 -0.1122  0.0275
  936loPI   C3A13283  16.108  12.601   7.305  0.1166 -0.1325  0.2826
  936loPI   C4A13284  16.289  12.655   7.779  0.1303  0.2712 -0.0579
  936loPI   C5A13285  16.486  12.573   8.114 -0.1408  0.0516 -0.1370
  936loPI   C6A13286  16.477  12.759   8.568  0.0301  0.0244  0.0947
  936loPI   C1B13287  15.703  12.999   6.421  0.2910  0.1147  0.3831
  936loPI   C2B13288  15.747  13.093   6.847 -0.2226  0.1157  0.2552
  936loPI   C3B13289  15.720  13.083   7.312  0.0708 -0.1911 -0.0667
  936loPI   C4B13290  15.518  13.002   7.731  0.1773 -0.2117 -0.0062
  937loPI    C113291   8.201   3.389   5.910 -0.0028  0.1455  0.1123
  937loPI    C213292   8.557   3.460   5.742  0.0312  0.1120  0.1695
  937loPI    C313293   8.529   3.412   6.138 -0.0446  0.1653  0.1708
  937loPI   PO413294   7.901   3.469   5.792 -0.0761  0.0161  0.1049
  937loPI   GL113295   7.612   3.676   6.043  0.1327 -0.2357  0.0032
  937loPI   GL213296   7.384   3.479   6.290 -0.0719 -0.0150 -0.1782
  937loPI   C1A13297   7.695   4.102   6.223 -0.3181  0.0554 -0.1478
  937loPI   C2A13298   7.693   4.469   6.437  0.2125 -0.0295 -0.3397
  937loPI   C3A13299   7.700   4.687   6.841  0.0631 -0.1295  0.1596
  937loPI   C4A13300   7.689   4.792   7.304  0.0707  0.0146  0.1434
  937loPI   C5A13301   7.886   5.042   7.635 -0.1467  0.0209 -0.0160
  937loPI   C6A13302   7.734   5.158   7.982  0.0140 -0.2831 -0.2501
  937loPI   C1B13303   7.701   3.670   6.540 -0.1138 -0.2986 -0.1590
  937loPI   C2B13304   7.643   3.790   7.014  0.0780  0.4313  0.0777
  937loPI   C3B13305   7.978   3.544   7.180  0.0270 -0.0834 -0.0521
  937loPI   C4B13306   8.108   3.291   7.532 -0.0938  0.1886  0.0611
  938loPI    C113307   8.902   6.098   5.310  0.2612  0.1162 -0.0241
  938loPI    C213308   8.966   5.904   4.966  0.1167 -0.0798  0.0572
  938loPI    C313309   8.786   5.717   5.270  0.1711  0.1170  0.2127
  938loPI   PO413310   9.196   6.193   5.373  0.0445 -0.0528 -0.2272
  938loPI   GL113311   9.458   6.413   5.717 -0.1111  0.0144  0.1251
  938loPI   GL213312   9.828   6.340   5.861  0.2842  0.1790  0.1376
  938loPI   C1A13313   9.368   6.340   6.162 -0.0764 -0.0679 -0.4960
  938loPI   C2A13314   9.363   6.435   6.535 -0.0103 -0.0198  0.3975
  938loPI   C3A13315   9.463   6.377   6.977 -0.0363  0.2622 -0.2139
  938loPI   C4A13316   9.500   6.409   7.384  0.2563 -0.0609  0.2553
  938loPI   C5A13317   9.549   6.784   7.748  0.1184 -0.3244  0.0327
  938loPI   C6A13318   9.688   7.091   7.893 -0.1154  0.5360  0.0452
  938loPI   C1B13319   9.843   6.508   6.260 -0.1212  0.2048  0.0424
  938loPI   C2B13320   9.803   6.560   6.689 -0.1317 -0.0675  0.1262
  938loPI   C3B13321   9.972   6.574   7.108  0.1892 -0.2222 -0.0255
  938loPI   C4B13322   9.933   6.503   7.590  0.0373 -0.1107 -0.1739
  939loPI    C113323  12.459  12.062   5.314  0.1312 -0.0792 -0.1112
  939loPI    C213324  12.240  11.835   5.067  0.1091  0.0481 -0.2095
  939loPI    C313325  12.442  12.149   4.924  0.5567 -0.2114 -0.1636
  939loPI   PO413326  12.326  11.999   5.583 -0.1695 -0.2728  0.0389
  939loPI   GL113327  12.492  11.808   5.923  0.3456  0.2702  0.0180
  939loPI   GL213328  12.611  12.068   6.090 -0.0618 -0.0618 -0.1426
  939loPI   C1A13329  12.541  11.613   6.275 -0.0302  0.2889  0.1585
  939loPI   C2A13330  12.421  11.369   6.656  0.0509  0.0508  0.0630
  939loPI   C3A13331  12.272  11.343   7.128  0.0703  0.1452 -0.0422
  939loPI   C4A13332  12.060  11.363   7.542 -0.0147 -0.3056  0.0325
  939loPI   C5A13333  11.771  11.389   7.868 -0.2457  0.0039  0.0156
  939loPI   C6A13334  11.701  11.772   8.096 -0.2156 -0.1985  0.0018
  939loPI   C1B13335  12.750  12.053   6.470 -0.0876  0.0698  0.0904
  939loPI   C2B13336  12.829  12.000   6.949 -0.1295 -0.0662 -0.0539
  939loPI   C3B13337  12.891  12.073   7.355 -0.0833 -0.2898 -0.1870
  939loPI   C4B13338  12.797  12.408   7.653  0.2016 -0.0414  0.0845
  940loPI    C113339   0.132  13.329   5.468  0.1676  0.2600 -0.0314
  940loPI    C213340   0.386  13.275   5.164  0.0778 -0.1574 -0.0380
  940loPI    C313341   0.046  13.477   5.107  0.3596  0.3270 -0.0505
  940loPI   PO413342   0.301  13.406   5.678 -0.0220  0.0578  0.0152
  940loPI   GL113343   0.191  13.213   6.006 -0.0300 -0.0778 -0.1226
  940loPI   GL213344   0.082  12.974   6.081 -0.0111  0.1197  0.0847
  940loPI   C1A13345   0.263  13.269   6.461  0.0139  0.0421 -0.3285
  940loPI   C2A13346   0.214  13.297   6.864 -0.2415 -0.1929  0.1490
  940loPI   C3A13347  -0.008  13.309   7.214 -0.0910  0.1642 -0.2120
  940loPI   C4A13348  -0.173  13.241   7.589  0.1083 -0.2806  0.0762
  940loPI   C5A13349  -0.453  13.345   7.851 -0.1213  0.0006 -0.3157
  940loPI   C6A13350  -0.526  13.792   7.992  0.1508  0.3923 -0.1077
  940loPI   C1B13351  -0.089  12.932   6.505 -0.0475  0.1672 -0.2366
  940loPI   C2B13352  -0.152  12.823   6.960  0.1203  0.0611  0.3312
  940loPI   C3B13353  -0.224  12.859   7.279  0.1112 -0.0680  0.5683
  940loPI   C4B13354  -0.408  12.857   7.666 -0.2496 -0.0784  0.1552
  941loPI    C113355   4.057  10.827   5.889  0.3643 -0.1118 -0.3586
  941loPI    C213356   3.850  10.560   5.675  0.0678  0.0262 -0.2488
  941loPI    C313357   3.920  10.925   5.526 -0.2945  0.1840 -0.0462
  941loPI   PO413358   4.127  10.721   6.103  0.0536  0.2791  0.2737
  941loPI   GL113359   4.186  10.593   6.503 -0.0456 -0.1856 -0.0919
  941loPI   GL213360   3.876  10.535   6.520 -0.0482  0.2299 -0.0951
  941loPI   C1A13361   4.299  10.905   6.743 -0.1545  0.0832 -0.1282
  941loPI   C2A13362   4.261  10.867   7.252 -0.0262 -0.0209 -0.3850
  941loPI   C3A13363   4.179  10.801   7.652 -0.0760 -0.2422  0.0224
  941loPI   C4A13364   4.305  10.972   8.055  0.0955  0.1559 -0.0759
  941loPI   C5A13365   4.641  11.070   8.245 -0.0133  0.1221  0.1227
  941loPI   C6A13366   4.989  11.198   8.392 -0.2219 -0.1912 -0.1478
  941loPI   C1B13367   3.955  10.537   6.994  0.1091 -0.0647  0.1649
  941loPI   C2B13368   3.892  10.502   7.361  0.0748  0.2012  0.0508
  941loPI   C3B13369   3.649  10.560   7.732 -0.1459  0.0752 -0.0145
  941loPI   C4B13370   3.435  10.780   8.151  0.3337  0.0439 -0.0885
  942loPI    C113371  17.775   5.318   5.712  0.1046 -0.2427 -0.0160
  942loPI    C213372  18.065   5.593   5.693  0.0358 -0.1707 -0.0336
  942loPI    C313373  18.134   5.220   5.567  0.1650 -0.1920  0.0982
  942loPI   PO413374  17.673   5.325   5.959 -0.0560  0.1088  0.0943
  942loPI   GL113375  17.409   5.448   6.219 -0.0365 -0.1694 -0.0040
  942loPI   GL213376  17.541   5.633   6.510  0.1509 -0.2352  0.0389
  942loPI   C1A13377  17.135   5.385   6.560  0.0242  0.0567 -0.0220
  942loPI   C2A13378  17.118   5.466   7.001  0.1111 -0.0690 -0.0222
  942loPI   C3A13379  17.169   5.630   7.245  0.2589  0.0725  0.1319
  942loPI   C4A13380  17.320   5.840   7.605  0.0178 -0.3015  0.0511
  942loPI   C5A13381  17.274   5.746   8.014 -0.3153  0.1826 -0.2910
  942loPI   C6A13382  17.517   6.067   8.444 -0.0668  0.2929 -0.0749
  942loPI   C1B13383  17.535   5.755   6.884 -0.2177 -0.0451  0.1201
  942loPI   C2B13384  17.715   5.727   7.297 -0.2042  0.1454 -0.0897
  942loPI   C3B13385  17.800   5.525   7.613 -0.1731 -0.0526 -0.0390
  942loPI   C4B13386  17.708   5.476   8.017 -0.0666 -0.1139  0.0946
  943loPI    C113387   3.449  17.842   6.134  0.0927  0.0197  0.1891
  943loPI    C213388   3.572  17.474   6.039  0.0855  0.0806 -0.0638
  943loPI    C313389   3.340  17.678   5.786  0.0715  0.2513  0.0846
  943loPI   PO413390   3.611  17.978   6.202 -0.0691 -0.0154  0.0356
  943loPI   GL113391   3.724  17.906   6.641 -0.2275  0.0207  0.0061
  943loPI   GL213392   4.038  18.079   6.531  0.1743  0.0333  0.5315
  943loPI   C1A13393   3.551  17.786   7.099  0.4048  0.1128  0.0989
  943loPI   C2A13394   3.479  17.445   7.314  0.0827 -0.2689  0.0643
  943loPI   C3A13395   3.666  17.078   7.477 -0.1872 -0.0895  0.3476
  943loPI   C4A13396   3.732  17.026   7.842 -0.0274 -0.1314  0.4236
  943loPI   C5A13397   3.609  17.224   8.229  0.2587 -0.3674 -0.1173
  943loPI   C6A13398   3.787  17.406   8.572 -0.1396  0.2107  0.2239
  943loPI   C1B13399   4.113  17.959   6.925  0.1986 -0.3423 -0.2608
  943loPI   C2B13400   3.994  17.925   7.329 -0.2001  0.1138  0.3621
  943loPI   C3B13401   4.020  18.118   7.590 -0.1500 -0.0022 -0.1064
  943loPI   C4B13402   4.254  17.975   7.933  0.2569  0.1369 -0.3561
  944loPI    C113403   7.455   2.324   5.987 -0.1935 -0.0498 -0.1218
  944loPI    C213404   7.419   2.668   6.187 -0.2939 -0.0496 -0.1397
  944loPI    C313405   7.276   2.638   5.815 -0.1306 -0.0577 -0.2023
  944loPI   PO413406   7.360   2.074   6.156 -0.1350 -0.1475  0.0965
  944loPI   GL113407   7.346   1.837   6.497  0.0585 -0.0886 -0.0186
  944loPI   GL213408   7.527   1.548   6.378 -0.2117 -0.0993 -0.0277
  944loPI   C1A13409   7.507   1.873   6.904 -0.0498  0.1036  0.1981
  944loPI   C2A13410   7.538   1.858   7.268 -0.1683 -0.2476 -0.0441
  944loPI   C3A13411   7.533   1.889   7.679 -0.2441  0.1475  0.0340
  944loPI   C4A13412   7.480   1.962   8.179  0.0939 -0.1635  0.2662
  944loPI   C5A13413   7.799   2.026   8.598  0.2745 -0.0101  0.0235
  944loPI   C6A13414   8.236   2.100   8.742 -0.0254 -0.0696 -0.2635
  944loPI   C1B13415   7.742   1.491   6.659  0.0734  0.0941 -0.0454
  944loPI   C2B13416   7.863   1.457   7.038 -0.2898 -0.3005  0.0908
  944loPI   C3B13417   7.957   1.558   7.408  0.3900  0.0344  0.1023
  944loPI   C4B13418   7.999   1.880   7.777 -0.0086 -0.1932 -0.1018
  945loPI    C113419   7.945  14.002   6.042  0.0164 -0.2840  0.2739
  945loPI    C213420   8.280  13.788   5.988  0.0756 -0.1928  0.2776
  945loPI    C313421   7.943  13.685   5.798  0.1568 -0.1668  0.1179
  945loPI   PO413422   7.903  14.116   6.205  0.2458  0.2156 -0.0633
  945loPI   GL113423   8.103  14.259   6.509  0.2327 -0.0074  0.0034
  945loPI   GL213424   8.429  14.063   6.398 -0.1993 -0.0312  0.0405
  945loPI   C1A13425   7.960  14.404   6.851 -0.1610 -0.2322  0.3119
  945loPI   C2A13426   7.942  14.454   7.305 -0.0127 -0.1700  0.0952
  945loPI   C3A13427   8.086  14.511   7.697  0.2540 -0.3557  0.1515
  945loPI   C4A13428   8.217  14.395   8.000  0.1375  0.0359  0.0583
  945loPI   C5A13429   8.522  14.298   8.309  0.3281  0.0022 -0.2409
  945loPI   C6A13430   8.822  14.025   8.440 -0.1584 -0.1066 -0.0109
  945loPI   C1B13431   8.646  13.965   6.799  0.1524  0.0656 -0.1368
  945loPI   C2B13432   8.745  14.120   7.291 -0.3830 -0.2084  0.0485
  945loPI   C3B13433   8.809  14.149   7.733 -0.1577 -0.0543  0.1530
  945loPI   C4B13434   9.087  14.138   8.055 -0.0971 -0.2018 -0.0929
  946loPI    C113435   5.627   8.907   5.780  0.1694  0.0427  0.1342
  946loPI    C213436   5.818   9.254   5.717 -0.0670  0.1529  0.0088
  946loPI    C313437   5.548   9.123   5.452  0.2374 -0.2794 -0.0994
  946loPI   PO413438   5.732   8.868   6.003 -0.3205 -0.0132 -0.1243
  946loPI   GL113439   6.145   8.612   6.182 -0.0079  0.0872 -0.4512
  946loPI   GL213440   5.899   8.382   6.154  0.1501 -0.0383 -0.1476
  946loPI   C1A13441   6.121   8.534   6.608  0.1324  0.1034 -0.1829
  946loPI   C2A13442   6.265   8.365   7.007 -0.0830 -0.4747  0.1100
  946loPI   C3A13443   6.099   8.317   7.509  0.0442 -0.0945  0.1514
  946loPI   C4A13444   6.032   8.223   7.911 -0.3208 -0.0129 -0.2778
  946loPI   C5A13445   5.982   7.916   8.269 -0.0082  0.1830  0.1267
  946loPI   C6A13446   6.285   7.841   8.559 -0.0611  0.1058 -0.2538
  946loPI   C1B13447   5.633   8.566   6.642  0.0227  0.0610  0.1513
  946loPI   C2B13448   5.489   8.525   7.027  0.4378  0.1324 -0.2952
  946loPI   C3B13449   5.576   8.363   7.405  0.1350 -0.1971  0.0269
  946loPI   C4B13450   5.577   8.374   7.898 -0.1552 -0.4780 -0.1939
  947loPI    C113451   5.934   1.785   5.975 -0.1617 -0.3645 -0.1402
  947loPI    C213452   5.809   1.920   5.620  0.1332  0.0032 -0.1101
  947loPI    C313453   6.173   1.760   5.656  0.1227  0.0109  0.0364
  947loPI   PO413454   5.766   1.652   6.117 -0.4682  0.1764 -0.2739
  947loPI   GL113455   5.690   1.656   6.466 -0.2597  0.2935 -0.1493
  947loPI   GL213456   5.868   1.519   6.677 -0.0276  0.1720 -0.2132
  947loPI   C1A13457   5.728   2.013   6.712  0.1445  0.0242  0.0270
  947loPI   C2A13458   5.605   2.167   7.135 -0.0475  0.3810  0.0105
  947loPI   C3A13459   5.556   2.287   7.543 -0.0344 -0.2153  0.1255
  947loPI   C4A13460   5.657   2.220   8.072  0.1284 -0.0088 -0.1157
  947loPI   C5A13461   5.674   2.525   8.397 -0.1638  0.0146  0.1080
  947loPI   C6A13462   5.533   2.886   8.720 -0.2677 -0.2024  0.0331
  947loPI   C1B13463   5.941   1.690   7.037  0.1091 -0.1833 -0.1179
  947loPI   C2B13464   5.879   1.851   7.412 -0.2470 -0.0215  0.0656
  947loPI   C3B13465   5.824   1.841   7.838 -0.1745  0.3993 -0.1919
  947loPI   C4B13466   5.871   1.789   8.271 -0.1258 -0.3986 -0.0279
  948loPI    C113467  16.595   5.989   5.384 -0.0442  0.2640  0.1718
  948loPI    C213468  16.861   6.183   5.156 -0.0731  0.0734 -0.0274
  948loPI    C313469  16.643   5.885   5.001 -0.1063 -0.0479  0.2460
  948loPI   PO413470  16.719   5.929   5.633  0.3056 -0.1293  0.1281
  948loPI   GL113471  16.847   5.886   6.013 -0.3666 -0.1344 -0.3262
  948loPI   GL213472  16.611   6.008   6.272 -0.1104 -0.0322  0.0238
  948loPI   C1A13473  16.710   5.550   6.323 -0.0434 -0.0534 -0.0990
  948loPI   C2A13474  16.662   5.435   6.801 -0.0604 -0.2114  0.3065
  948loPI   C3A13475  16.671   5.414   7.308  0.4269 -0.0741 -0.0595
  948loPI   C4A13476  16.426   5.338   7.705  0.2536 -0.0940 -0.1176
  948loPI   C5A13477  16.487   5.594   8.094 -0.0738 -0.0174  0.1779
  948loPI   C6A13478  16.811   5.902   8.051  0.0987  0.0752 -0.2626
  948loPI   C1B13479  16.591   6.250   6.607 -0.3723  0.0202 -0.1867
  948loPI   C2B13480  16.450   6.254   7.070  0.0652  0.1253  0.0275
  948loPI   C3B13481  16.209   6.240   7.366 -0.2131  0.1675 -0.0043
  948loPI   C4B13482  16.070   6.442   7.633  0.0468 -0.4413 -0.2454
  949loPI    C113483  14.576  10.666   5.423 -0.0463  0.0174 -0.1284
  949loPI    C213484  14.608  11.007   5.216 -0.3337  0.1160 -0.0145
  949loPI    C313485  14.671  10.657   5.035 -0.0366  0.2278 -0.1326
  949loPI   PO413486  14.672  10.729   5.674  0.5968 -0.0189  0.3655
  949loPI   GL113487  14.450  10.755   6.072 -0.3397  0.0231  0.0672
  949loPI   GL213488  14.200  10.926   6.130  0.3109 -0.2726 -0.1936
  949loPI   C1A13489  14.682  10.759   6.337 -0.0120  0.1384 -0.0460
  949loPI   C2A13490  14.630  10.657   6.794  0.3339 -0.0792 -0.1761
  949loPI   C3A13491  14.709  10.602   7.323 -0.0553 -0.0490 -0.1223
  949loPI   C4A13492  14.575  10.702   7.819  0.1766 -0.0583  0.0111
  949loPI   C5A13493  14.646  10.934   8.091  0.1777 -0.0598 -0.1550
  949loPI   C6A13494  14.620  11.311   8.019 -0.2482 -0.3436 -0.0885
  949loPI   C1B13495  14.229  10.894   6.583  0.0454 -0.0776  0.1508
  949loPI   C2B13496  14.241  10.982   7.056 -0.2810 -0.0346 -0.2660
  949loPI   C3B13497  14.070  11.184   7.483 -0.4415 -0.1724  0.1785
  949loPI   C4B13498  14.161  11.062   7.906  0.1920 -0.1873  0.0568
  950loPI    C113499  13.429   8.664   5.429 -0.0386 -0.0241  0.2568
  950loPI    C213500  13.227   8.791   5.750 -0.2127  0.1245  0.0915
  950loPI    C313501  13.030   8.693   5.417 -0.0247  0.0845 -0.0093
  950loPI   PO413502  13.657   8.640   5.516 -0.0863  0.0051 -0.2194
  950loPI   GL113503  13.693   8.657   5.926 -0.1238 -0.1135 -0.0585
  950loPI   GL213504  13.495   8.414   5.940 -0.0614  0.3924  0.2445
  950loPI   C1A13505  13.702   8.614   6.380  0.0395  0.0596  0.1268
  950loPI   C2A13506  13.448   8.743   6.756 -0.0264  0.0532 -0.0394
  950loPI   C3A13507  13.406   9.008   7.211  0.2022 -0.2417 -0.1508
  950loPI   C4A13508  13.157   8.984   7.680  0.1815  0.0403  0.2522
  950loPI   C5A13509  12.783   8.924   8.074  0.2478  0.2266 -0.1298
  950loPI   C6A13510  12.695   9.113   8.551 -0.1366 -0.0146 -0.1876
  950loPI   C1B13511  13.220   8.699   6.273 -0.1250  0.1794  0.2560
  950loPI   C2B13512  12.938   8.501   6.573  0.3751  0.0324 -0.0226
  950loPI   C3B13513  12.883   8.750   7.022  0.0860 -0.0179 -0.1854
  950loPI   C4B13514  12.985   8.597   7.412  0.2604  0.1194  0.0382
  951loPI    C113515  11.211  16.927   5.942 -0.1654  0.3056 -0.3159
  951loPI    C213516  11.078  16.555   5.885  0.1276  0.1365  0.0540
  951loPI    C313517  10.830  16.837   6.022  0.0233 -0.0471  0.2496
  951loPI   PO413518  11.469  16.886   5.993 -0.0147 -0.1917  0.2307
  951loPI   GL113519  11.398  16.642   6.344 -0.0083 -0.2119 -0.0514
  951loPI   GL213520  11.105  16.641   6.447  0.2078 -0.1489 -0.1056
  951loPI   C1A13521  11.423  17.063   6.631 -0.4224 -0.1332 -0.0754
  951loPI   C2A13522  11.418  17.102   7.068 -0.0463 -0.1228 -0.0765
  951loPI   C3A13523  11.202  17.197   7.554  0.1032  0.2314  0.1419
  951loPI   C4A13524  11.148  17.014   7.941 -0.2147  0.1152  0.1442
  951loPI   C5A13525  10.771  16.859   8.011 -0.1464  0.2405 -0.2912
  951loPI   C6A13526  10.327  16.677   7.947 -0.2566 -0.1437  0.0307
  951loPI   C1B13527  11.165  16.674   6.878  0.1961 -0.1116 -0.2535
  951loPI   C2B13528  11.152  16.677   7.311 -0.1048 -0.1943  0.2337
  951loPI   C3B13529  11.261  16.582   7.734  0.2621 -0.2642  0.2645
  951loPI   C4B13530  11.189  16.585   8.167 -0.0094  0.1796 -0.0356
  952loPI    C113531  10.797   4.604   5.700 -0.1203 -0.0572 -0.0127
  952loPI    C213532  10.766   4.901   5.433  0.0822  0.0345  0.0637
  952loPI    C313533  10.635   4.954   5.807 -0.0132 -0.0230  0.0388
  952loPI   PO413534  11.055   4.622   5.787 -0.0600  0.1189 -0.1796
  952loPI   GL113535  11.520   4.687   6.009 -0.0251  0.1199 -0.2572
  952loPI   GL213536  11.530   5.008   6.068  0.0663 -0.0010 -0.3908
  952loPI   C1A13537  11.828   4.659   6.453  0.2822 -0.3006  0.0376
  952loPI   C2A13538  11.802   4.644   6.939  0.0003 -0.1037  0.2833
  952loPI   C3A13539  11.830   4.774   7.296  0.1737  0.0935 -0.0133
  952loPI   C4A13540  11.823   4.663   7.699  0.1504 -0.1103  0.0255
  952loPI   C5A13541  11.589   4.752   8.047 -0.3041  0.0449  0.0224
  952loPI   C6A13542  11.463   4.430   8.423  0.0687 -0.0153 -0.0896
  952loPI   C1B13543  11.409   5.003   6.497 -0.0105 -0.1298  0.1106
  952loPI   C2B13544  11.505   5.014   6.882 -0.0285 -0.1324  0.1347
  952loPI   C3B13545  11.497   5.144   7.259 -0.2430  0.1956  0.1170
  952loPI   C4B13546  11.510   5.257   7.630  0.3174 -0.0548  0.1150
  953loPI    C113547  17.091   3.590   5.795 -0.0293  0.1091 -0.1207
  953loPI    C213548  17.381   3.438   5.567  0.0190 -0.1026  0.0777
  953loPI    C313549  17.024   3.520   5.407  0.0580 -0.2294 -0.0778
  953loPI   PO413550  17.182   3.490   6.024 -0.0570  0.1323 -0.0357
  953loPI   GL113551  17.146   3.494   6.444  0.2394  0.1317 -0.0826
  953loPI   GL213552  17.145   3.160   6.414 -0.1333 -0.0944 -0.3386
  953loPI   C1A13553  17.240   3.485   6.882  0.0489 -0.1585 -0.0641
  953loPI   C2A13554  17.471   3.569   7.266 -0.0446  0.0936 -0.2877
  953loPI   C3A13555  17.452   3.562   7.773  0.2646  0.0470 -0.0651
  953loPI   C4A13556  17.373   3.451   8.135 -0.4664  0.2940  0.1510
  953loPI   C5A13557  17.644   3.210   8.495  0.2330  0.0222 -0.1898
  953loPI   C6A13558  17.597   2.804   8.551 -0.1431 -0.2846 -0.1422
  953loPI   C1B13559  17.055   2.927   6.826 -0.2476  0.2656  0.0056
  953loPI   C2B13560  16.948   3.117   7.258 -0.2373 -0.4335  0.0677
  953loPI   C3B13561  16.998   3.476   7.460  0.0549  0.1152  0.1169
  953loPI   C4B13562  16.886   3.629   7.881  0.0953  0.0580  0.1481
  954loPI    C113563  11.289   3.763   5.675  0.0086  0.0286 -0.1111
  954loPI    C213564  11.570   3.657   5.411  0.1990 -0.1755  0.1687
  954loPI    C313565  11.554   4.033   5.544  0.2776 -0.1393  0.0770
  954loPI   PO413566  11.341   3.601   5.866 -0.0826  0.0603 -0.0990
  954loPI   GL113567  11.266   3.735   6.239  0.2182 -0.2451  0.2826
  954loPI   GL213568  11.169   3.335   6.220  0.1074  0.0090  0.0820
  954loPI   C1A13569  11.351   3.980   6.561 -0.1744 -0.1024 -0.2531
  954loPI   C2A13570  11.399   4.110   6.911  0.0532 -0.0815 -0.2487
  954loPI   C3A13571  11.389   3.936   7.300 -0.0326 -0.1147 -0.2285
  954loPI   C4A13572  11.547   3.639   7.598  0.0708  0.1520 -0.1031
  954loPI   C5A13573  11.460   3.170   7.767  0.2206  0.0394 -0.0384
  954loPI   C6A13574  11.207   3.139   8.086  0.2968 -0.5612 -0.2079
  954loPI   C1B13575  11.082   3.181   6.647 -0.2636 -0.1338  0.0756
  954loPI   C2B13576  11.129   2.999   7.038  0.1725 -0.3193 -0.1479
  954loPI   C3B13577  11.158   3.008   7.425 -0.0881 -0.0575  0.0129
  954loPI   C4B13578  10.780   2.889   7.749 -0.0884 -0.0214  0.1883
  955loPI    C113579  15.346  13.366   5.510 -0.0320  0.0712 -0.0727
  955loPI    C213580  15.185  13.097   5.262  0.0752 -0.0628  0.0016
  955loPI    C313581  15.581  13.152   5.268  0.0621  0.0275  0.0559
  955loPI   PO413582  15.322  13.247   5.807  0.1047 -0.1455  0.2591
  955loPI   GL113583  15.354  13.306   6.174  0.1331 -0.1980 -0.3192
  955loPI   GL213584  15.258  13.699   6.173 -0.1106 -0.2440 -0.2682
  955loPI   C1A13585  15.321  13.287   6.587 -0.0253  0.2321 -0.4382
  955loPI   C2A13586  15.271  13.377   7.034  0.1086 -0.0481 -0.2594
  955loPI   C3A13587  15.097  13.305   7.484 -0.0218  0.0775 -0.0771
  955loPI   C4A13588  15.111  13.289   7.869 -0.0355 -0.2054 -0.3130
  955loPI   C5A13589  15.171  12.966   8.124  0.0328  0.1358  0.1603
  955loPI   C6A13590  15.506  12.842   8.269 -0.0480 -0.2419 -0.0934
  955loPI   C1B13591  15.241  13.839   6.573  0.0007  0.0777  0.2507
  955loPI   C2B13592  15.355  13.876   7.046  0.4481  0.2167  0.2251
  955loPI   C3B13593  15.173  13.764   7.461 -0.3441  0.0567 -0.1063
  955loPI   C4B13594  15.184  13.830   7.927  0.4187  0.0621 -0.2417
  956loPI    C113595   4.381   5.572   5.975 -0.0199  0.1976 -0.1159
  956loPI    C213596   4.749   5.431   5.911 -0.0785 -0.0584  0.0934
  956loPI    C313597   4.466   5.382   5.634 -0.0759 -0.2816  0.1284
  956loPI   PO413598   4.446   5.789   6.075  0.1753 -0.0912  0.1371
  956loPI   GL113599   4.361   5.932   6.396 -0.0802 -0.2513  0.0289
  956loPI   GL213600   4.040   5.930   6.395  0.1199 -0.0303  0.1173
  956loPI   C1A13601   4.631   5.839   6.823  0.2059 -0.3485 -0.2112
  956loPI   C2A13602   4.682   5.738   7.197 -0.0009  0.0085  0.0771
  956loPI   C3A13603   4.683   5.532   7.465 -0.2880  0.3234  0.1420
  956loPI   C4A13604   4.593   5.623   7.884  0.1259  0.1318  0.1233
  956loPI   C5A13605   4.337   5.706   8.254  0.1656  0.2396 -0.0019
  956loPI   C6A13606   4.164   5.466   8.581 -0.1665  0.2533  0.1603
  956loPI   C1B13607   3.897   5.769   6.818 -0.1863 -0.0277 -0.2516
  956loPI   C2B13608   3.854   5.868   7.369  0.1839  0.1338  0.1567
  956loPI   C3B13609   3.734   5.909   7.820 -0.1915  0.2579 -0.1146
  956loPI   C4B13610   3.810   5.693   8.261 -0.0297  0.1917  0.2386
  957loPI    C113611   7.405  12.594   5.771  0.3141  0.1424  0.0279
  957loPI    C213612   7.242  12.615   5.406  0.1067  0.0076  0.1107
  957loPI    C313613   7.503  12.895   5.525 -0.0220  0.1968 -0.0444
  957loPI   PO413614   7.218  12.518   6.022  0.0032  0.0032 -0.4332
  957loPI   GL113615   7.076  12.385   6.450  0.1479  0.3527  0.0982
  957loPI   GL213616   6.985  12.522   6.698  0.0432  0.1798 -0.3300
  957loPI   C1A13617   7.214  12.033   6.779  0.0339 -0.0578  0.1072
  957loPI   C2A13618   7.240  11.927   7.239 -0.1000 -0.0621 -0.2816
  957loPI   C3A13619   7.513  11.985   7.656  0.2539  0.1964  0.0621
  957loPI   C4A13620   7.779  12.005   8.002  0.2465  0.0504  0.1551
  957loPI   C5A13621   8.056  12.244   8.205  0.0026  0.0106 -0.3244
  957loPI   C6A13622   8.303  12.631   8.287 -0.3637 -0.1648 -0.0547
  957loPI   C1B13623   6.878  12.481   7.155 -0.0576  0.2098 -0.1386
  957loPI   C2B13624   6.907  12.263   7.447  0.0723  0.1303  0.0585
  957loPI   C3B13625   7.069  12.176   7.891  0.0706  0.0757  0.2434
  957loPI   C4B13626   7.307  11.969   8.211 -0.2137 -0.2990  0.1579
  958loPI    C113627   8.645   2.137   5.577 -0.1717 -0.1441  0.1174
  958loPI    C213628   8.447   2.279   5.259  0.1296  0.0917  0.0308
  958loPI    C313629   8.785   2.070   5.208  0.0003 -0.1606  0.1850
  958loPI   PO413630   8.476   1.999   5.883  0.1128  0.0386 -0.1142
  958loPI   GL113631   8.470   2.087   6.337  0.2793  0.0098  0.2780
  958loPI   GL213632   8.253   2.212   6.339  0.0478 -0.1699  0.2568
  958loPI   C1A13633   8.543   2.023   6.773  0.3362  0.0354 -0.0728
  958loPI   C2A13634   8.509   2.111   7.261  0.2159 -0.1330  0.2602
  958loPI   C3A13635   8.552   1.948   7.709  0.0128  0.0162 -0.1193
  958loPI   C4A13636   8.501   1.867   8.117 -0.1866 -0.2153 -0.0068
  958loPI   C5A13637   8.634   1.725   8.474 -0.1777  0.3785 -0.0950
  958loPI   C6A13638   8.473   1.337   8.723 -0.1238 -0.1065  0.0485
  958loPI   C1B13639   8.163   2.310   6.758  0.1359 -0.0493  0.4500
  958loPI   C2B13640   8.174   2.473   7.192  0.1632  0.1762  0.0546
  958loPI   C3B13641   8.206   2.331   7.610  0.0497  0.5955  0.0921
  958loPI   C4B13642   8.428   2.502   7.844  0.1617 -0.2639 -0.0281
  959loPI    C113643  11.211   9.729   5.469 -0.0733  0.0312 -0.3563
  959loPI    C213644  11.495   9.449   5.439  0.0925  0.1662 -0.0833
  959loPI    C313645  11.154   9.412   5.233  0.1454 -0.1952 -0.1109
  959loPI   PO413646  11.238   9.759   5.718  0.1904  0.1759 -0.1024
  959loPI   GL113647  11.318   9.515   6.125 -0.1832 -0.3861  0.1501
  959loPI   GL213648  11.522   9.226   6.272 -0.0098 -0.2027 -0.2870
  959loPI   C1A13649  11.199   9.619   6.541  0.2064 -0.1212  0.1694
  959loPI   C2A13650  11.215   9.686   6.957 -0.2539  0.0429 -0.1411
  959loPI   C3A13651  11.142   9.576   7.350 -0.1641 -0.4254 -0.1246
  959loPI   C4A13652  11.017   9.337   7.630 -0.0038 -0.2776 -0.4305
  959loPI   C5A13653  11.170   9.215   8.069  0.3214  0.1091  0.1873
  959loPI   C6A13654  11.470   9.182   8.385  0.0279 -0.0263 -0.2448
  959loPI   C1B13655  11.555   9.305   6.765  0.5943  0.0278  0.0376
  959loPI   C2B13656  11.455   9.248   7.135 -0.0096 -0.1040  0.1136
  959loPI   C3B13657  11.627   9.402   7.538 -0.1043 -0.2272  0.0185
  959loPI   C4B13658  11.476   9.490   7.898 -0.2729 -0.0224  0.1070
  960loPI    C113659   3.481  13.033   5.248  0.0950 -0.0641  0.1544
  960loPI    C213660   3.844  13.183   5.173  0.0497 -0.0509 -0.0422
  960loPI    C313661   3.712  12.866   4.968 -0.1352  0.0777 -0.1247
  960loPI   PO413662   3.472  13.016   5.619 -0.2147  0.0436  0.0963
  960loPI   GL113663   3.557  13.223   5.974 -0.3522  0.1125  0.1029
  960loPI   GL213664   3.422  13.477   5.850 -0.0488 -0.1903  0.0835
  960loPI   C1A13665   3.345  13.102   6.415 -0.0390 -0.0099 -0.0905
  960loPI   C2A13666   3.237  13.006   6.865  0.0438  0.0557 -0.0122
  960loPI   C3A13667   2.972  12.962   7.129  0.2587 -0.0715 -0.2421
  960loPI   C4A13668   2.906  13.015   7.622  0.0384  0.0964 -0.4302
  960loPI   C5A13669   2.607  12.710   7.855 -0.0061  0.0558  0.1587
  960loPI   C6A13670   2.418  12.371   8.098  0.3043  0.1965 -0.2353
  960loPI   C1B13671   3.115  13.593   6.249  0.1934  0.1435 -0.0051
  960loPI   C2B13672   2.968  13.478   6.658 -0.3799 -0.1526  0.0247
  960loPI   C3B13673   3.086  13.472   7.117  0.0996 -0.2590 -0.3145
  960loPI   C4B13674   3.289  13.388   7.481  0.0386  0.0326 -0.0615
  961loPI    C113675  15.222   4.836   5.606 -0.0932 -0.1240 -0.1282
  961loPI    C213676  15.153   5.045   5.272  0.2346  0.1045 -0.0576
  961loPI    C313677  15.390   4.723   5.261 -0.0133 -0.0784 -0.1047
  961loPI   PO413678  15.031   4.788   5.883  0.0124 -0.1714  0.2259
  961loPI   GL113679  15.137   4.771   6.341  0.2275 -0.0092  0.0818
  961loPI   GL213680  14.817   4.792   6.433  0.0217 -0.0110 -0.2169
  961loPI   C1A13681  15.332   4.317   6.552 -0.0226 -0.0629 -0.2254
  961loPI   C2A13682  15.302   4.175   6.878  0.1745  0.0963  0.4268
  961loPI   C3A13683  15.309   4.055   7.282 -0.1048 -0.1779 -0.2344
  961loPI   C4A13684  15.250   3.721   7.692  0.2083  0.0170  0.1886
  961loPI   C5A13685  15.184   3.573   8.122  0.1944 -0.0288  0.0271
  961loPI   C6A13686  15.113   3.827   8.480  0.1694 -0.0391 -0.0671
  961loPI   C1B13687  14.704   4.761   6.891 -0.0491 -0.2254 -0.1783
  961loPI   C2B13688  14.480   4.652   7.252  0.1672  0.0290 -0.0638
  961loPI   C3B13689  14.424   4.493   7.636  0.2213  0.1779 -0.1979
  961loPI   C4B13690  14.315   4.595   8.046 -0.0964  0.4142  0.3424
  962loPI    C113691   6.278   7.094   5.135  0.1659 -0.1562 -0.1039
  962loPI    C213692   6.456   6.738   5.100 -0.2918 -0.4023 -0.0044
  962loPI    C313693   6.346   6.940   4.773  0.1654 -0.2443 -0.0668
  962loPI   PO413694   6.165   7.190   5.410  0.1512  0.2750  0.0734
  962loPI   GL113695   6.386   7.054   5.900 -0.2136  0.2809 -0.2116
  962loPI   GL213696   6.649   6.744   5.988 -0.0851  0.1786  0.1721
  962loPI   C1A13697   6.616   7.101   6.323  0.3074 -0.1589 -0.1267
  962loPI   C2A13698   6.716   6.883   6.759  0.2609  0.2060  0.1291
  962loPI   C3A13699   6.700   6.667   7.183  0.2881 -0.1164 -0.0760
  962loPI   C4A13700   6.459   6.608   7.583 -0.0912 -0.1584  0.2701
  962loPI   C5A13701   6.291   6.706   8.061  0.0810  0.3829 -0.1010
  962loPI   C6A13702   6.296   6.943   8.442  0.3675 -0.1466 -0.2534
  962loPI   C1B13703   6.714   6.440   6.359  0.1189  0.0970  0.1098
  962loPI   C2B13704   6.629   6.115   6.733  0.2668  0.3768  0.2361
  962loPI   C3B13705   6.865   6.113   7.083  0.2353  0.2259  0.0483
  962loPI   C4B13706   6.938   6.230   7.434 -0.0666 -0.1986 -0.1261
  963loPI    C113707  14.847   2.233   5.504 -0.2272  0.3598 -0.0225
  963loPI    C213708  15.112   2.524   5.577  0.1388  0.0902 -0.2389
  963loPI    C313709  14.783   2.602   5.363  0.0252  0.4338  0.0506
  963loPI   PO413710  14.905   2.070   5.689  0.1062 -0.2519  0.1806
  963loPI   GL113711  15.007   2.183   6.011  0.2899 -0.2151  0.1764
  963loPI   GL213712  14.930   2.521   6.014  0.2964 -0.1225 -0.0048
  963loPI   C1A13713  14.998   2.262   6.490 -0.0621 -0.0189  0.0679
  963loPI   C2A13714  15.022   2.163   6.873 -0.0174  0.0321 -0.2073
  963loPI   C3A13715  14.984   2.104   7.355  0.0158 -0.3810 -0.2321
  963loPI   C4A13716  15.064   1.998   7.745  0.2374 -0.0735 -0.0386
  963loPI   C5A13717  15.113   2.047   8.146  0.1619  0.0080  0.1355
  963loPI   C6A13718  15.090   2.225   8.595  0.0659  0.4375 -0.2059
  963loPI   C1B13719  14.972   2.803   6.412 -0.0946 -0.0878 -0.0515
  963loPI   C2B13720  14.961   2.739   6.861  0.0122  0.3328  0.2494
  963loPI   C3B13721  14.980   2.601   7.254  0.1788  0.0894 -0.1111
  963loPI   C4B13722  14.954   2.554   7.781 -0.2756 -0.1311  0.0571
  964loPI    C113723  10.035   2.075   5.750 -0.0576  0.0512 -0.0910
  964loPI    C213724   9.753   2.089   5.466 -0.1385 -0.0008 -0.0136
  964loPI    C313725  10.139   2.108   5.365 -0.1682  0.0210 -0.1240
  964loPI   PO413726   9.940   1.832   5.935 -0.4172  0.0378  0.2456
  964loPI   GL113727   9.923   1.846   6.405 -0.4136  0.1008 -0.0580
  964loPI   GL213728   9.854   2.168   6.413 -0.0350  0.1966  0.1006
  964loPI   C1A13729   9.560   1.743   6.722 -0.0109  0.0082  0.0124
  964loPI   C2A13730   9.426   1.325   6.921 -0.0468 -0.0465 -0.1825
  964loPI   C3A13731   9.326   1.244   7.371  0.0180 -0.1138  0.1138
  964loPI   C4A13732   9.388   1.526   7.754 -0.1948  0.3765 -0.0715
  964loPI   C5A13733   9.367   1.742   8.142  0.3867 -0.2678  0.3978
  964loPI   C6A13734   9.036   1.951   8.348 -0.2472 -0.1685 -0.0814
  964loPI   C1B13735  10.037   1.957   6.885  0.2141 -0.1499 -0.0658
  964loPI   C2B13736   9.945   1.824   7.291  0.1027 -0.0889  0.2537
  964loPI   C3B13737   9.972   1.774   7.798 -0.1697  0.1427  0.0655
  964loPI   C4B13738   9.996   1.911   8.202  0.3548  0.3087 -0.1473
  965loPI    C113739  13.063   9.158   5.311  0.1169 -0.0837  0.0317
  965loPI    C213740  13.168   8.924   5.004  0.0348 -0.1031  0.0184
  965loPI    C313741  12.939   9.246   4.941  0.0413 -0.0913  0.0552
  965loPI   PO413742  13.249   9.198   5.401 -0.2468  0.1997 -0.0292
  965loPI   GL113743  13.219   9.449   5.753  0.1237  0.3351  0.0173
  965loPI   GL213744  13.028   9.197   5.921  0.2244 -0.3220 -0.1693
  965loPI   C1A13745  13.226   9.728   6.281  0.0903  0.2770  0.0170
  965loPI   C2A13746  13.105   9.698   6.589  0.2729  0.3774  0.1416
  965loPI   C3A13747  13.164   9.889   6.933  0.1660 -0.3216 -0.0059
  965loPI   C4A13748  13.391   9.995   7.254 -0.1381 -0.0545  0.2951
  965loPI   C5A13749  13.605  10.318   7.592  0.0713  0.3241  0.3036
  965loPI   C6A13750  13.695  10.759   7.872  0.1238 -0.0272  0.0129
  965loPI   C1B13751  13.004   9.236   6.317 -0.1166 -0.3136 -0.1899
  965loPI   C2B13752  13.020   9.025   6.601  0.0207 -0.0805 -0.2261
  965loPI   C3B13753  13.079   9.301   6.893  0.2553 -0.2017 -0.0234
  965loPI   C4B13754  12.928   9.325   7.314  0.0853  0.1894 -0.0320
  966loPI    C113755   9.392  17.781   5.871 -0.1031  0.1567  0.2643
  966loPI    C213756   9.782  17.867   5.901  0.0100 -0.1092 -0.3067
  966loPI    C313757   9.551  18.072   5.648 -0.2252  0.0385  0.0198
  966loPI   PO413758   9.322  17.716   6.101 -0.0503 -0.0685  0.0607
  966loPI   GL113759   9.140  18.052   6.368 -0.0640  0.3417  0.2812
  966loPI   GL213760   9.004  18.364   6.521  0.1431 -0.0884  0.3054
  966loPI   C1A13761   9.176  17.937   6.798 -0.1540 -0.2000 -0.0483
  966loPI   C2A13762   9.238  17.847   7.259 -0.2253  0.4572  0.1079
  966loPI   C3A13763   9.084  17.837   7.660  0.2282 -0.2732 -0.0195
  966loPI   C4A13764   8.855  17.965   8.113 -0.2641  0.1266  0.0621
  966loPI   C5A13765   8.590  17.914   8.428  0.3845  0.0320 -0.1861
  966loPI   C6A13766   8.197  17.849   8.487  0.1898  0.1270 -0.4039
  966loPI   C1B13767   9.193  18.379   6.955  0.0802  0.0864  0.2514
  966loPI   C2B13768   9.196  18.306   7.285 -0.1578 -0.1296 -0.4450
  966loPI   C3B13769   9.149  18.370   7.572 -0.1317  0.1243 -0.2984
  966loPI   C4B13770   9.291  18.349   7.953 -0.1507  0.3098 -0.0296
  967loPI    C113771  12.463  17.413   5.812  0.1023 -0.0346 -0.0264
  967loPI    C213772  12.371  17.176   5.503 -0.0623  0.0130 -0.0152
  967loPI    C313773  12.553  17.526   5.439  0.0645 -0.0571 -0.0424
  967loPI   PO413774  12.584  17.206   5.950 -0.0971 -0.0755  0.2304
  967loPI   GL113775  12.598  16.955   6.251  0.1072  0.0528 -0.2930
  967loPI   GL213776  12.330  16.852   6.354  0.1005  0.2938  0.1500
  967loPI   C1A13777  12.925  17.205   6.483 -0.1745  0.0431  0.0734
  967loPI   C2A13778  13.281  17.324   6.808 -0.2546 -0.1481  0.0364
  967loPI   C3A13779  13.209  17.139   7.213  0.1573  0.2420 -0.1847
  967loPI   C4A13780  12.965  17.188   7.548 -0.2599  0.0113  0.0270
  967loPI   C5A13781  12.789  17.243   7.950 -0.2427 -0.1241  0.2460
  967loPI   C6A13782  13.034  17.335   8.321 -0.1968 -0.0184  0.0629
  967loPI   C1B13783  12.423  17.069   6.752  0.2247  0.1272 -0.1370
  967loPI   C2B13784  12.331  17.238   7.115  0.2676  0.0164  0.2412
  967loPI   C3B13785  12.203  17.551   7.392  0.3552  0.0360 -0.1292
  967loPI   C4B13786  11.983  17.910   7.475 -0.0388 -0.0568 -0.1403
  968loPI    C113787   3.358   1.103   6.104  0.2489  0.1233  0.1802
  968loPI    C213788   3.577   0.770   6.065 -0.0721 -0.0800  0.0705
  968loPI    C313789   3.505   1.000   5.746 -0.1753 -0.1159  0.0675
  968loPI   PO413790   3.372   1.142   6.389  0.5055  0.1261  0.0382
  968loPI   GL113791   3.673   1.025   6.660 -0.0563  0.1845  0.2349
  968loPI   GL213792   4.064   0.999   6.605 -0.0242 -0.0878  0.0602
  968loPI   C1A13793   3.842   0.738   7.025 -0.2062 -0.4051  0.1058
  968loPI   C2A13794   4.115   0.884   7.328  0.3327 -0.1427  0.1513
  968loPI   C3A13795   4.195   1.015   7.682 -0.1627 -0.0948  0.2742
  968loPI   C4A13796   4.171   0.983   8.008 -0.0388  0.0605  0.0778
  968loPI   C5A13797   4.191   0.919   8.438 -0.2577  0.2028 -0.3910
  968loPI   C6A13798   4.421   0.626   8.615  0.1391  0.0377 -0.2676
  968loPI   C1B13799   4.345   0.856   6.843 -0.0603  0.0202 -0.2555
  968loPI   C2B13800   4.626   0.756   7.127  0.0017 -0.1670  0.4246
  968loPI   C3B13801   4.737   0.675   7.453 -0.0471  0.0970 -0.0639
  968loPI   C4B13802   4.720   0.442   7.714  0.2406 -0.0474 -0.1485
  969loPI    C113803  11.226   0.562   5.589 -0.1238  0.0252 -0.0778
  969loPI    C213804  11.241   0.773   5.249 -0.0150 -0.2136 -0.2239
  969loPI    C313805  11.105   0.397   5.246  0.0067 -0.2249 -0.0058
  969loPI   PO413806  11.081   0.796   5.838 -0.3206 -0.0844 -0.1663
  969loPI   GL113807  11.199   0.982   6.286  0.0791 -0.0250 -0.1066
  969loPI   GL213808  11.017   0.649   6.339  0.0520  0.1288  0.0321
  969loPI   C1A13809  11.270   1.290   6.505  0.1696  0.3189 -0.0784
  969loPI   C2A13810  11.420   1.380   6.927  0.1088  0.4155 -0.0259
  969loPI   C3A13811  11.489   1.476   7.365 -0.0185 -0.1881 -0.1047
  969loPI   C4A13812  11.442   1.575   7.808 -0.1682  0.1856  0.2834
  969loPI   C5A13813  11.415   1.837   8.078  0.2955 -0.0502  0.0329
  969loPI   C6A13814  11.337   2.218   8.174  0.1780 -0.0142  0.1135
  969loPI   C1B13815  10.906   0.459   6.750 -0.2336  0.4019  0.0127
  969loPI   C2B13816  10.641   0.229   7.047 -0.0322 -0.1802  0.0422
  969loPI   C3B13817  10.566   0.133   7.423  0.2404 -0.0736  0.0764
  969loPI   C4B13818  10.450   0.117   7.785 -0.1137 -0.0938  0.0810
  970loPI    C113819   1.489   2.342   5.721  0.1059 -0.0369  0.0221
  970loPI    C213820   1.225   2.390   5.425 -0.0516 -0.1112  0.1492
  970loPI    C313821   1.565   2.190   5.359 -0.0525 -0.0649  0.0001
  970loPI   PO413822   1.333   2.295   6.010 -0.1227 -0.0154  0.0915
  970loPI   GL113823   1.182   2.424   6.430  0.2713 -0.1133 -0.1560
  970loPI   GL213824   1.374   2.304   6.544 -0.1423  0.0548  0.2831
  970loPI   C1A13825   0.963   2.523   6.756 -0.1089 -0.1615  0.0166
  970loPI   C2A13826   0.964   2.598   7.150  0.3116  0.1389 -0.3507
  970loPI   C3A13827   0.955   2.771   7.599  0.1869  0.3057  0.0351
  970loPI   C4A13828   1.142   2.965   7.963  0.2330  0.0846 -0.3824
  970loPI   C5A13829   0.892   3.081   8.254  0.1082  0.2611 -0.1373
  970loPI   C6A13830   0.575   3.208   8.601  0.0414  0.0614  0.2016
  970loPI   C1B13831   1.361   2.300   6.963  0.0657 -0.0568 -0.1738
  970loPI   C2B13832   1.445   2.351   7.337  0.0914 -0.0724  0.1704
  970loPI   C3B13833   1.629   2.634   7.651  0.1977 -0.0213 -0.1649
  970loPI   C4B13834   1.792   2.724   8.062  0.4110  0.1550 -0.0951
  971loPI    C113835   9.806  11.747   5.293 -0.1188 -0.0331  0.0973
  971loPI    C213836  10.059  11.611   5.015  0.0487 -0.0331  0.2478
  971loPI    C313837   9.673  11.510   5.000  0.0385  0.0390 -0.0341
  971loPI   PO413838   9.984  11.739   5.522 -0.4922  0.2047 -0.2030
  971loPI   GL113839  10.073  11.654   5.914 -0.2311  0.0027 -0.0661
  971loPI   GL213840  10.357  11.514   5.993 -0.0186  0.3406 -0.0295
  971loPI   C1A13841  10.063  11.840   6.286 -0.2065  0.1933 -0.1127
  971loPI   C2A13842   9.942  11.829   6.637  0.0108  0.3813 -0.1549
  971loPI   C3A13843   9.957  11.876   7.101  0.2479 -0.0618 -0.0775
  971loPI   C4A13844  10.081  11.804   7.447  0.0019 -0.0837  0.3303
  971loPI   C5A13845  10.300  11.999   7.874 -0.0672  0.1585 -0.0276
  971loPI   C6A13846  10.332  11.775   8.202 -0.1193 -0.0701 -0.2252
  971loPI   C1B13847  10.465  11.182   6.186 -0.0924  0.0484 -0.2188
  971loPI   C2B13848  10.679  11.077   6.579  0.2128 -0.2624 -0.0578
  971loPI   C3B13849  10.739  11.075   7.064 -0.1857  0.1516 -0.0609
  971loPI   C4B13850  10.665  11.077   7.427  0.0614  0.1907 -0.1041
  972loPI    C113851  12.147   2.187   5.495  0.0629 -0.0579  0.0153
  972loPI    C213852  11.749   2.169   5.523  0.0646 -0.0000  0.0797
  972loPI    C313853  11.950   1.872   5.346 -0.0097 -0.0141  0.0181
  972loPI   PO413854  12.221   2.298   5.649 -0.0776 -0.0259 -0.1878
  972loPI   GL113855  12.001   2.335   5.972 -0.1213 -0.0967  0.3040
  972loPI   GL213856  11.669   2.368   6.051  0.0883  0.1513 -0.3697
  972loPI   C1A13857  12.214   2.375   6.319 -0.0342 -0.2358  0.0198
  972loPI   C2A13858  12.225   2.560   6.726  0.1668 -0.1396  0.1824
  972loPI   C3A13859  12.099   2.625   7.140 -0.0236  0.1150 -0.2090
  972loPI   C4A13860  11.994   2.361   7.481 -0.1947  0.1245  0.0250
  972loPI   C5A13861  12.215   2.300   7.913 -0.1871 -0.1509  0.3064
  972loPI   C6A13862  12.386   2.030   8.336 -0.4236 -0.0333 -0.0107
  972loPI   C1B13863  11.712   2.547   6.501 -0.2759  0.1138  0.0333
  972loPI   C2B13864  11.701   2.444   6.866 -0.1081  0.1094  0.0548
  972loPI   C3B13865  11.587   2.262   7.199 -0.2126  0.0355  0.4424
  972loPI   C4B13866  11.543   2.224   7.679 -0.0014  0.1796 -0.1429
  973loPI    C113867   0.305  11.676   5.055 -0.2236 -0.0698 -0.0993
  973loPI    C213868   0.640  11.840   4.911 -0.0771 -0.0285  0.2763
  973loPI    C313869   0.523  11.479   4.783  0.0395  0.0122  0.0483
  973loPI   PO413870   0.347  11.614   5.432 -0.0182 -0.0430 -0.1961
  973loPI   GL113871   0.399  11.694   5.914  0.2606  0.0145 -0.3301
  973loPI   GL213872   0.119  11.911   5.882 -0.3201  0.0734 -0.1470
  973loPI   C1A13873   0.486  11.726   6.374  0.3110 -0.2906  0.3479
  973loPI   C2A13874   0.703  11.943   6.754  0.3560  0.4897 -0.0232
  973loPI   C3A13875   0.790  11.853   7.156 -0.2858 -0.1466 -0.1360
  973loPI   C4A13876   1.152  11.813   7.396  0.2517 -0.1241 -0.0353
  973loPI   C5A13877   1.507  11.671   7.596  0.0107 -0.3003  0.0626
  973loPI   C6A13878   1.965  11.614   7.562  0.0545 -0.0646 -0.1328
  973loPI   C1B13879  -0.189  12.038   6.189  0.2319 -0.1471 -0.2122
  973loPI   C2B13880  -0.581  12.104   6.433 -0.3065  0.3439  0.1922
  973loPI   C3B13881  -0.804  11.880   6.780 -0.1012  0.1059  0.0634
  973loPI   C4B13882  -0.861  12.035   7.223 -0.1254  0.2058  0.2061
  974loPI    C113883  10.429  10.749   5.150  0.1133  0.2377 -0.3136
  974loPI    C213884  10.035  10.722   5.084  0.0506 -0.0706  0.1384
  974loPI    C313885  10.277  10.423   4.973  0.0960 -0.0800  0.2616
  974loPI   PO413886  10.392  10.890   5.421  0.4355 -0.0267 -0.0964
  974loPI   GL113887  10.582  10.854   5.846  0.2962  0.4064 -0.0296
  974loPI   GL213888  10.896  10.931   6.035  0.0380 -0.0651 -0.0378
  974loPI   C1A13889  10.306  10.654   6.055  0.2170  0.4266 -0.1991
  974loPI   C2A13890  10.110  10.378   6.352 -0.2307  0.0285  0.0031
  974loPI   C3A13891  10.114  10.338   6.725 -0.0063  0.1877 -0.2452
  974loPI   C4A13892  10.124  10.351   7.080  0.0793  0.0963 -0.1449
  974loPI   C5A13893  10.000  10.333   7.484  0.0950 -0.0954  0.2808
  974loPI   C6A13894   9.852  10.128   7.896  0.0707  0.5772  0.0020
  974loPI   C1B13895  11.115  11.027   6.342 -0.1209  0.2633 -0.1545
  974loPI   C2B13896  11.132  10.946   6.743  0.1520  0.0758 -0.3319
  974loPI   C3B13897  11.272  11.057   7.190  0.1258  0.1322  0.0927
  974loPI   C4B13898  11.355  11.223   7.500  0.1332  0.0518  0.1149
  975loPI    C113899   1.003   8.522   5.341 -0.1057  0.2587  0.0692
  975loPI    C213900   0.970   8.325   4.995 -0.0724  0.0933  0.1589
  975loPI    C313901   1.232   8.626   5.030  0.0044  0.0367  0.0747
  975loPI   PO413902   0.717   8.432   5.424  0.1795  0.2618  0.0588
  975loPI   GL113903   0.634   8.382   5.874  0.1341 -0.4197 -0.3503
  975loPI   GL213904   0.929   8.534   5.991  0.2673  0.3617 -0.2540
  975loPI   C1A13905   0.315   8.330   6.299 -0.1358  0.2013  0.2231
  975loPI   C2A13906   0.290   8.233   6.726  0.0578 -0.0822 -0.1121
  975loPI   C3A13907  -0.003   8.068   7.079 -0.1008  0.0894  0.1032
  975loPI   C4A13908  -0.268   8.207   7.218 -0.0352 -0.2212 -0.1488
  975loPI   C5A13909  -0.493   8.143   7.442  0.0969  0.4961  0.0205
  975loPI   C6A13910  -0.506   7.901   7.736  0.2380  0.1200 -0.0337
  975loPI   C1B13911   1.020   8.687   6.432 -0.0789  0.0876  0.1953
  975loPI   C2B13912   0.870   8.787   6.877  0.3937 -0.2053 -0.0711
  975loPI   C3B13913   0.743   8.724   7.300  0.0321  0.2088  0.2728
  975loPI   C4B13914   0.923   8.756   7.718  0.0590  0.0671 -0.2266
  976loPI    C113915   6.830   2.350   5.938  0.0935 -0.1100  0.0919
  976loPI    C213916   7.066   2.072   5.774 -0.0254 -0.1818  0.0402
  976loPI    C313917   6.883   2.341   5.541  0.0629 -0.0802  0.0870
  976loPI   PO413918   6.981   2.414   6.156  0.1145 -0.0783  0.0164
  976loPI   GL113919   7.014   2.736   6.470  0.3204  0.1310 -0.0162
  976loPI   GL213920   7.166   3.076   6.482  0.1847  0.0437  0.1623
  976loPI   C1A13921   6.838   2.765   6.840  0.0217  0.0237 -0.1535
  976loPI   C2A13922   6.831   2.747   7.353  0.0770 -0.1392 -0.4212
  976loPI   C3A13923   6.874   2.796   7.700  0.1330  0.0268 -0.0604
  976loPI   C4A13924   6.974   2.910   8.166  0.2314  0.0741  0.2430
  976loPI   C5A13925   6.928   3.141   8.607 -0.1419 -0.1972 -0.0266
  976loPI   C6A13926   7.131   3.214   8.987  0.0410 -0.0623  0.0348
  976loPI   C1B13927   7.254   3.185   6.750  0.1625  0.1240 -0.1655
  976loPI   C2B13928   7.219   2.876   7.112  0.0327  0.0618  0.0949
  976loPI   C3B13929   7.404   2.805   7.627 -0.0354  0.0046 -0.4567
  976loPI   C4B13930   7.435   2.900   8.036 -0.0182  0.1785  0.3392
  977loPI    C113931   6.765  16.477   5.922  0.2603 -0.1341 -0.0864
  977loPI    C213932   7.145  16.590   5.868  0.2030  0.2509  0.2670
  977loPI    C313933   6.847  16.813   5.722  0.1057  0.0656  0.1789
  977loPI   PO413934   6.720  16.351   6.181 -0.2505 -0.4272  0.1251
  977loPI   GL113935   6.790  16.401   6.638  0.1676  0.2317 -0.1348
  977loPI   GL213936   6.525  16.641   6.673  0.0593 -0.0187  0.1283
  977loPI   C1A13937   6.877  16.391   7.002  0.3587 -0.0628  0.0742
  977loPI   C2A13938   6.886  16.401   7.518  0.0188 -0.1036 -0.0561
  977loPI   C3A13939   6.945  16.714   7.752 -0.0720  0.2120  0.0284
  977loPI   C4A13940   7.282  16.962   7.975 -0.5193 -0.0100 -0.0756
  977loPI   C5A13941   7.524  17.257   8.216  0.2138  0.0720 -0.0302
  977loPI   C6A13942   7.774  17.592   8.511 -0.2583  0.3339 -0.1281
  977loPI   C1B13943   6.196  16.838   6.876  0.0042  0.1461  0.3767
  977loPI   C2B13944   5.832  17.108   6.970  0.2211  0.3476 -0.0883
  977loPI   C3B13945   5.771  17.579   7.052 -0.2723  0.0771  0.2115
  977loPI   C4B13946   6.077  17.947   6.983 -0.0845  0.0946  0.2236
  978loPI    C113947  10.261   9.974   5.586  0.2865  0.0897  0.0447
  978loPI    C213948   9.993   9.752   5.387  0.2484  0.0997  0.0847
  978loPI    C313949  10.253   9.981   5.186 -0.0613  0.4313  0.0520
  978loPI   PO413950  10.300   9.879   5.844  0.3258  0.0548  0.3469
  978loPI   GL113951  10.576   9.722   6.026 -0.0891 -0.0719  0.0201
  978loPI   GL213952  10.733   9.475   6.046  0.0928 -0.6086 -0.3786
  978loPI   C1A13953  10.594   9.996   6.395  0.0555  0.0193 -0.1405
  978loPI   C2A13954  10.580  10.097   6.978  0.4594  0.2593  0.1609
  978loPI   C3A13955  10.512  10.120   7.469 -0.1829  0.0347 -0.0053
  978loPI   C4A13956  10.756  10.186   7.922  0.0217  0.1340 -0.2674
  978loPI   C5A13957  10.987  10.271   8.332 -0.0860 -0.0175 -0.0965
  978loPI   C6A13958  10.998  10.270   8.749 -0.0282  0.1837  0.3900
  978loPI   C1B13959  10.631   9.481   6.459  0.1645 -0.2054  0.0687
  978loPI   C2B13960  10.734   9.677   6.779 -0.0920  0.0776 -0.2200
  978loPI   C3B13961  10.659   9.657   7.257 -0.1719 -0.1141 -0.1491
  978loPI   C4B13962  10.651   9.669   7.647  0.0146  0.3180 -0.0942
  979loPI    C113963   7.216   0.840   6.225  0.1404 -0.1813 -0.0351
  979loPI    C213964   7.507   0.592   6.109  0.3229 -0.0057  0.0422
  979loPI    C313965   7.446   0.935   5.912 -0.2282 -0.3160 -0.3553
  979loPI   PO413966   7.011   0.718   6.265  0.0750 -0.0526  0.0161
  979loPI   GL113967   6.844   0.961   6.666 -0.1715  0.1852  0.0091
  979loPI   GL213968   6.727   0.700   6.632  0.2661 -0.2034 -0.3388
  979loPI   C1A13969   6.789   1.235   7.001  0.4551  0.0382 -0.0608
  979loPI   C2A13970   6.755   1.276   7.454  0.0619  0.0080 -0.0043
  979loPI   C3A13971   6.612   1.240   7.854  0.0416 -0.0687  0.0845
  979loPI   C4A13972   6.501   1.006   8.304 -0.3419  0.2183  0.1215
  979loPI   C5A13973   6.422   0.719   8.660 -0.2142 -0.4152  0.2759
  979loPI   C6A13974   6.288   0.285   8.743  0.1096  0.3073 -0.0908
  979loPI   C1B13975   6.660   0.817   7.136  0.0402  0.2350  0.1193
  979loPI   C2B13976   6.605   0.741   7.623  0.0885 -0.0012  0.0462
  979loPI   C3B13977   6.426   0.526   7.857  0.1829  0.3727  0.1838
  979loPI   C4B13978   6.265   0.446   8.213  0.1286  0.4262 -0.3830
  980loPI    C113979  17.946   0.454   5.935 -0.1212 -0.0947  0.1118
  980loPI    C213980  17.749   0.795   6.001  0.1540  0.0957 -0.0317
  980loPI    C313981  17.761   0.640   5.633  0.0478 -0.0597  0.0291
  980loPI   PO413982  17.907   0.343   6.251  0.1064  0.1650  0.0100
  980loPI   GL113983  17.698   0.616   6.469 -0.2833  0.2401  0.0648
  980loPI   GL213984  17.442   0.686   6.373  0.1449 -0.1887 -0.2005
  980loPI   C1A13985  17.786   0.524   6.913 -0.3736  0.0360 -0.0333
  980loPI   C2A13986  17.710   0.627   7.251  0.1823 -0.1935 -0.0319
  980loPI   C3A13987  17.410   0.626   7.567 -0.0500 -0.0191  0.1974
  980loPI   C4A13988  17.200   0.895   7.797  0.1767  0.0713 -0.0869
  980loPI   C5A13989  17.189   1.256   8.053 -0.3899 -0.0728  0.1412
  980loPI   C6A13990  16.936   1.698   8.038  0.0294  0.3527 -0.1142
  980loPI   C1B13991  17.296   0.443   6.738  0.2910  0.1417  0.1519
  980loPI   C2B13992  17.231   0.524   7.148 -0.0616 -0.1031  0.3593
  980loPI   C3B13993  16.953   0.425   7.571  0.1404  0.3291 -0.2652
  980loPI   C4B13994  17.162   0.367   7.968 -0.3207  0.0684  0.0718
  981loPI    C113995  13.089   6.196   5.480  0.0542  0.0259  0.3640
  981loPI    C213996  13.467   6.300   5.403  0.0128  0.0368  0.1710
  981loPI    C313997  13.186   6.345   5.123 -0.0607 -0.3259  0.1808
  981loPI   PO413998  13.053   6.366   5.708 -0.2938 -0.0516 -0.1408
  981loPI   GL113999  12.722   6.519   5.998 -0.1307 -0.0289 -0.3068
  981loPI   GL214000  13.043   6.444   6.194  0.2632 -0.2984 -0.0259
  981loPI   C1A14001  12.664   6.499   6.516  0.0115  0.0699 -0.1834
  981loPI   C2A14002  12.714   6.500   6.995 -0.0081 -0.1832  0.0278
  981loPI   C3A14003  12.403   6.250   7.190 -0.1470 -0.0269  0.1264
  981loPI   C4A14004  12.271   5.976   7.474 -0.1340 -0.2544  0.0344
  981loPI   C5A14005  11.940   5.790   7.804 -0.1277 -0.0687  0.2284
  981loPI   C6A14006  11.487   5.675   7.904 -0.1863 -0.2331 -0.1880
  981loPI   C1B14007  13.157   6.425   6.604 -0.2895  0.0685 -0.0984
  981loPI   C2B14008  13.569   6.621   6.906 -0.1788 -0.1847  0.1869
  981loPI   C3B14009  13.648   6.541   7.388  0.1945  0.1647 -0.1409
  981loPI   C4B14010  13.902   6.548   7.823  0.0873 -0.0158 -0.1815
  982loPI    C114011   4.783  11.969   5.862  0.2395 -0.4580  0.1659
  982loPI    C214012   5.098  12.170   6.005  0.0326  0.1076 -0.1419
  982loPI    C314013   5.047  12.133   5.610 -0.3917  0.2022 -0.1011
  982loPI   PO414014   4.613  12.009   5.978 -0.4846  0.0576 -0.1754
  982loPI   GL114015   4.522  12.167   6.350  0.2298  0.1111 -0.1186
  982loPI   GL214016   4.861  12.230   6.407 -0.1508 -0.2718 -0.1309
  982loPI   C1A14017   4.258  11.961   6.621  0.1117 -0.1564 -0.1387
  982loPI   C2A14018   4.108  11.917   7.017 -0.1935 -0.1640 -0.2354
  982loPI   C3A14019   3.801  11.814   7.355 -0.1266  0.0196  0.0030
  982loPI   C4A14020   3.530  12.000   7.584  0.1417 -0.1019  0.1517
  982loPI   C5A14021   3.257  12.138   7.866  0.3446 -0.3145  0.4565
  982loPI   C6A14022   2.925  11.998   8.102  0.1190  0.3795  0.0900
  982loPI   C1B14023   4.653  12.239   6.846 -0.0804 -0.1521  0.1888
  982loPI   C2B14024   4.543  12.139   7.168  0.0058  0.1438  0.1524
  982loPI   C3B14025   4.635  12.214   7.602  0.3483  0.0063 -0.2182
  982loPI   C4B14026   4.472  12.242   8.020  0.3487 -0.1184  0.0477
  983loPI    C114027   1.260   3.956   5.703  0.0344  0.0057 -0.2083
  983loPI    C214028   1.403   3.599   5.595  0.0798 -0.0529  0.0402
  983loPI    C314029   1.018   3.688   5.530  0.0252 -0.2139  0.1353
  983loPI   PO414030   1.367   4.010   5.942  0.0201 -0.1942 -0.2021
  983loPI   GL114031   1.250   4.029   6.369 -0.2018 -0.1242 -0.2469
  983loPI   GL214032   1.200   3.692   6.343  0.0666 -0.0598  0.1763
  983loPI   C1A14033   1.120   3.932   6.767  0.0261 -0.1934 -0.0183
  983loPI   C2A14034   1.075   3.895   7.220  0.1550 -0.0988  0.5186
  983loPI   C3A14035   1.102   4.050   7.649  0.3588  0.1578 -0.0405
  983loPI   C4A14036   1.222   4.215   8.025  0.0385  0.1392 -0.1331
  983loPI   C5A14037   0.999   4.243   8.391  0.1275  0.0370  0.1255
  983loPI   C6A14038   0.963   4.142   8.737  0.0190  0.3363 -0.1736
  983loPI   C1B14039   1.270   3.439   6.713  0.1923  0.0987 -0.2192
  983loPI   C2B14040   1.289   3.389   7.167 -0.1040 -0.0384  0.0595
  983loPI   C3B14041   1.202   3.562   7.646  0.3784  0.0893 -0.0493
  983loPI   C4B14042   1.051   3.666   8.065 -0.3071  0.0548 -0.0433
  984loPI    C114043  10.830  10.600   5.404  0.1443 -0.1083 -0.1492
  984loPI    C214044  10.494  10.428   5.538 -0.0412  0.1739 -0.2436
  984loPI    C314045  10.691  10.268   5.229  0.0031 -0.0840 -0.0848
  984loPI   PO414046  10.952  10.648   5.639  0.0025  0.1983 -0.0236
  984loPI   GL114047  11.127  10.421   5.902  0.3457 -0.0957  0.0216
  984loPI   GL214048  11.431  10.234   5.987  0.0020  0.0385 -0.0987
  984loPI   C1A14049  11.289  10.549   6.358 -0.0010  0.3592 -0.0627
  984loPI   C2A14050  11.454  10.506   6.738  0.3047 -0.0603  0.5549
  984loPI   C3A14051  11.224  10.550   7.029 -0.2434  0.0460 -0.0878
  984loPI   C4A14052  11.349  10.741   7.556  0.1320 -0.1819 -0.3912
  984loPI   C5A14053  11.386  11.000   8.035  0.1038 -0.0676  0.1096
  984loPI   C6A14054  11.320  11.492   8.073 -0.1522 -0.4629 -0.0811
  984loPI   C1B14055  11.447  10.062   6.400  0.0483  0.0059  0.3130
  984loPI   C2B14056  11.193  10.084   6.687 -0.3483  0.2354 -0.1335
  984loPI   C3B14057  11.015  10.084   7.125 -0.5216  0.0080  0.1206
  984loPI   C4B14058  11.013  10.048   7.522  0.1102 -0.0806  0.3480
  985loPI    C114059   8.453   9.309   5.683  0.1298 -0.1581  0.2166
  985loPI    C214060   8.645   9.645   5.584  0.3062 -0.3179  0.0059
  985loPI    C314061   8.283   9.570   5.433  0.2264 -0.1808  0.1263
  985loPI   PO414062   8.553   9.319   5.974  0.0717 -0.0396  0.2907
  985loPI   GL114063   8.568   9.505   6.381 -0.0167 -0.2998 -0.8772
  985loPI   GL214064   8.446   9.217   6.515  0.0898 -0.4488 -0.0731
  985loPI   C1A14065   8.462   9.604   6.766  0.0946  0.0228 -0.2168
  985loPI   C2A14066   8.613   9.603   7.272 -0.3659  0.4078  0.4157
  985loPI   C3A14067   8.602   9.335   7.628  0.2267  0.1688 -0.1405
  985loPI   C4A14068   8.507   9.002   7.869 -0.2011 -0.1274  0.1727
  985loPI   C5A14069   8.557   8.585   7.975  0.0146 -0.2667 -0.0157
  985loPI   C6A14070   8.655   8.184   8.230 -0.2145  0.3056 -0.0931
  985loPI   C1B14071   8.470   9.040   6.914  0.2420 -0.1501  0.0536
  985loPI   C2B14072   8.268   9.247   7.175 -0.0350  0.2914  0.0519
  985loPI   C3B14073   8.128   9.181   7.611  0.1390  0.2295  0.1060
  985loPI   C4B14074   8.084   9.115   8.072 -0.0382  0.1064 -0.2324
  986loPI    C114075  10.052  12.925   5.992 -0.0731 -0.0588  0.0952
  986loPI    C214076  10.129  12.932   5.600  0.0478 -0.1364  0.1169
  986loPI    C314077   9.755  12.985   5.731  0.0323  0.0550  0.0001
  986loPI   PO414078  10.237  13.012   6.112 -0.0439 -0.1842 -0.1288
  986loPI   GL114079  10.196  13.196   6.468  0.2176 -0.2377  0.1053
  986loPI   GL214080   9.999  12.899   6.549  0.2513 -0.1972 -0.1259
  986loPI   C1A14081  10.487  12.906   6.648 -0.0690 -0.0754  0.0597
  986loPI   C2A14082  10.596  12.801   7.071 -0.0669  0.0926  0.3707
  986loPI   C3A14083  10.245  12.915   7.452 -0.0970  0.2681 -0.2141
  986loPI   C4A14084  10.411  12.975   7.855 -0.0808  0.0815 -0.2698
  986loPI   C5A14085  10.855  12.751   8.003  0.2919  0.0715  0.0662
  986loPI   C6A14086  11.278  12.611   7.961  0.0884 -0.0046 -0.1837
  986loPI   C1B14087  10.035  12.962   6.961  0.0594 -0.2552  0.2699
  986loPI   C2B14088  10.417  13.278   6.983  0.0954  0.0018  0.1847
  986loPI   C3B14089  10.620  13.386   7.350 -0.0781 -0.0416 -0.2627
  986loPI   C4B14090  10.989  13.442   7.668 -0.0808  0.4023 -0.0535
  987loPI    C114091  17.447  12.547   5.642  0.1614 -0.0582  0.0175
  987loPI    C214092  17.740  12.300   5.757  0.1429 -0.0899 -0.0031
  987loPI    C314093  17.734  12.442   5.383  0.3104  0.1665  0.0887
  987loPI   PO414094  17.412  12.786   5.844  0.0906  0.0614 -0.2131
  987loPI   GL114095  17.652  12.714   6.146 -0.2937 -0.0054  0.3352
  987loPI   GL214096  17.832  12.524   6.219 -0.0848  0.1249 -0.0347
  987loPI   C1A14097  17.475  12.906   6.588 -0.0523  0.1236  0.1004
  987loPI   C2A14098  17.405  12.765   7.021 -0.2265  0.3576  0.2405
  987loPI   C3A14099  17.506  12.451   7.336  0.3886 -0.0228 -0.1870
  987loPI   C4A14100  17.486  12.201   7.630  0.0787 -0.2863 -0.0281
  987loPI   C5A14101  17.451  11.668   7.505  0.1714 -0.0606  0.0060
  987loPI   C6A14102  17.044  11.539   7.290  0.0995 -0.0402 -0.0026
  987loPI   C1B14103  18.018  12.422   6.676 -0.2563 -0.1045 -0.0168
  987loPI   C2B14104  17.944  12.357   7.138 -0.0657  0.3423  0.2097
  987loPI   C3B14105  18.010  12.395   7.576  0.0457 -0.1465 -0.4831
  987loPI   C4B14106  17.770  12.447   7.971 -0.0328 -0.0180  0.0796
  988loPI    C114107  12.775   9.439   5.520 -0.0660 -0.1316 -0.0824
  988loPI    C214108  12.529   9.420   5.205  0.1719  0.0146 -0.2814
  988loPI    C314109  12.809   9.705   5.223  0.1917 -0.0211  0.0425
  988loPI   PO414110  12.573   9.289   5.668  0.0798 -0.1709 -0.1916
  988loPI   GL114111  12.328   9.281   5.982 -0.0344 -0.1758 -0.3592
  988loPI   GL214112  12.516   9.154   6.219  0.0400  0.0792  0.0617
  988loPI   C1A14113  12.105   9.310   6.409  0.1035  0.1534 -0.0321
  988loPI   C2A14114  12.078   9.320   6.861  0.0856 -0.1048 -0.1792
  988loPI   C3A14115  11.991   9.478   7.205 -0.0234 -0.1117 -0.2365
  988loPI   C4A14116  11.935   9.719   7.457 -0.0638  0.1087  0.3711
  988loPI   C5A14117  11.936   9.744   7.859  0.2216 -0.0447  0.0124
  988loPI   C6A14118  11.918   9.462   8.109 -0.2693  0.1590 -0.2918
  988loPI   C1B14119  12.540   9.125   6.655 -0.1258 -0.0654 -0.1440
  988loPI   C2B14120  12.469   9.050   7.059  0.2306 -0.0172  0.1777
  988loPI   C3B14121  12.574   9.031   7.490 -0.0440 -0.1971 -0.2115
  988loPI   C4B14122  12.743   9.424   7.825 -0.0380  0.3018  0.0152
  989loPI    C114123  17.724  11.153   5.083  0.1319 -0.1742  0.1925
  989loPI    C214124  17.903  11.482   5.223  0.0931 -0.0648 -0.0107
  989loPI    C314125  18.085  11.257   4.948 -0.0080 -0.0468 -0.0929
  989loPI   PO414126  17.624  11.002   5.398  0.1256  0.1338  0.2515
  989loPI   GL114127  17.550  11.152   5.860  0.0125 -0.1316  0.2106
  989loPI   GL214128  17.874  11.273   5.870 -0.1019 -0.1510 -0.2230
  989loPI   C1A14129  17.384  11.022   6.193  0.2655 -0.0348 -0.2871
  989loPI   C2A14130  17.583  10.542   6.433  0.0157  0.1085  0.0125
  989loPI   C3A14131  17.625  10.388   6.802  0.0965 -0.2363 -0.1622
  989loPI   C4A14132  17.769  10.251   7.216 -0.2125  0.0615  0.0806
  989loPI   C5A14133  17.962   9.874   7.350 -0.2048  0.0269  0.1659
  989loPI   C6A14134  18.138   9.407   7.320  0.1548 -0.2748  0.1500
  989loPI   C1B14135  17.670  11.552   6.131 -0.4257 -0.3356  0.2060
  989loPI   C2B14136  17.534  11.598   6.488  0.0662  0.2347  0.2339
  989loPI   C3B14137  17.261  11.389   6.804  0.1426  0.0269 -0.1999
  989loPI   C4B14138  16.821  11.461   6.830 -0.0152 -0.1689  0.1834
  990loPI    C114139  12.891  14.108   5.927  0.0066 -0.2082  0.1126
  990loPI    C214140  12.684  13.766   5.929 -0.2179 -0.0806 -0.2401
  990loPI    C314141  12.923  13.853   5.620 -0.0833  0.0366 -0.1045
  990loPI   PO414142  12.739  14.270   6.003  0.1387 -0.1182 -0.2111
  990loPI   GL114143  12.653  14.369   6.426 -0.0078 -0.2866  0.0111
  990loPI   GL214144  12.993  14.551   6.307  0.5496  0.0084 -0.0038
  990loPI   C1A14145  12.514  14.375   6.845 -0.0276  0.0170 -0.2592
  990loPI   C2A14146  12.513  14.296   7.211  0.1991  0.0313  0.0615
  990loPI   C3A14147  12.597  14.386   7.586 -0.1904  0.0431 -0.0641
  990loPI   C4A14148  12.562  14.530   7.928  0.2495 -0.0272 -0.2854
  990loPI   C5A14149  12.558  14.257   8.218  0.0428  0.2095 -0.3215
  990loPI   C6A14150  12.414  13.915   8.513 -0.4131 -0.1016  0.0584
  990loPI   C1B14151  13.056  14.522   6.812  0.2266  0.1465  0.0328
  990loPI   C2B14152  13.001  14.543   7.304 -0.2172  0.0918 -0.0185
  990loPI   C3B14153  13.119  14.433   7.794  0.2178  0.4813 -0.0993
  990loPI   C4B14154  12.977  14.118   7.912  0.3381  0.0368  0.0614
  991loPI    C114155   1.844   4.705   5.689 -0.0622  0.1332 -0.1205
  991loPI    C214156   1.482   4.776   5.535  0.0022  0.1076 -0.2851
  991loPI    C314157   1.786   4.678   5.294  0.0521 -0.1507 -0.1204
  991loPI   PO414158   1.742   4.741   5.970 -0.0511 -0.1732 -0.0642
  991loPI   GL114159   1.678   4.823   6.460 -0.1545 -0.1710  0.2189
  991loPI   GL214160   1.867   4.764   6.588  0.0715 -0.1971 -0.0558
  991loPI   C1A14161   1.378   4.819   6.776 -0.2169  0.2967 -0.0271
  991loPI   C2A14162   1.212   4.895   7.151  0.1124 -0.1339  0.1039
  991loPI   C3A14163   1.182   5.049   7.573  0.1694  0.0231 -0.1676
  991loPI   C4A14164   1.374   5.242   7.940  0.0902 -0.0520 -0.0613
  991loPI   C5A14165   1.510   5.170   8.350 -0.0789  0.0880 -0.0722
  991loPI   C6A14166   1.846   4.828   8.373 -0.0126 -0.1118 -0.2369
  991loPI   C1B14167   1.746   4.870   7.081 -0.0014 -0.2510 -0.0604
  991loPI   C2B14168   1.680   4.738   7.441  0.3163 -0.0955  0.1912
  991loPI   C3B14169   1.622   4.795   7.851 -0.1716 -0.0627 -0.1383
  991loPI   C4B14170   1.154   4.730   8.042  0.1704  0.0791  0.0096
  992loPI    C114171  13.692   1.177   5.720  0.0209  0.0097  0.1450
  992loPI    C214172  13.631   0.938   5.405  0.0089 -0.0605  0.2005
  992loPI    C314173  13.333   1.010   5.662  0.0291 -0.0335  0.2165
  992loPI   PO414174  13.909   1.078   5.853 -0.1608 -0.2102 -0.0578
  992loPI   GL114175  13.800   0.737   6.145 -0.1258  0.4429 -0.0063
  992loPI   GL214176  13.433   0.777   6.089  0.1104  0.4835  0.0326
  992loPI   C1A14177  13.939   0.481   6.461  0.0628  0.0417 -0.1021
  992loPI   C2A14178  14.110   0.450   6.844  0.1385  0.4793  0.0059
  992loPI   C3A14179  14.166   0.141   7.196 -0.0858  0.1453 -0.0648
  992loPI   C4A14180  14.044  -0.179   7.372  0.1523  0.0341 -0.0717
  992loPI   C5A14181  13.681  -0.430   7.549  0.0035  0.0600  0.2239
  992loPI   C6A14182  13.203  -0.518   7.824 -0.1345  0.0603 -0.0333
  992loPI   C1B14183  13.322   0.467   6.440  0.3034 -0.2640 -0.0593
  992loPI   C2B14184  13.210   0.420   6.830  0.0124  0.0689  0.0276
  992loPI   C3B14185  13.133   0.487   7.306  0.2186 -0.1087  0.0596
  992loPI   C4B14186  13.269   0.320   7.735  0.0865  0.0896  0.2016
  993loPI    C114187  10.848   3.886   5.882 -0.1509 -0.0866  0.0456
  993loPI    C214188  10.728   3.711   5.542 -0.3581  0.0844  0.0289
  993loPI    C314189  10.856   3.487   5.848 -0.2767 -0.0760 -0.1211
  993loPI   PO414190  10.735   4.150   5.902  0.1022  0.1355 -0.1256
  993loPI   GL114191  10.878   4.408   6.202  0.0247 -0.1066 -0.0177
  993loPI   GL214192  11.146   4.531   6.294 -0.1074  0.2510  0.1308
  993loPI   C1A14193  10.960   4.262   6.714  0.0847 -0.1877 -0.2075
  993loPI   C2A14194  10.998   4.212   7.149 -0.2303  0.2067 -0.0620
  993loPI   C3A14195  10.880   4.159   7.519 -0.1552  0.2668  0.1414
  993loPI   C4A14196  10.763   4.429   7.812 -0.1701  0.0316 -0.1232
  993loPI   C5A14197  10.848   4.778   8.150  0.0615  0.5612 -0.0937
  993loPI   C6A14198  10.655   5.093   8.210 -0.3579 -0.0150 -0.1199
  993loPI   C1B14199  11.357   4.492   6.635  0.1944  0.0850  0.2343
  993loPI   C2B14200  11.316   4.580   6.981 -0.1578  0.2919 -0.0474
  993loPI   C3B14201  11.401   4.436   7.401  0.2164  0.0922  0.0404
  993loPI   C4B14202  11.271   4.443   7.789  0.2219  0.0131 -0.1225
  994loPI    C114203   8.463   4.679   5.711  0.4903 -0.0545 -0.2124
  994loPI    C214204   8.255   4.912   5.961  0.2653 -0.3407 -0.1273
  994loPI    C314205   8.216   4.958   5.566  0.0969 -0.3415 -0.1114
  994loPI   PO414206   8.589   4.476   5.924  0.0549 -0.1710  0.2352
  994loPI   GL114207   8.656   4.683   6.253 -0.1657  0.0664 -0.2099
  994loPI   GL214208   8.482   4.851   6.381 -0.0010  0.0733  0.1143
  994loPI   C1A14209   8.649   4.349   6.566 -0.2222 -0.0175  0.0721
  994loPI   C2A14210   8.496   4.077   6.841 -0.4104 -0.1674  0.0952
  994loPI   C3A14211   8.418   3.876   7.131  0.0628 -0.0801  0.1777
  994loPI   C4A14212   8.183   3.843   7.478 -0.1547  0.2743 -0.2878
  994loPI   C5A14213   8.470   3.742   7.658  0.1704  0.1742 -0.2020
  994loPI   C6A14214   8.667   3.529   8.059  0.0985 -0.1699  0.0673
  994loPI   C1B14215   8.567   4.760   6.840  0.1978 -0.0292  0.1174
  994loPI   C2B14216   8.390   4.509   7.196  0.0245  0.2247 -0.2468
  994loPI   C3B14217   8.442   4.253   7.563  0.0006  0.2921  0.2501
  994loPI   C4B14218   8.375   4.242   8.121  0.0686  0.0304  0.0469
  995loPI    C114219  16.487  10.221   5.013  0.0724  0.2919  0.3375
  995loPI    C214220  16.501  10.561   4.803 -0.3266  0.1445  0.0600
  995loPI    C314221  16.703  10.240   4.677 -0.0016  0.2542  0.2875
  995loPI   PO414222  16.325  10.444   5.246 -0.2236  0.0759  0.0886
  995loPI   GL114223  16.271  10.611   5.556 -0.4141  0.0319  0.0370
  995loPI   GL214224  16.508  10.753   5.721  0.4724  0.1719 -0.2989
  995loPI   C1A14225  16.176  10.454   5.953  0.3025 -0.1236  0.0182
  995loPI   C2A14226  16.226  10.458   6.339  0.0546 -0.1516 -0.2351
  995loPI   C3A14227  16.244  10.573   6.699 -0.2501 -0.0829  0.0752
  995loPI   C4A14228  16.120  10.705   7.159 -0.1659  0.1255  0.2443
  995loPI   C5A14229  15.750  10.760   7.319  0.5889  0.0366 -0.0144
  995loPI   C6A14230  15.516  10.707   7.761 -0.0503 -0.1749  0.2124
  995loPI   C1B14231  16.670  10.583   6.136  0.0391 -0.0174  0.0623
  995loPI   C2B14232  16.685  10.574   6.525 -0.1350  0.0398  0.0055
  995loPI   C3B14233  16.657  10.613   6.979 -0.0505  0.0728  0.1491
  995loPI   C4B14234  16.703  10.767   7.435 -0.1480  0.1809 -0.2038
  996loPI    C114235  10.476   6.722   5.056 -0.1923 -0.0534 -0.1087
  996loPI    C214236  10.823   6.531   4.997 -0.1512  0.0888 -0.3392
  996loPI    C314237  10.477   6.330   4.978 -0.0746 -0.0941  0.0899
  996loPI   PO414238  10.575   6.854   5.320  0.0581 -0.4752  0.1603
  996loPI   GL114239  10.336   6.734   5.718 -0.0895 -0.0614 -0.1745
  996loPI   GL214240  10.552   6.681   5.907  0.1153 -0.1949 -0.0931
  996loPI   C1A14241  10.112   6.890   6.083  0.1784  0.0198 -0.0884
  996loPI   C2A14242  10.054   6.919   6.460  0.1548 -0.1019  0.0062
  996loPI   C3A14243  10.082   6.960   6.860  0.2952  0.1575  0.3720
  996loPI   C4A14244  10.160   6.977   7.301 -0.2473 -0.1878  0.3252
  996loPI   C5A14245  10.190   6.895   7.809 -0.1371 -0.0169  0.2977
  996loPI   C6A14246  10.199   6.576   7.989 -0.0978  0.0598  0.1743
  996loPI   C1B14247  10.525   6.920   6.285  0.0794 -0.0271 -0.0416
  996loPI   C2B14248  10.646   6.928   6.685  0.1335  0.5856 -0.1014
  996loPI   C3B14249  10.565   7.072   7.118  0.1247  0.1543 -0.0264
  996loPI   C4B14250  10.539   7.306   7.524 -0.0950  0.0883 -0.1076
  997loPI    C114251  12.297   1.437   5.368 -0.1342  0.1927 -0.2160
  997loPI    C214252  12.469   1.761   5.208  0.0444  0.0649 -0.2849
  997loPI    C314253  12.651   1.405   5.185 -0.2025 -0.0620 -0.3069
  997loPI   PO414254  12.274   1.485   5.605  0.2486  0.1067  0.1171
  997loPI   GL114255  12.385   1.549   5.905  0.1983  0.1339  0.2485
  997loPI   GL214256  12.404   1.940   5.898  0.1509 -0.1683  0.1656
  997loPI   C1A14257  12.220   1.398   6.260 -0.1463  0.0531 -0.0154
  997loPI   C2A14258  12.269   1.598   6.604 -0.2705 -0.0152  0.0927
  997loPI   C3A14259  12.376   1.632   7.033 -0.0181 -0.0323  0.0196
  997loPI   C4A14260  12.518   1.331   7.343 -0.2255  0.0800 -0.1252
  997loPI   C5A14261  12.416   1.206   7.681 -0.0767 -0.3010  0.2577
  997loPI   C6A14262  12.139   1.094   8.091  0.0982 -0.1842  0.3065
  997loPI   C1B14263  12.567   2.016   6.281 -0.1138  0.1915 -0.0188
  997loPI   C2B14264  12.443   2.050   6.720 -0.4630  0.2611 -0.0557
  997loPI   C3B14265  12.665   2.048   7.149 -0.2376  0.2087  0.1818
  997loPI   C4B14266  12.745   1.771   7.503 -0.3200 -0.0954 -0.0043
  998loPI    C114267   1.140  16.922   5.923  0.0369 -0.0365  0.1964
  998loPI    C214268   1.202  17.262   5.722  0.0320 -0.0310  0.2041
  998loPI    C314269   1.488  16.983   5.736 -0.0412 -0.1167  0.0218
  998loPI   PO414270   0.898  16.867   5.895 -0.1451  0.0328 -0.0212
  998loPI   GL114271   0.724  17.167   6.209 -0.1071  0.0532 -0.2034
  998loPI   GL214272   0.583  16.913   6.319  0.2293 -0.1873  0.0920
  998loPI   C1A14273   0.772  17.274   6.596  0.3968  0.1447  0.1120
  998loPI   C2A14274   0.679  17.292   7.037 -0.3350  0.0898 -0.0671
  998loPI   C3A14275   0.560  17.422   7.387 -0.1223  0.1002  0.0215
  998loPI   C4A14276   0.641  17.652   7.740  0.0886 -0.1603  0.2624
  998loPI   C5A14277   0.661  17.563   8.078 -0.0961  0.0747 -0.1280
  998loPI   C6A14278   0.591  17.620   8.535  0.2403 -0.0925  0.3029
  998loPI   C1B14279   0.495  16.851   6.755 -0.0524 -0.0282 -0.0697
  998loPI   C2B14280   0.477  16.507   6.984 -0.0133  0.0283 -0.1901
  998loPI   C3B14281   0.096  16.205   7.178  0.3581 -0.0873  0.2335
  998loPI   C4B14282   0.127  16.009   7.574  0.0128  0.1658 -0.0570
  999loPI    C114283   1.410   5.974   5.854  0.1436  0.2054  0.1843
  999loPI    C214284   1.446   6.115   5.482  0.0311 -0.0462  0.0761
  999loPI    C314285   1.096   6.143   5.673 -0.0594 -0.3787 -0.0332
  999loPI   PO414286   1.627   6.145   5.980  0.3967  0.0209  0.0625
  999loPI   GL114287   1.954   5.966   6.190  0.3921 -0.2006  0.1608
  999loPI   GL214288   1.715   5.804   6.435 -0.0993  0.1007  0.2795
  999loPI   C1A14289   2.031   6.178   6.587 -0.0702  0.1519  0.3276
  999loPI   C2A14290   1.850   6.224   7.021  0.2248  0.1890  0.1657
  999loPI   C3A14291   1.752   6.146   7.449 -0.1507  0.0354 -0.1034
  999loPI   C4A14292   1.794   6.148   7.869 -0.0847  0.4961 -0.0919
  999loPI   C5A14293   1.700   6.434   8.125  0.1692  0.1243  0.2066
  999loPI   C6A14294   1.336   6.415   8.446 -0.1456 -0.1432  0.1821
  999loPI   C1B14295   1.560   5.895   6.816  0.1962 -0.0272  0.0480
  999loPI   C2B14296   1.479   5.802   7.201  0.4196 -0.2316  0.0430
  999loPI   C3B14297   1.562   5.700   7.597 -0.2710 -0.0649 -0.0070
  999loPI   C4B14298   1.659   5.677   8.047  0.1800  0.2354 -0.2207
 1000loPI    C114299   8.134  14.956   5.916  0.2786  0.0235 -0.0357
 1000loPI    C214300   8.018  14.628   5.719 -0.2107  0.1455  0.0363
 1000loPI    C314301   8.172  14.938   5.519 -0.1070  0.0224 -0.0761
 1000loPI   PO414302   8.373  14.863   6.043  0.4826  0.0934  0.3422
 1000loPI   GL114303   8.584  14.790   6.496  0.1314  0.1616  0.3261
 1000loPI   GL214304   8.321  14.747   6.559  0.0805  0.0421 -0.0896
 1000loPI   C1A14305   8.570  14.939   6.958 -0.0802 -0.1579  0.0457
 1000loPI   C2A14306   8.840  14.984   7.277  0.3180 -0.1195 -0.1080
 1000loPI   C3A14307   9.013  14.934   7.638  0.0375 -0.1426 -0.4160
 1000loPI   C4A14308   9.319  15.065   7.924  0.2635 -0.2700 -0.4221
 1000loPI   C5A14309   9.323  14.939   8.413 -0.0300  0.0272 -0.0434
 1000loPI   C6A14310   9.668  14.999   8.637  0.1689  0.0903  0.4084
 1000loPI   C1B14311   8.492  14.465   6.859  0.2285  0.5178 -0.0044
 1000loPI   C2B14312   8.436  14.504   7.290 -0.0154 -0.4024  0.3254
 1000loPI   C3B14313   8.622  14.545   7.666  0.3875 -0.3202  0.1299
 1000loPI   C4B14314   8.930  14.656   8.035  0.2044 -0.0551  0.1956
 1001loPI    C114315   8.415   2.898   5.823  0.0193 -0.0009 -0.0366
 1001loPI    C214316   8.367   2.501   5.822 -0.1373  0.0170 -0.1986
 1001loPI    C314317   8.273   2.714   5.498 -0.3453  0.2204 -0.0079
 1001loPI   PO414318   8.602   2.967   5.921 -0.1109  0.5251 -0.0412
 1001loPI   GL114319   8.841   3.010   6.238  0.0645  0.2369  0.0751
 1001loPI   GL214320   9.186   3.003   6.404  0.2671  0.2317 -0.2445
 1001loPI   C1A14321   8.696   2.942   6.727 -0.0807 -0.1746 -0.1347
 1001loPI   C2A14322   8.757   2.998   7.180  0.0929 -0.1465 -0.1760
 1001loPI   C3A14323   9.083   3.021   7.401  0.1597  0.0387 -0.0901
 1001loPI   C4A14324   9.355   2.807   7.754 -0.2433  0.0621 -0.3064
 1001loPI   C5A14325   9.314   2.477   8.015  0.2958  0.1931 -0.2536
 1001loPI   C6A14326   9.129   2.427   8.512  0.0547  0.1525  0.0422
 1001loPI   C1B14327   9.206   2.838   6.865  0.2997 -0.0993  0.0440
 1001loPI   C2B14328   9.329   2.608   7.208 -0.2849  0.0328  0.2435
 1001loPI   C3B14329   9.518   2.358   7.520 -0.3986  0.2483  0.1761
 1001loPI   C4B14330   9.553   2.103   7.817  0.0105  0.2651 -0.0040
 1002loPI    C114331  13.990  10.180   5.135  0.0491  0.1272  0.1078
 1002loPI    C214332  14.102   9.798   5.099  0.1742  0.1413  0.3284
 1002loPI    C314333  13.714   9.894   5.091  0.1465  0.0219  0.1766
 1002loPI   PO414334  14.243  10.309   5.405  0.0115  0.0474 -0.0809
 1002loPI   GL114335  14.247  10.283   5.807  0.2602  0.1883 -0.3589
 1002loPI   GL214336  14.541  10.261   5.814 -0.0307 -0.0681  0.0259
 1002loPI   C1A14337  14.154  10.055   6.145  0.3210 -0.3911  0.2800
 1002loPI   C2A14338  14.178   9.905   6.589  0.0421 -0.0658 -0.0924
 1002loPI   C3A14339  14.249   9.876   6.957  0.0184 -0.2812 -0.1319
 1002loPI   C4A14340  14.290   9.728   7.523 -0.0282  0.0924 -0.2296
 1002loPI   C5A14341  14.128   9.603   7.917 -0.0672 -0.2510 -0.3131
 1002loPI   C6A14342  14.090   9.550   8.400 -0.2109  0.1038  0.0785
 1002loPI   C1B14343  14.579  10.274   6.274  0.2170  0.1360  0.1932
 1002loPI   C2B14344  14.563  10.171   6.620 -0.1208  0.0057 -0.0495
 1002loPI   C3B14345  14.764  10.143   6.953  0.3377 -0.2400 -0.2547
 1002loPI   C4B14346  15.033  10.168   7.355  0.1200  0.4055 -0.1220
 1003loPI    C114347   1.982   7.517   5.717 -0.0180 -0.6258 -0.2506
 1003loPI    C214348   2.194   7.488   6.055 -0.1576 -0.1263 -0.1114
 1003loPI    C314349   2.379   7.564   5.709 -0.0761  0.0020 -0.0404
 1003loPI   PO414350   1.720   7.523   5.931 -0.1043  0.1232  0.3541
 1003loPI   GL114351   1.629   7.337   6.288  0.0617  0.3590 -0.2452
 1003loPI   GL214352   1.263   7.411   6.276 -0.2426  0.2449 -0.1165
 1003loPI   C1A14353   1.638   7.161   6.738  0.0105  0.2860 -0.0507
 1003loPI   C2A14354   1.961   7.068   7.041  0.1038  0.2508  0.2614
 1003loPI   C3A14355   2.082   7.054   7.453 -0.2185 -0.2041 -0.0922
 1003loPI   C4A14356   2.394   7.055   7.750  0.0052 -0.0757 -0.1322
 1003loPI   C5A14357   2.335   7.091   8.212 -0.0473 -0.2301  0.2888
 1003loPI   C6A14358   2.630   7.031   8.607 -0.0644  0.2935 -0.0176
 1003loPI   C1B14359   1.203   7.383   6.638  0.0448  0.1060 -0.0011
 1003loPI   C2B14360   1.230   7.493   7.045 -0.0415 -0.1333  0.0399
 1003loPI   C3B14361   1.326   7.736   7.398  0.1641  0.2587  0.1146
 1003loPI   C4B14362   1.604   7.966   7.579  0.2757 -0.0370  0.0058
 1004loPI    C114363  16.964  12.736   5.614  0.0064 -0.1552  0.0325
 1004loPI    C214364  16.774  12.617   5.283  0.0392 -0.0821 -0.0128
 1004loPI    C314365  17.076  12.877   5.257 -0.0461  0.0280  0.0879
 1004loPI   PO414366  16.854  12.627   5.760 -0.0951 -0.2009  0.0433
 1004loPI   GL114367  16.530  12.648   6.093  0.3300 -0.1608 -0.2649
 1004loPI   GL214368  16.388  12.943   6.140 -0.1706 -0.4166 -0.3226
 1004loPI   C1A14369  16.538  12.402   6.534 -0.0178 -0.1367 -0.2898
 1004loPI   C2A14370  16.446  12.367   6.996 -0.0534  0.1485  0.0757
 1004loPI   C3A14371  16.478  12.326   7.418 -0.1029  0.1445 -0.1981
 1004loPI   C4A14372  16.430  12.167   7.748 -0.0826 -0.2707  0.3090
 1004loPI   C5A14373  16.099  11.994   7.926 -0.0420 -0.0925  0.1799
 1004loPI   C6A14374  15.736  11.836   7.994  0.0924  0.1636  0.3782
 1004loPI   C1B14375  16.496  12.907   6.593  0.0213  0.0638  0.0187
 1004loPI   C2B14376  16.530  12.879   7.045 -0.0171 -0.2373  0.2123
 1004loPI   C3B14377  16.495  12.925   7.475 -0.1294  0.0226 -0.2164
 1004loPI   C4B14378  16.732  12.925   7.914  0.1987  0.0946  0.1276
 1005loPI    C114379   1.943   8.505   5.654  0.0776  0.3954 -0.1063
 1005loPI    C214380   2.310   8.525   5.813  0.0392  0.0757  0.0288
 1005loPI    C314381   2.259   8.378   5.444  0.0465  0.1213  0.0096
 1005loPI   PO414382   1.771   8.712   5.720 -0.0349  0.1781 -0.2666
 1005loPI   GL114383   1.450   8.826   6.072 -0.0335  0.3090  0.1897
 1005loPI   GL214384   1.482   9.052   6.266  0.1734 -0.2148  0.0997
 1005loPI   C1A14385   1.365   8.416   6.214 -0.1464  0.0786  0.1295
 1005loPI   C2A14386   1.360   8.377   6.675  0.0967  0.0315 -0.0980
 1005loPI   C3A14387   1.132   8.393   7.012  0.2003  0.2332  0.0124
 1005loPI   C4A14388   1.156   8.334   7.526  0.1003 -0.0600 -0.2425
 1005loPI   C5A14389   1.106   8.011   7.792  0.1051 -0.0732  0.0572
 1005loPI   C6A14390   1.339   7.781   8.117  0.0120 -0.2122 -0.2595
 1005loPI   C1B14391   1.428   8.972   6.653 -0.0147 -0.0518  0.0192
 1005loPI   C2B14392   1.299   8.922   7.059  0.0450  0.0616  0.2475
 1005loPI   C3B14393   1.541   8.981   7.524 -0.1590 -0.2861  0.2433
 1005loPI   C4B14394   1.766   8.912   7.916  0.1045 -0.0173 -0.1399
 1006loPI    C114395   9.104  15.055   6.223 -0.0592  0.1543 -0.0111
 1006loPI    C214396   9.063  15.055   5.825 -0.0700 -0.0397 -0.0113
 1006loPI    C314397   9.239  14.746   6.007  0.0685  0.1159  0.1222
 1006loPI   PO414398   8.830  15.161   6.292  0.1883  0.3926 -0.1849
 1006loPI   GL114399   8.673  15.426   6.642 -0.2324 -0.0431 -0.0349
 1006loPI   GL214400   8.332  15.391   6.734 -0.0860 -0.3151  0.1182
 1006loPI   C1A14401   8.911  15.417   7.061  0.0647 -0.0526  0.0496
 1006loPI   C2A14402   9.109  15.408   7.469  0.0886  0.1482  0.0814
 1006loPI   C3A14403   9.470  15.467   7.611  0.0104  0.2497 -0.1478
 1006loPI   C4A14404   9.649  15.478   7.951 -0.2183  0.0225  0.1781
 1006loPI   C5A14405   9.523  15.432   8.335  0.0133 -0.1875  0.1492
 1006loPI   C6A14406   9.636  15.543   8.594 -0.2792  0.3305  0.1904
 1006loPI   C1B14407   8.424  15.388   7.183 -0.0655 -0.1462 -0.1124
 1006loPI   C2B14408   8.572  15.515   7.578  0.1468 -0.0310 -0.0145
 1006loPI   C3B14409   8.752  15.354   7.861  0.0351 -0.2954  0.1792
 1006loPI   C4B14410   8.908  15.120   8.239  0.1227  0.1415 -0.1902
 1007loPI    C114411  15.557  16.038   5.663  0.2456 -0.0210  0.2206
 1007loPI    C214412  15.595  15.938   5.278  0.0620  0.1796  0.1482
 1007loPI    C314413  15.838  15.777   5.552  0.2145  0.0600 -0.0549
 1007loPI   PO414414  15.380  16.203   5.652  0.1079  0.3844  0.2600
 1007loPI   GL114415  15.339  16.549   6.036  0.1006 -0.0063 -0.0373
 1007loPI   GL214416  15.035  16.276   6.195 -0.3932  0.0210 -0.1553
 1007loPI   C1A14417  15.528  16.281   6.370 -0.3188  0.0806  0.3880
 1007loPI   C2A14418  15.565  16.116   6.798  0.0815 -0.0093 -0.0586
 1007loPI   C3A14419  15.510  15.999   7.236  0.1135 -0.0572 -0.2741
 1007loPI   C4A14420  15.586  16.011   7.643  0.0605  0.0844 -0.0526
 1007loPI   C5A14421  15.546  16.233   7.969 -0.3539  0.0919 -0.1404
 1007loPI   C6A14422  15.080  16.365   8.085 -0.0602  0.1563  0.1160
 1007loPI   C1B14423  15.084  16.263   6.592 -0.1575  0.0395  0.3253
 1007loPI   C2B14424  15.137  16.371   7.053  0.0633  0.1530 -0.0726
 1007loPI   C3B14425  15.265  16.556   7.458  0.0023 -0.2239 -0.0941
 1007loPI   C4B14426  15.332  16.673   7.811 -0.2437  0.2233 -0.0950
 1008loPI    C114427  11.758   8.997   5.666  0.0505  0.0426 -0.3238
 1008loPI    C214428  12.131   9.040   5.530 -0.0365  0.1313 -0.5391
 1008loPI    C314429  11.825   9.036   5.274 -0.1815  0.0271 -0.3662
 1008loPI   PO414430  11.729   9.257   5.852 -0.1476  0.0198 -0.2792
 1008loPI   GL114431  11.955   9.670   5.947 -0.0766 -0.0705  0.2279
 1008loPI   GL214432  11.729   9.813   6.044  0.1167  0.2062 -0.0473
 1008loPI   C1A14433  12.232   9.778   6.268 -0.1475  0.2861  0.1149
 1008loPI   C2A14434  12.138   9.804   6.746 -0.1112 -0.4001  0.4812
 1008loPI   C3A14435  12.256  10.057   7.170 -0.1253  0.2293 -0.2353
 1008loPI   C4A14436  12.200  10.170   7.535  0.4529 -0.0792 -0.2624
 1008loPI   C5A14437  11.927  10.238   7.765  0.3192 -0.1305  0.2254
 1008loPI   C6A14438  11.580  10.478   7.838  0.0796 -0.0084  0.0637
 1008loPI   C1B14439  11.717   9.629   6.478  0.1160 -0.2363 -0.0308
 1008loPI   C2B14440  11.646   9.910   6.868  0.0068 -0.1811  0.0193
 1008loPI   C3B14441  11.748  10.226   7.039 -0.2599 -0.0505 -0.2041
 1008loPI   C4B14442  11.914  10.520   7.335  0.0681 -0.2967 -0.1564
 1009loPI    C114443  16.477  17.187   5.614  0.2608  0.1244  0.0056
 1009loPI    C214444  16.714  17.119   5.299 -0.0398 -0.0762 -0.1817
 1009loPI    C314445  16.580  16.813   5.518 -0.0291  0.0452 -0.0036
 1009loPI   PO414446  16.485  17.473   5.584  0.1330 -0.1511 -0.0973
 1009loPI   GL114447  16.674  17.657   5.964 -0.0451 -0.0542  0.2481
 1009loPI   GL214448  16.945  17.562   6.218  0.1772  0.0645 -0.3382
 1009loPI   C1A14449  16.385  17.666   6.277 -0.1385  0.1317 -0.1287
 1009loPI   C2A14450  16.175  17.692   6.699  0.3830  0.3305  0.2295
 1009loPI   C3A14451  15.931  17.744   7.098 -0.5190 -0.0938  0.1385
 1009loPI   C4A14452  15.994  17.878   7.437  0.2946 -0.1693 -0.0617
 1009loPI   C5A14453  15.973  17.899   7.881  0.0316  0.1546 -0.2031
 1009loPI   C6A14454  15.967  18.217   8.241  0.4077  0.0300  0.0742
 1009loPI   C1B14455  16.703  17.619   6.643 -0.0831  0.3587 -0.3442
 1009loPI   C2B14456  16.776  17.433   7.079 -0.1837 -0.1965 -0.2007
 1009loPI   C3B14457  16.909  17.475   7.497 -0.0406  0.1415 -0.1774
 1009loPI   C4B14458  16.901  17.510   7.988 -0.1594  0.1929 -0.1374
 1010loPI    C114459   6.980   7.390   5.467  0.3461 -0.1421  0.1102
 1010loPI    C214460   7.079   7.020   5.350  0.2248 -0.1407  0.0014
 1010loPI    C314461   6.700   7.104   5.449  0.2863 -0.0897  0.1979
 1010loPI   PO414462   7.155   7.435   5.659  0.1854  0.3346 -0.1112
 1010loPI   GL114463   7.003   7.085   5.890  0.0856  0.2346  0.1794
 1010loPI   GL214464   7.297   6.964   6.004  0.0098 -0.0337 -0.0298
 1010loPI   C1A14465   7.169   7.241   6.357  0.1414 -0.1667 -0.0499
 1010loPI   C2A14466   6.916   7.301   6.695  0.0087 -0.0168 -0.3191
 1010loPI   C3A14467   6.941   7.180   7.114 -0.0877 -0.2253 -0.0078
 1010loPI   C4A14468   6.660   7.093   7.424  0.1773  0.1699  0.2302
 1010loPI   C5A14469   6.867   6.813   7.796 -0.0055 -0.0874 -0.0875
 1010loPI   C6A14470   7.215   6.702   8.040 -0.1990 -0.2406  0.0281
 1010loPI   C1B14471   7.564   6.877   6.308 -0.1414 -0.2098 -0.0130
 1010loPI   C2B14472   7.777   6.844   6.757  0.1309  0.0922 -0.0524
 1010loPI   C3B14473   8.001   6.727   6.932  0.2254  0.1850 -0.3553
 1010loPI   C4B14474   7.959   6.495   7.287 -0.0963  0.0011 -0.0168
 1011loPI    C114475  14.558   8.556   5.458  0.0923 -0.2356  0.0684
 1011loPI    C214476  14.374   8.303   5.208  0.0374 -0.2090  0.0817
 1011loPI    C314477  14.542   8.637   5.066 -0.1842 -0.0843  0.1086
 1011loPI   PO414478  14.458   8.442   5.698  0.1280 -0.4489  0.0068
 1011loPI   GL114479  14.256   8.660   5.978 -0.3335 -0.1606 -0.1844
 1011loPI   GL214480  14.072   8.982   6.202 -0.0622  0.3021 -0.3069
 1011loPI   C1A14481  14.421   8.792   6.469  0.0164  0.1832  0.0757
 1011loPI   C2A14482  14.318   8.753   6.945 -0.2336 -0.0773 -0.1077
 1011loPI   C3A14483  14.150   8.654   7.307 -0.3658 -0.0860  0.0241
 1011loPI   C4A14484  14.083   8.683   7.737 -0.1497  0.1757  0.1311
 1011loPI   C5A14485  13.877   8.698   8.191 -0.3408 -0.0051  0.0082
 1011loPI   C6A14486  13.619   8.705   8.578 -0.1592  0.1360 -0.1383
 1011loPI   C1B14487  13.986   8.980   6.623 -0.2525 -0.1671 -0.0705
 1011loPI   C2B14488  13.849   9.001   6.942 -0.3561  0.0225 -0.0859
 1011loPI   C3B14489  13.805   8.992   7.432 -0.0682 -0.1441 -0.3736
 1011loPI   C4B14490  13.866   9.116   7.872  0.0583  0.2953 -0.3025
 1012loPI    C114491  15.181   9.059   5.638 -0.0802 -0.0367 -0.0455
 1012loPI    C214492  15.098   9.190   5.270  0.0188  0.0349 -0.0428
 1012loPI    C314493  14.948   8.842   5.397  0.0312 -0.0178 -0.1713
 1012loPI   PO414494  15.407   9.085   5.748 -0.0241 -0.2102 -0.1135
 1012loPI   GL114495  15.576   8.966   6.160 -0.2806  0.0339  0.0125
 1012loPI   GL214496  15.780   8.788   6.238 -0.4100  0.3010  0.0875
 1012loPI   C1A14497  15.495   9.138   6.606 -0.1344 -0.1331  0.0350
 1012loPI   C2A14498  15.516   9.256   7.023 -0.0384 -0.3248  0.0679
 1012loPI   C3A14499  15.670   9.163   7.415 -0.1304 -0.0731  0.1092
 1012loPI   C4A14500  15.831   9.170   7.809 -0.1515 -0.2146 -0.3287
 1012loPI   C5A14501  15.753   9.359   8.147  0.1720 -0.0857 -0.0308
 1012loPI   C6A14502  15.708   9.458   8.545  0.0329  0.0993  0.1602
 1012loPI   C1B14503  15.832   8.774   6.688 -0.0874  0.1516 -0.0504
 1012loPI   C2B14504  15.890   8.888   7.045  0.0382  0.1162  0.2957
 1012loPI   C3B14505  15.981   8.804   7.496  0.0566  0.1140 -0.0116
 1012loPI   C4B14506  16.175   8.608   7.786  0.2091  0.0244  0.2295
 1013POPI    C114507   3.875   6.409   5.825  0.1464 -0.0169  0.1241
 1013POPI    C214508   3.625   6.523   6.116  0.0647 -0.0459  0.0657
 1013POPI    C314509   3.717   6.136   6.072  0.0153 -0.0507  0.0040
 1013POPI   PO414510   4.085   6.589   5.833 -0.0809  0.0333  0.0207
 1013POPI   GL114511   4.158   6.479   6.274 -0.0482  0.2927 -0.0312
 1013POPI   GL214512   3.940   6.393   6.449 -0.0936  0.2508 -0.1846
 1013POPI   C1A14513   4.433   6.843   6.446 -0.3366  0.0745  0.0968
 1013POPI   D2A14514   4.426   7.056   6.713  0.1641  0.0702  0.2954
 1013POPI   C3A14515   4.375   6.997   7.128 -0.1162 -0.0646  0.1450
 1013POPI   C4A14516   4.259   6.989   7.528 -0.2393 -0.0106 -0.0982
 1013POPI   C1B14517   4.167   6.165   6.764  0.2545 -0.1194  0.1970
 1013POPI   C2B14518   4.247   6.106   7.153  0.2858  0.1958  0.0185
 1013POPI   C3B14519   4.539   6.066   7.532 -0.0127  0.0321  0.1744
 1013POPI   C4B14520   4.699   6.050   7.971 -0.2329  0.0410  0.0039
 1014POPI    C114521   0.293   4.652   5.792  0.2075  0.1670 -0.0194
 1014POPI    C214522   0.041   4.378   5.646  0.3242  0.0711 -0.0418
 1014POPI    C314523   0.398   4.432   5.475  0.3020  0.2377 -0.0375
 1014POPI   PO414524   0.389   4.564   6.083 -0.2075  0.3379  0.2383
 1014POPI   GL114525   0.554   4.804   6.240  0.0410  0.0723 -0.0283
 1014POPI   GL214526   0.472   5.092   6.346  0.2283  0.2308 -0.4043
 1014POPI   C1A14527   0.902   4.766   6.529 -0.1037  0.1167  0.0698
 1014POPI   D2A14528   1.073   4.423   6.701  0.4337  0.2269  0.0446
 1014POPI   C3A14529   1.053   4.441   7.208  0.2733 -0.1689  0.2608
 1014POPI   C4A14530   1.131   4.513   7.632 -0.1364 -0.1436 -0.0601
 1014POPI   C1B14531   0.703   5.162   6.646 -0.0493 -0.0162 -0.1399
 1014POPI   C2B14532   1.001   5.273   6.880  0.3089 -0.3148 -0.0226
 1014POPI   C3B14533   1.140   5.432   7.279 -0.0063 -0.0675 -0.0910
 1014POPI   C4B14534   1.088   5.634   7.726  0.1169 -0.1244 -0.1216
 1015POPI    C114535  16.936   0.427   5.760 -0.1085  0.1372 -0.2099
 1015POPI    C214536  16.930   0.315   5.376  0.0623 -0.2097 -0.1159
 1015POPI    C314537  17.231   0.540   5.515  0.0989 -0.2420 -0.1428
 1015POPI   PO414538  16.721   0.484   5.812 -0.0737  0.2910  0.1666
 1015POPI   GL114539  16.477   0.532   6.182  0.0158 -0.0255 -0.1071
 1015POPI   GL214540  16.578   0.155   6.201  0.2883  0.1960 -0.2414
 1015POPI   C1A14541  16.125   0.631   6.404  0.0139  0.1661  0.0683
 1015POPI   D2A14542  15.865   0.688   6.738  0.0487 -0.1594  0.0275
 1015POPI   C3A14543  16.000   0.760   7.055  0.0027  0.2454  0.5604
 1015POPI   C4A14544  16.169   0.677   7.468 -0.0434  0.0140  0.1488
 1015POPI   C1B14545  16.526   0.003   6.607  0.1095 -0.3976 -0.1331
 1015POPI   C2B14546  16.528  -0.157   7.014 -0.3154  0.2199  0.1383
 1015POPI   C3B14547  16.431  -0.304   7.466 -0.1259 -0.0441 -0.1613
 1015POPI   C4B14548  16.417  -0.488   7.876  0.2230 -0.1815  0.1148
 1016POPI    C114549  16.402   6.677   5.274  0.2633  0.1511 -0.0986
 1016POPI    C214550  16.226   6.356   5.436  0.0352  0.2770 -0.0917
 1016POPI    C314551  16.367   6.340   5.062 -0.2483  0.2590 -0.2000
 1016POPI   PO414552  16.518   6.756   5.492 -0.1654 -0.0065 -0.1370
 1016POPI   GL114553  16.255   6.788   5.856 -0.2525 -0.1618  0.0571
 1016POPI   GL214554  15.982   6.704   5.850 -0.0451 -0.2779 -0.0059
 1016POPI   C1A14555  16.413   7.077   6.171  0.1547  0.0289 -0.0994
 1016POPI   D2A14556  16.302   7.181   6.598 -0.3479  0.0922  0.4812
 1016POPI   C3A14557  16.352   7.318   7.045  0.0363 -0.0853 -0.0275
 1016POPI   C4A14558  16.192   7.255   7.481  0.0224  0.2865  0.0151
 1016POPI   C1B14559  15.924   6.922   6.315  0.1637 -0.0527 -0.2206
 1016POPI   C2B14560  15.821   6.943   6.777 -0.1348  0.0061 -0.1364
 1016POPI   C3B14561  15.812   7.003   7.190 -0.2714 -0.0584  0.2146
 1016POPI   C4B14562  15.863   6.858   7.566  0.1579 -0.4453 -0.0316
 1017POPI    C114563  12.229   5.891   5.262  0.0751 -0.0390 -0.0581
 1017POPI    C214564  12.266   6.144   4.954  0.0752 -0.0306 -0.0511
 1017POPI    C314565  12.382   5.763   4.915  0.2044  0.0052 -0.0180
 1017POPI   PO414566  12.149   6.107   5.422 -0.2423 -0.2602 -0.2092
 1017POPI   GL114567  11.999   6.429   5.787 -0.1497 -0.1477  0.1858
 1017POPI   GL214568  11.801   6.201   5.886  0.0167 -0.2623 -0.1262
 1017POPI   C1A14569  12.056   6.449   6.243 -0.0108 -0.1155  0.1939
 1017POPI   D2A14570  12.266   6.235   6.622 -0.5622  0.3949  0.0692
 1017POPI   C3A14571  12.051   6.004   6.856 -0.0453 -0.1805 -0.1694
 1017POPI   C4A14572  12.098   5.590   7.137  0.0026 -0.1168  0.3281
 1017POPI   C1B14573  11.548   6.560   6.080 -0.4258  0.2754 -0.0322
 1017POPI   C2B14574  11.465   6.901   6.297  0.1165  0.3298 -0.0580
 1017POPI   C3B14575  11.197   6.953   6.590  0.3034  0.0973 -0.0630
 1017POPI   C4B14576  11.012   7.225   6.855  0.1906  0.2554  0.1192
 1018POPI    C114577   6.343  10.543   5.380  0.3258 -0.0726  0.0090
 1018POPI    C214578   6.223  10.177   5.272 -0.0187  0.0125  0.0932
 1018POPI    C314579   6.530  10.351   5.083 -0.0404 -0.2005 -0.1434
 1018POPI   PO414580   6.365  10.539   5.561 -0.1534 -0.2355  0.0738
 1018POPI   GL114581   6.245  10.627   5.954 -0.4734  0.2798  0.1438
 1018POPI   GL214582   6.131  10.833   6.366  0.2000  0.3259  0.1324
 1018POPI   C1A14583   6.396  10.402   6.366  0.2225  0.3806  0.1242
 1018POPI   D2A14584   6.275  10.494   6.742 -0.0297 -0.3165  0.4431
 1018POPI   C3A14585   6.209  10.362   7.091  0.2964 -0.1926 -0.0243
 1018POPI   C4A14586   6.078  10.279   7.470  0.0038  0.2132 -0.0387
 1018POPI   C1B14587   5.972  10.950   6.799 -0.1907 -0.2193 -0.0202
 1018POPI   C2B14588   6.009  11.001   7.136  0.1976 -0.1144  0.1295
 1018POPI   C3B14589   5.930  10.832   7.459 -0.1909 -0.2764  0.0256
 1018POPI   C4B14590   5.962  10.600   7.844  0.1232  0.0442 -0.4575
 1019POPI    C114591   1.960  17.148   5.676 -0.2373  0.0649 -0.1378
 1019POPI    C214592   2.091  17.196   5.301 -0.1361  0.1219 -0.0957
 1019POPI    C314593   2.048  17.514   5.540 -0.1247  0.0773 -0.0340
 1019POPI   PO414594   1.998  16.927   5.859  0.0783 -0.2380 -0.1008
 1019POPI   GL114595   2.135  16.919   6.266 -0.5124  0.1884  0.0972
 1019POPI   GL214596   2.018  16.714   6.352  0.2289 -0.0419  0.1753
 1019POPI   C1A14597   2.257  16.877   6.799 -0.0753 -0.0046 -0.1645
 1019POPI   D2A14598   2.249  16.912   7.269  0.2526  0.0594  0.3075
 1019POPI   C3A14599   2.510  17.068   7.535 -0.0555  0.0493 -0.0435
 1019POPI   C4A14600   2.428  17.002   7.985  0.1255  0.1248 -0.0178
 1019POPI   C1B14601   1.838  16.661   6.675 -0.0804  0.0081 -0.0565
 1019POPI   C2B14602   1.874  16.599   7.114 -0.0766  0.1862  0.0928
 1019POPI   C3B14603   1.739  16.526   7.486  0.0863 -0.1849 -0.0688
 1019POPI   C4B14604   1.580  16.414   7.925  0.1175 -0.0688  0.0857
 1020POPI    C114605  10.532  13.408   5.919 -0.1001 -0.4167  0.0917
 1020POPI    C214606  10.214  13.390   5.677  0.1128  0.2235 -0.2598
 1020POPI    C314607  10.577  13.298   5.537  0.1180 -0.3451  0.0954
 1020POPI   PO414608  10.468  13.719   6.050 -0.1694 -0.5374 -0.1061
 1020POPI   GL114609  10.275  13.731   6.453 -0.0629  0.2742 -0.1104
 1020POPI   GL214610  10.493  13.860   6.663  0.0282  0.0585  0.2999
 1020POPI   C1A14611  10.059  13.574   6.916  0.1335  0.0644  0.3764
 1020POPI   D2A14612   9.976  13.330   7.258 -0.1221  0.0057 -0.1198
 1020POPI   C3A14613  10.229  13.446   7.670  0.2573  0.0171 -0.1260
 1020POPI   C4A14614  10.476  13.412   7.984 -0.0626  0.1538 -0.1295
 1020POPI   C1B14615  10.526  13.798   7.033  0.1657  0.0299 -0.5386
 1020POPI   C2B14616  10.205  13.807   7.341  0.0256 -0.0337  0.0091
 1020POPI   C3B14617  10.102  13.916   7.758 -0.1440  0.2208  0.1366
 1020POPI   C4B14618   9.852  13.988   8.130  0.0729  0.2859 -0.1418
 1021POPI    C114619   0.877  11.662   5.618  0.0191  0.1250  0.2325
 1021POPI    C214620   1.175  11.692   5.352  0.0111  0.2067  0.2328
 1021POPI    C314621   0.839  11.499   5.254 -0.0118  0.2798  0.1656
 1021POPI   PO414622   0.905  11.439   5.956 -0.1395 -0.1396 -0.0012
 1021POPI   GL114623   0.685  11.217   6.292 -0.1280  0.2351  0.0887
 1021POPI   GL214624   0.645  10.831   6.244  0.0508 -0.2840 -0.1129
 1021POPI   C1A14625   1.096  11.287   6.501  0.4212 -0.0944  0.1395
 1021POPI   D2A14626   1.136  11.485   6.977  0.0466  0.0790  0.0264
 1021POPI   C3A14627   0.837  11.400   7.299 -0.1103  0.1920  0.3330
 1021POPI   C4A14628   0.471  11.468   7.375 -0.3056 -0.1312  0.0982
 1021POPI   C1B14629   0.219  10.969   6.400 -0.2901  0.0307 -0.2862
 1021POPI   C2B14630  -0.064  10.746   6.703  0.2692  0.0233  0.1161
 1021POPI   C3B14631  -0.314  10.774   7.083 -0.0479  0.1321  0.3633
 1021POPI   C4B14632  -0.575  10.740   7.384  0.0290 -0.1550 -0.2328
 1022POPI    C114633  10.556  14.902   6.002 -0.0875  0.2383  0.2362
 1022POPI    C214634  10.208  14.956   5.812  0.0398 -0.2708 -0.1639
 1022POPI    C314635  10.488  15.242   5.802 -0.2913  0.0670  0.0078
 1022POPI   PO414636  10.458  14.787   6.205 -0.0582 -0.3880 -0.0329
 1022POPI   GL114637  10.591  14.526   6.524 -0.1976  0.2270 -0.1464
 1022POPI   GL214638  10.869  14.379   6.545 -0.1850  0.1529 -0.1527
 1022POPI   C1A14639  10.746  14.762   6.892  0.0902  0.2510  0.1219
 1022POPI   D2A14640  10.598  14.762   7.210  0.0517 -0.0485 -0.1117
 1022POPI   C3A14641  10.811  14.870   7.593 -0.1498 -0.0996 -0.1091
 1022POPI   C4A14642  10.966  14.968   7.997 -0.2751 -0.0571 -0.1972
 1022POPI   C1B14643  10.682  14.281   6.954 -0.1884 -0.0500  0.0361
 1022POPI   C2B14644  10.882  14.230   7.348  0.0189  0.1929 -0.0466
 1022POPI   C3B14645  11.073  14.036   7.662 -0.0863  0.2312  0.2250
 1022POPI   C4B14646  10.897  13.772   8.032  0.2525 -0.2395 -0.0354
 1023POPI    C114647  15.227  10.084   5.378  0.2854  0.0695  0.0215
 1023POPI    C214648  14.891  10.298   5.417  0.1190 -0.1482 -0.1836
 1023POPI    C314649  15.079  10.283   5.064  0.0027 -0.5174 -0.2334
 1023POPI   PO414650  15.380  10.182   5.575 -0.2730 -0.1472  0.3905
 1023POPI   GL114651  15.484  10.009   5.956  0.4594 -0.1640  0.0739
 1023POPI   GL214652  15.849  10.023   5.866 -0.1876  0.1072 -0.0106
 1023POPI   C1A14653  15.576   9.966   6.362  0.0004  0.0913 -0.0170
 1023POPI   D2A14654  15.530   9.681   6.667  0.3157 -0.0381  0.2686
 1023POPI   C3A14655  15.773   9.698   7.050 -0.0428 -0.1012  0.3432
 1023POPI   C4A14656  15.859   9.807   7.478 -0.3033 -0.1011  0.0109
 1023POPI   C1B14657  16.061  10.020   6.241 -0.0435  0.0559  0.1376
 1023POPI   C2B14658  16.032  10.081   6.751 -0.1260 -0.0039 -0.1182
 1023POPI   C3B14659  16.104  10.209   7.197  0.1507 -0.1091  0.0927
 1023POPI   C4B14660  15.908  10.342   7.524  0.2032 -0.1978  0.0201
 1024POPI    C114661   2.689   7.171   5.649 -0.2672 -0.2068  0.0661
 1024POPI    C214662   2.668   6.900   5.355 -0.1500  0.0503 -0.1843
 1024POPI    C314663   2.428   7.221   5.349 -0.0622  0.1190 -0.0634
 1024POPI   PO414664   2.987   7.107   5.767  0.1232  0.1050  0.2049
 1024POPI   GL114665   3.316   7.370   6.010  0.3990 -0.0875  0.1460
 1024POPI   GL214666   3.003   7.356   6.212  0.0542 -0.4286  0.0213
 1024POPI   C1A14667   3.444   7.336   6.446 -0.0938  0.1304 -0.0460
 1024POPI   D2A14668   3.644   7.502   6.652  0.2888 -0.1487  0.2067
 1024POPI   C3A14669   3.647   7.317   7.037  0.1862  0.2441 -0.1603
 1024POPI   C4A14670   3.819   7.022   7.281 -0.1980 -0.0356  0.2489
 1024POPI   C1B14671   2.980   7.549   6.637 -0.0802 -0.4086 -0.0119
 1024POPI   C2B14672   2.870   7.522   7.172 -0.0158  0.2072  0.1289
 1024POPI   C3B14673   2.890   7.264   7.504 -0.1756  0.1480 -0.2379
 1024POPI   C4B14674   2.770   7.357   7.873  0.0636 -0.1259  0.0292
 1025POPI    C114675  13.651   7.870   5.596 -0.2235 -0.1599  0.1697
 1025POPI    C214676  13.656   7.702   5.233 -0.1661 -0.2311  0.2035
 1025POPI    C314677  13.654   8.100   5.269 -0.1358 -0.2239  0.1254
 1025POPI   PO414678  13.602   7.700   5.747 -0.1030  0.1353  0.0665
 1025POPI   GL114679  13.563   7.948   6.128  0.1562 -0.1631 -0.4983
 1025POPI   GL214680  13.454   8.165   6.387 -0.1033  0.1375 -0.1342
 1025POPI   C1A14681  13.756   7.795   6.546  0.0359 -0.0139  0.1753
 1025POPI   D2A14682  13.771   7.789   6.994  0.2071 -0.1296 -0.5567
 1025POPI   C3A14683  13.825   7.988   7.431  0.2262  0.0879  0.2813
 1025POPI   C4A14684  13.791   8.211   7.820 -0.1923  0.1352 -0.1624
 1025POPI   C1B14685  13.309   8.246   6.700 -0.0877 -0.2404  0.1715
 1025POPI   C2B14686  13.202   8.308   7.100  0.0280 -0.1405  0.1393
 1025POPI   C3B14687  13.329   8.100   7.524 -0.0030 -0.1240  0.0642
 1025POPI   C4B14688  12.959   8.374   7.842 -0.0240  0.0411  0.2281
 1026POPI    C114689  14.045   4.813   5.488 -0.4083  0.2433  0.1183
 1026POPI    C214690  14.256   4.993   5.200 -0.0165 -0.2760  0.0676
 1026POPI    C314691  13.948   4.757   5.103 -0.0664 -0.2205  0.0910
 1026POPI   PO414692  14.171   4.766   5.622 -0.0283  0.0722  0.1202
 1026POPI   GL114693  14.100   4.615   6.120 -0.0629  0.1011 -0.1951
 1026POPI   GL214694  13.984   4.881   6.026 -0.3592  0.0786 -0.1617
 1026POPI   C1A14695  14.317   4.536   6.530 -0.3549  0.1684  0.0596
 1026POPI   D2A14696  14.367   4.306   6.873 -0.1252 -0.0449 -0.1974
 1026POPI   C3A14697  14.460   4.052   7.274  0.3137  0.4202 -0.0803
 1026POPI   C4A14698  14.738   3.988   7.639 -0.0171  0.4372 -0.1215
 1026POPI   C1B14699  14.100   4.974   6.455  0.0392 -0.0423 -0.4623
 1026POPI   C2B14700  14.176   5.023   6.858  0.1399  0.3056 -0.3688
 1026POPI   C3B14701  14.161   5.219   7.253  0.0061  0.0358 -0.1363
 1026POPI   C4B14702  14.108   5.494   7.632  0.1113 -0.4624 -0.0759
 1027POPI    C114703   6.024  16.491   6.457 -0.1114  0.1479  0.2026
 1027POPI    C214704   5.891  16.552   6.085  0.1493  0.0911  0.0980
 1027POPI    C314705   5.649  16.391   6.360 -0.0210  0.0632 -0.0667
 1027POPI   PO414706   6.263  16.339   6.415 -0.2193  0.0643 -0.3627
 1027POPI   GL114707   6.309  16.142   6.842 -0.3681 -0.1338 -0.0871
 1027POPI   GL214708   6.004  16.237   6.896 -0.2116 -0.1578 -0.0700
 1027POPI   C1A14709   6.332  16.402   7.239  0.3029 -0.1291  0.0830
 1027POPI   D2A14710   6.294  16.756   7.399 -0.3471  0.1268 -0.2210
 1027POPI   C3A14711   6.453  16.618   7.807  0.3547 -0.1540  0.0708
 1027POPI   C4A14712   6.408  16.543   8.250 -0.0346 -0.2401  0.2625
 1027POPI   C1B14713   5.862  16.604   7.153 -0.0549  0.0617 -0.2503
 1027POPI   C2B14714   5.780  16.927   7.451 -0.1954 -0.0288  0.1238
 1027POPI   C3B14715   6.055  17.118   7.766  0.1781 -0.1372 -0.0426
 1027POPI   C4B14716   6.004  17.516   7.995  0.3065 -0.2064  0.1428
 1028POPI    C114717  17.917   3.940   5.810 -0.1600  0.1410 -0.0089
 1028POPI    C214718  18.123   3.598   5.796  0.2589  0.3824  0.0724
 1028POPI    C314719  17.831   3.666   5.532  0.1555 -0.0425  0.0689
 1028POPI   PO414720  17.923   3.896   6.168  0.4715  0.2589  0.3431
 1028POPI   GL114721  17.916   3.606   6.527  0.1932 -0.1281  0.1840
 1028POPI   GL214722  17.624   3.567   6.519  0.1309  0.0278  0.2202
 1028POPI   C1A14723  18.191   3.802   6.838  0.2135  0.3928 -0.3168
 1028POPI   D2A14724  18.380   3.769   7.272  0.0752 -0.0086 -0.1288
 1028POPI   C3A14725  18.250   4.060   7.600 -0.2522  0.2158  0.3981
 1028POPI   C4A14726  17.935   4.432   7.618 -0.0348 -0.0149 -0.0221
 1028POPI   C1B14727  17.809   3.410   6.961  0.2066 -0.1734 -0.1950
 1028POPI   C2B14728  18.018   3.403   7.355 -0.3746  0.0765 -0.1695
 1028POPI   C3B14729  18.170   3.581   7.800  0.0176 -0.2952 -0.0635
 1028POPI   C4B14730  18.272   3.885   8.138 -0.1381  0.2412 -0.0961
 1029POPI    C114731   4.191  14.589   5.925 -0.0795  0.2378  0.0943
 1029POPI    C214732   4.099  14.429   5.570 -0.0905  0.1361  0.1425
 1029POPI    C314733   3.902  14.313   5.898  0.0995  0.0349  0.2222
 1029POPI   PO414734   4.434  14.536   5.950 -0.1685 -0.1651  0.0676
 1029POPI   GL114735   4.562  14.288   6.255 -0.1862 -0.1329  0.1907
 1029POPI   GL214736   4.262  14.060   6.123 -0.2166 -0.1892 -0.1750
 1029POPI   C1A14737   4.627  14.398   6.706 -0.1557  0.3098  0.0724
 1029POPI   D2A14738   4.634  14.475   7.076  0.0444  0.1274  0.1664
 1029POPI   C3A14739   4.561  14.348   7.491 -0.1762  0.3456 -0.1321
 1029POPI   C4A14740   4.662  14.339   7.917  0.1924 -0.2315  0.2706
 1029POPI   C1B14741   4.009  14.207   6.413 -0.1808 -0.3294  0.1344
 1029POPI   C2B14742   4.114  14.417   6.803 -0.0894  0.0658  0.1187
 1029POPI   C3B14743   4.057  14.510   7.119  0.1436 -0.1538 -0.0558
 1029POPI   C4B14744   4.046  14.496   7.508 -0.1502  0.3850 -0.1777
 1030POPI    C114745   7.322   5.422   5.765 -0.1319 -0.1013 -0.0011
 1030POPI    C214746   7.042   5.551   6.020  0.0159  0.1450  0.0396
 1030POPI    C314747   7.089   5.159   5.956 -0.2991  0.0993  0.0748
 1030POPI   PO414748   7.512   5.573   5.815  0.0514 -0.1711 -0.0369
 1030POPI   GL114749   7.654   5.897   6.005 -0.1310 -0.1094  0.0574
 1030POPI   GL214750   7.289   5.976   6.029  0.0083 -0.2764 -0.1931
 1030POPI   C1A14751   7.896   6.227   6.225 -0.2132 -0.0818  0.2363
 1030POPI   D2A14752   8.035   6.552   6.506  0.2152  0.4950  0.0208
 1030POPI   C3A14753   8.049   6.929   6.339  0.0020 -0.3308  0.1329
 1030POPI   C4A14754   8.128   7.326   6.598 -0.1811 -0.0577  0.2750
 1030POPI   C1B14755   7.555   5.965   6.507 -0.1410 -0.0196  0.2844
 1030POPI   C2B14756   7.561   5.732   6.807  0.1678  0.1401 -0.0201
 1030POPI   C3B14757   7.316   5.726   7.199  0.0979  0.1172 -0.0883
 1030POPI   C4B14758   7.281   5.820   7.611 -0.2635 -0.0050  0.1896
 1031POPI    C114759  13.792  10.380   5.547  0.1132 -0.1149 -0.0022
 1031POPI    C214760  13.596  10.696   5.694  0.0036 -0.1852  0.0046
 1031POPI    C314761  13.739  10.705   5.320 -0.0353 -0.1433 -0.0093
 1031POPI   PO414762  13.697  10.217   5.602  0.1691 -0.0411 -0.2556
 1031POPI   GL114763  13.582   9.804   5.924 -0.1233  0.4324 -0.2283
 1031POPI   GL214764  13.850   9.580   5.987  0.0676  0.4462 -0.2215
 1031POPI   C1A14765  13.490  10.150   6.242  0.1885 -0.0422  0.3062
 1031POPI   D2A14766  13.443  10.564   6.323 -0.0849  0.1565 -0.0235
 1031POPI   C3A14767  13.293  10.719   6.657 -0.0911 -0.0912 -0.3140
 1031POPI   C4A14768  13.298  10.788   6.976 -0.1389  0.1564 -0.3238
 1031POPI   C1B14769  13.708   9.764   6.452  0.0572  0.0057 -0.1537
 1031POPI   C2B14770  13.760   9.914   6.902  0.1562  0.1180  0.1292
 1031POPI   C3B14771  13.946  10.098   7.312 -0.1604 -0.0546  0.3069
 1031POPI   C4B14772  14.052  10.203   7.666 -0.5445  0.0411 -0.2143
 1032POPI    C114773   2.860  12.010   5.558  0.3278 -0.0973  0.0806
 1032POPI    C214774   3.038  12.354   5.656  0.2629 -0.0933  0.1869
 1032POPI    C314775   3.233  12.008   5.704  0.3358 -0.0705  0.0605
 1032POPI   PO414776   2.641  12.003   5.711 -0.1501 -0.4520  0.0455
 1032POPI   GL114777   2.561  12.144   6.031  0.1407 -0.1926 -0.2190
 1032POPI   GL214778   2.906  12.137   6.128 -0.2019  0.0814  0.1566
 1032POPI   C1A14779   2.343  11.909   6.371  0.1778  0.1152 -0.1586
 1032POPI   D2A14780   2.158  11.764   6.815 -0.0680  0.2128 -0.0440
 1032POPI   C3A14781   2.324  11.612   7.178 -0.0715 -0.2829 -0.1491
 1032POPI   C4A14782   2.520  11.702   7.525  0.1520 -0.0436 -0.0005
 1032POPI   C1B14783   2.909  11.917   6.518  0.0255 -0.1068  0.0546
 1032POPI   C2B14784   2.786  11.963   6.960 -0.0052  0.0942 -0.0223
 1032POPI   C3B14785   2.593  12.145   7.267 -0.1550  0.0629 -0.0103
 1032POPI   C4B14786   2.643  12.253   7.644  0.0675  0.0914 -0.0538
 1033POPI    C114787   0.199  12.436   5.386  0.1146  0.1084 -0.1983
 1033POPI    C214788   0.595  12.461   5.335  0.1122 -0.0540 -0.3057
 1033POPI    C314789   0.385  12.185   5.135  0.0002 -0.2348  0.0524
 1033POPI   PO414790   0.136  12.335   5.589 -0.0343 -0.0453  0.0853
 1033POPI   GL114791   0.331  12.475   5.891  0.0057 -0.1002 -0.1111
 1033POPI   GL214792   0.216  12.279   6.209  0.2755  0.1198  0.1625
 1033POPI   C1A14793   0.493  12.633   6.337 -0.2833  0.0828 -0.0732
 1033POPI   D2A14794   0.326  12.691   6.764 -0.4226 -0.0239 -0.0769
 1033POPI   C3A14795   0.290  12.872   7.187  0.0164  0.1057  0.2658
 1033POPI   C4A14796   0.247  12.812   7.694  0.0672 -0.0486 -0.0908
 1033POPI   C1B14797   0.330  12.155   6.549  0.0630  0.0260 -0.0422
 1033POPI   C2B14798   0.232  11.831   6.892 -0.0195  0.0182 -0.1753
 1033POPI   C3B14799   0.226  11.447   6.937  0.2634 -0.1231 -0.1389
 1033POPI   C4B14800   0.123  11.002   7.095 -0.1858  0.1517 -0.0202
 1034POPI    C114801   9.356   3.422   5.536 -0.1690 -0.0636  0.0296
 1034POPI    C214802   9.263   3.806   5.478 -0.0161 -0.0371 -0.0450
 1034POPI    C314803   9.000   3.520   5.383 -0.1673  0.0522  0.0989
 1034POPI   PO414804   9.569   3.517   5.720 -0.0330  0.0072  0.0068
 1034POPI   GL114805   9.531   3.705   6.144  0.0026 -0.1385 -0.1537
 1034POPI   GL214806   9.405   3.400   6.219 -0.2927 -0.1393 -0.3164
 1034POPI   C1A14807   9.445   3.747   6.668  0.2208 -0.0277  0.3139
 1034POPI   D2A14808   9.470   4.007   7.024 -0.0762  0.0683  0.0105
 1034POPI   C3A14809   9.331   3.986   7.432  0.1302 -0.2319 -0.2430
 1034POPI   C4A14810   9.280   3.940   7.889  0.0386 -0.0676  0.0486
 1034POPI   C1B14811   9.612   3.202   6.538 -0.0242 -0.1511  0.0715
 1034POPI   C2B14812   9.735   3.007   6.862  0.1741  0.3649 -0.0941
 1034POPI   C3B14813   9.802   2.660   7.044 -0.0838  0.0514 -0.0913
 1034POPI   C4B14814   9.891   2.412   6.829 -0.1050 -0.1677  0.2674
 1035POPI    C114815  17.476  13.770   5.418 -0.0722  0.4470  0.1418
 1035POPI    C214816  17.656  14.085   5.248 -0.0090  0.3276 -0.0141
 1035POPI    C314817  17.700  13.720   5.090  0.2401  0.1759  0.3902
 1035POPI   PO414818  17.494  13.889   5.735  0.0207 -0.4104  0.0869
 1035POPI   GL114819  17.542  13.909   6.113  0.0652 -0.1089 -0.1663
 1035POPI   GL214820  17.783  14.016   6.176  0.1668 -0.0583  0.2072
 1035POPI   C1A14821  17.425  13.754   6.506  0.2626 -0.0402  0.0367
 1035POPI   D2A14822  17.577  13.766   6.875  0.2741  0.0942  0.1761
 1035POPI   C3A14823  17.278  14.026   7.112 -0.3759 -0.2238  0.2899
 1035POPI   C4A14824  17.436  14.032   7.568 -0.1790  0.3290 -0.4103
 1035POPI   C1B14825  17.794  14.130   6.564  0.1656 -0.0445 -0.1288
 1035POPI   C2B14826  17.790  14.222   6.926 -0.0720  0.1227 -0.0485
 1035POPI   C3B14827  17.752  14.351   7.378  0.1453  0.1178 -0.2607
 1035POPI   C4B14828  17.704  14.534   7.772 -0.0073 -0.0958 -0.1108
 1036POPI    C114829  12.146  11.531   5.662 -0.0016  0.1556 -0.0082
 1036POPI    C214830  12.116  11.352   5.305 -0.1482  0.1631  0.0000
 1036POPI    C314831  12.268  11.152   5.617  0.1678  0.2212 -0.1131
 1036POPI   PO414832  11.961  11.718   5.825 -0.2380 -0.2865 -0.0934
 1036POPI   GL114833  11.630  11.856   6.027  0.2728 -0.2430 -0.0500
 1036POPI   GL214834  11.287  11.846   5.903  0.0756 -0.1501  0.0062
 1036POPI   C1A14835  11.613  12.046   6.452 -0.1482  0.3192 -0.4921
 1036POPI   D2A14836  11.620  11.870   6.811  0.0199 -0.0436 -0.3066
 1036POPI   C3A14837  11.705  11.921   7.235  0.0899  0.0186 -0.1929
 1036POPI   C4A14838  11.881  12.051   7.682  0.1930 -0.0810 -0.1751
 1036POPI   C1B14839  11.384  11.535   6.361 -0.1175 -0.1382 -0.2237
 1036POPI   C2B14840  11.343  11.411   6.766  0.0713 -0.1037  0.0035
 1036POPI   C3B14841  11.324  11.597   7.121 -0.1468 -0.2181 -0.2061
 1036POPI   C4B14842  11.455  11.718   7.590 -0.4635 -0.0049 -0.0995
 1037POPI    C114843   5.114  11.633   5.872  0.0967 -0.1258  0.3343
 1037POPI    C214844   4.831  11.372   5.980 -0.1629 -0.0332 -0.0988
 1037POPI    C314845   4.980  11.364   5.608  0.2847  0.0316  0.0732
 1037POPI   PO414846   5.289  11.683   6.005 -0.1490 -0.0449 -0.2192
 1037POPI   GL114847   5.229  11.790   6.346 -0.5248  0.5548  0.1486
 1037POPI   GL214848   4.910  11.729   6.341  0.1492 -0.1332  0.0955
 1037POPI   C1A14849   5.146  11.998   6.751  0.2730 -0.1905 -0.1993
 1037POPI   D2A14850   5.022  12.062   7.187 -0.0605  0.1257 -0.1716
 1037POPI   C3A14851   4.918  11.806   7.532  0.1130 -0.0284 -0.0080
 1037POPI   C4A14852   4.884  11.950   8.027 -0.2937 -0.0584 -0.2233
 1037POPI   C1B14853   4.711  11.811   6.624  0.0890  0.2576 -0.1566
 1037POPI   C2B14854   4.700  11.720   6.998  0.3071 -0.1436 -0.0387
 1037POPI   C3B14855   4.465  11.702   7.429  0.1803  0.0644  0.3705
 1037POPI   C4B14856   4.373  11.675   7.834  0.0404  0.0501  0.1063
 1038POPI    C114857  12.644   5.940   5.646  0.0684  0.0316  0.1898
 1038POPI    C214858  12.669   5.650   5.921  0.1331  0.0278  0.1801
 1038POPI    C314859  12.944   5.676   5.631 -0.0436 -0.0875 -0.0009
 1038POPI   PO414860  12.483   6.116   5.855  0.3369 -0.1011 -0.0247
 1038POPI   GL114861  12.136   5.968   6.179 -0.0756  0.0900 -0.1541
 1038POPI   GL214862  12.413   5.802   6.296  0.1418  0.1715 -0.0308
 1038POPI   C1A14863  11.730   6.053   6.361  0.0482  0.0039  0.0002
 1038POPI   D2A14864  11.542   6.027   6.844 -0.1560 -0.0687  0.1793
 1038POPI   C3A14865  11.821   6.239   7.204  0.0823  0.0328  0.0803
 1038POPI   C4A14866  11.945   6.417   7.601 -0.2307  0.0176  0.2271
 1038POPI   C1B14867  12.761   5.959   6.409  0.0946  0.2077  0.0276
 1038POPI   C2B14868  12.906   6.082   6.847  0.1307 -0.1040  0.1103
 1038POPI   C3B14869  12.898   6.098   7.378  0.1319 -0.2806 -0.1051
 1038POPI   C4B14870  12.981   6.313   7.809 -0.4674  0.2194 -0.0562
 1039POPI    C114871   0.529   3.748   5.697 -0.2192 -0.0375  0.1573
 1039POPI    C214872   0.517   3.700   5.300 -0.0263  0.2230  0.1171
 1039POPI    C314873   0.265   3.954   5.479 -0.0073  0.2237  0.1430
 1039POPI   PO414874   0.566   3.477   5.783 -0.0354 -0.0104 -0.0033
 1039POPI   GL114875   0.599   3.296   6.088 -0.2411  0.2280  0.0036
 1039POPI   GL214876   0.307   3.518   6.209 -0.0445  0.0328 -0.1115
 1039POPI   C1A14877   0.885   3.301   6.367  0.4176  0.2268  0.3097
 1039POPI   D2A14878   1.018   2.957   6.565  0.0554 -0.1678  0.3180
 1039POPI   C3A14879   0.896   3.060   6.899 -0.1252  0.0005 -0.0033
 1039POPI   C4A14880   0.817   3.099   7.255 -0.2110  0.3421 -0.4197
 1039POPI   C1B14881   0.361   3.377   6.590 -0.1160 -0.1247  0.1015
 1039POPI   C2B14882   0.365   3.272   7.020 -0.1482 -0.1390 -0.1669
 1039POPI   C3B14883   0.425   3.259   7.522 -0.1523  0.0917  0.1342
 1039POPI   C4B14884   0.753   3.285   7.786 -0.0066  0.3201 -0.0883
 1040POPI    C114885   7.275   8.390   5.369  0.0906  0.0285  0.1490
 1040POPI    C214886   7.279   8.218   5.008  0.1154  0.0489  0.1395
 1040POPI    C314887   7.054   8.542   5.072  0.2955  0.1877  0.0763
 1040POPI   PO414888   7.216   8.271   5.599 -0.1079 -0.3460 -0.1057
 1040POPI   GL114889   7.236   8.385   6.067 -0.1874  0.0800 -0.0784
 1040POPI   GL214890   6.864   8.450   5.988 -0.2577 -0.2009  0.1349
 1040POPI   C1A14891   7.108   8.533   6.406  0.0073  0.0023  0.3215
 1040POPI   D2A14892   6.951   8.753   6.726 -0.1228  0.2103 -0.0713
 1040POPI   C3A14893   6.830   8.541   7.032 -0.0790 -0.0303 -0.2517
 1040POPI   C4A14894   6.831   8.268   7.344  0.0110 -0.2406  0.1422
 1040POPI   C1B14895   6.866   8.116   6.278  0.0234  0.3212  0.4218
 1040POPI   C2B14896   7.079   7.756   6.471  0.0021 -0.0499  0.4091
 1040POPI   C3B14897   7.229   7.613   6.862  0.0658  0.2366  0.2560
 1040POPI   C4B14898   7.438   7.531   7.266 -0.2870 -0.1409 -0.1611
 1041POPI    C114899   2.563   1.461   5.758 -0.0624 -0.0000 -0.0102
 1041POPI    C214900   2.705   1.087   5.765 -0.1110 -0.0162  0.1861
 1041POPI    C314901   2.361   1.174   5.951 -0.1032  0.1249  0.1356
 1041POPI   PO414902   2.786   1.613   5.831  0.4228  0.0069 -0.1011
 1041POPI   GL114903   2.889   1.780   6.265  0.0783 -0.2912  0.0107
 1041POPI   GL214904   2.966   2.038   6.237 -0.1975  0.2258  0.2774
 1041POPI   C1A14905   3.037   1.601   6.572  0.0441 -0.0044  0.1830
 1041POPI   D2A14906   3.041   1.220   6.762  0.0765 -0.1153  0.0626
 1041POPI   C3A14907   2.925   1.122   7.257  0.0518 -0.0508  0.1607
 1041POPI   C4A14908   2.979   1.177   7.682 -0.0363 -0.2781  0.0825
 1041POPI   C1B14909   3.071   2.210   6.580  0.4200 -0.1905  0.4547
 1041POPI   C2B14910   2.928   2.415   6.903  0.0033  0.0714  0.4083
 1041POPI   C3B14911   2.735   2.698   7.150  0.0232  0.1541  0.1102
 1041POPI   C4B14912   2.801   2.922   7.601  0.0947 -0.2914 -0.2732
 1042POPI    C114913   4.896  10.923   5.816  0.1471  0.2478 -0.0143
 1042POPI    C214914   5.209  10.886   5.570  0.0528  0.0337 -0.1051
 1042POPI    C314915   4.840  10.923   5.420  0.0024 -0.0251  0.0034
 1042POPI   PO414916   5.012  10.849   6.065 -0.0338  0.0597  0.3134
 1042POPI   GL114917   5.099  10.831   6.441 -0.0317 -0.0370 -0.1869
 1042POPI   GL214918   4.876  11.113   6.515 -0.1181  0.2348  0.0072
 1042POPI   C1A14919   5.184  10.496   6.651 -0.0870 -0.3468  0.2245
 1042POPI   D2A14920   5.189  10.484   7.161  0.1975  0.3440  0.1140
 1042POPI   C3A14921   5.178  10.228   7.418 -0.0413  0.0247 -0.1791
 1042POPI   C4A14922   5.171  10.295   7.755  0.0699  0.1478  0.0246
 1042POPI   C1B14923   4.947  10.986   6.964 -0.1973  0.1819  0.0668
 1042POPI   C2B14924   4.701  11.057   7.292 -0.0845 -0.2274 -0.1329
 1042POPI   C3B14925   4.696  11.263   7.598 -0.2200 -0.0089  0.1881
 1042POPI   C4B14926   4.794  11.491   7.989 -0.3451  0.4988  0.2190
 1043POPI    C114927  10.370   3.812   6.102  0.2251 -0.0050 -0.2431
 1043POPI    C214928  10.031   3.626   5.999  0.0005  0.1453  0.1990
 1043POPI    C314929  10.383   3.478   5.883 -0.2133  0.0076 -0.2985
 1043POPI   PO414930  10.227   4.041   6.196 -0.0580 -0.0946  0.2921
 1043POPI   GL114931  10.295   4.087   6.580 -0.3038  0.0771  0.0937
 1043POPI   GL214932  10.514   4.277   6.555 -0.2876  0.0933  0.2402
 1043POPI   C1A14933  10.316   3.752   6.815 -0.0463  0.1016  0.0319
 1043POPI   D2A14934  10.349   3.630   7.186 -0.0460 -0.0403 -0.4161
 1043POPI   C3A14935  10.529   3.710   7.575  0.0364  0.0777 -0.1613
 1043POPI   C4A14936  10.563   3.970   7.849  0.2975 -0.0931 -0.0453
 1043POPI   C1B14937  10.543   4.147   7.001  0.0356 -0.0598  0.2413
 1043POPI   C2B14938  10.455   4.297   7.407  0.1969  0.4174  0.3929
 1043POPI   C3B14939  10.182   4.361   7.805 -0.1172 -0.1310  0.2396
 1043POPI   C4B14940   9.950   4.464   8.090  0.0672  0.0527  0.2529
 1044POPI    C114941   5.021   7.866   5.453  0.2355  0.0409 -0.0213
 1044POPI    C214942   4.958   7.507   5.288  0.1848  0.0313  0.0188
 1044POPI    C314943   4.658   7.770   5.315  0.1855  0.0221  0.1215
 1044POPI   PO414944   5.081   7.796   5.744  0.1009 -0.0144 -0.1988
 1044POPI   GL114945   4.922   7.782   6.090 -0.0016 -0.2376 -0.0058
 1044POPI   GL214946   4.529   7.635   6.185  0.0012 -0.1767  0.1312
 1044POPI   C1A14947   5.051   7.794   6.563  0.1802 -0.3111  0.2967
 1044POPI   D2A14948   4.903   7.889   6.865  0.0361  0.0702 -0.1074
 1044POPI   C3A14949   4.990   7.799   7.326 -0.0700 -0.2350 -0.0330
 1044POPI   C4A14950   5.016   7.679   7.735  0.2540  0.1333  0.1508
 1044POPI   C1B14951   4.675   7.446   6.555  0.3760 -0.0710 -0.2052
 1044POPI   C2B14952   4.831   7.425   6.915 -0.2976 -0.1405 -0.2561
 1044POPI   C3B14953   4.638   7.362   7.307  0.1765 -0.1215  0.2242
 1044POPI   C4B14954   4.605   7.435   7.646  0.0442  0.0715  0.0225
 1045POPI    C114955  16.241  14.894   5.327  0.1263  0.1941 -0.0714
 1045POPI    C214956  16.374  14.524   5.252  0.0992  0.1790 -0.0456
 1045POPI    C314957  16.581  14.841   5.123  0.0406  0.1534 -0.2049
 1045POPI   PO414958  16.184  14.881   5.663  0.1594 -0.0775 -0.2847
 1045POPI   GL114959  16.146  15.059   6.018 -0.2486  0.0488 -0.1496
 1045POPI   GL214960  15.918  15.068   6.129 -0.2389  0.0959 -0.0752
 1045POPI   C1A14961  16.507  15.201   6.193  0.3155  0.3149  0.1433
 1045POPI   D2A14962  16.689  15.186   6.553 -0.0606  0.0018  0.0527
 1045POPI   C3A14963  16.652  15.262   7.021 -0.0559 -0.1046  0.4603
 1045POPI   C4A14964  16.340  15.596   7.221  0.0687  0.1209  0.4387
 1045POPI   C1B14965  16.125  15.102   6.486  0.5155  0.0222  0.0279
 1045POPI   C2B14966  16.085  15.046   6.927  0.0139  0.1021  0.0366
 1045POPI   C3B14967  15.925  15.115   7.243  0.2189 -0.1115 -0.1408
 1045POPI   C4B14968  15.809  15.115   7.731  0.1019 -0.0576 -0.1139
 1046POPI    C114969   2.793   5.129   5.853  0.0400  0.1264  0.0520
 1046POPI    C214970   2.679   4.926   5.527  0.1114  0.1169  0.0327
 1046POPI    C314971   3.034   5.109   5.535  0.0625  0.2115  0.0636
 1046POPI   PO414972   2.670   5.037   6.042  0.2188  0.2682  0.2141
 1046POPI   GL114973   2.525   4.771   6.379 -0.2004 -0.2073 -0.1106
 1046POPI   GL214974   2.332   5.052   6.484  0.2545  0.4584  0.0042
 1046POPI   C1A14975   2.277   4.471   6.653  0.1813  0.1522  0.0845
 1046POPI   D2A14976   2.208   4.547   7.115 -0.0595 -0.0560  0.3450
 1046POPI   C3A14977   2.229   4.810   7.474  0.0257  0.2671 -0.0987
 1046POPI   C4A14978   2.179   5.037   7.953  0.0649  0.0919  0.2765
 1046POPI   C1B14979   2.215   4.991   6.855  0.0471  0.4037  0.1491
 1046POPI   C2B14980   2.126   5.206   7.144 -0.2344  0.1152  0.0322
 1046POPI   C3B14981   2.021   5.642   7.294 -0.1586 -0.1747  0.0330
 1046POPI   C4B14982   2.088   5.745   7.731  0.1147 -0.1058  0.0748
 1047POPI    C114983   0.940  16.341   5.426 -0.0498 -0.0973 -0.1259
 1047POPI    C214984   0.792  16.024   5.233  0.0237 -0.1540 -0.0900
 1047POPI    C314985   1.157  16.006   5.396  0.0550 -0.0282 -0.1451
 1047POPI   PO414986   0.785  16.413   5.690 -0.0652  0.1909 -0.1088
 1047POPI   GL114987   0.851  16.453   6.194  0.0070 -0.0831 -0.0950
 1047POPI   GL214988   1.055  16.581   6.312 -0.0527 -0.1847 -0.1987
 1047POPI   C1A14989   1.024  16.056   6.405 -0.0437  0.2312  0.1956
 1047POPI   D2A14990   0.925  15.871   6.862 -0.1443 -0.3856  0.4351
 1047POPI   C3A14991   0.592  15.988   7.261 -0.0389 -0.3131  0.2058
 1047POPI   C4A14992   0.431  16.379   7.518  0.0612 -0.0139  0.1461
 1047POPI   C1B14993   0.988  16.832   6.658  0.2195 -0.1746 -0.3070
 1047POPI   C2B14994   0.916  16.830   7.028 -0.2066 -0.3989 -0.1776
 1047POPI   C3B14995   0.810  16.763   7.478 -0.1327 -0.0164  0.2419
 1047POPI   C4B14996   0.636  17.130   7.785  0.0520  0.0312  0.2417
 1048POPI    C114997   3.240  16.708   5.771 -0.0974  0.0635 -0.0686
 1048POPI    C214998   3.154  16.828   5.400 -0.1419 -0.0677 -0.1014
 1048POPI    C314999   3.525  16.710   5.491 -0.1375 -0.0619 -0.1112
 1048POPI   PO415000   3.004  16.737   5.891 -0.2053  0.0426  0.1941
 1048POPI   GL115001   2.723  16.407   6.055  0.0893 -0.2255  0.0138
 1048POPI   GL215002   2.342  16.531   5.969 -0.1148  0.2288  0.3010
 1048POPI   C1A15003   2.873  16.281   6.411  0.0684 -0.3157 -0.0007
 1048POPI   D2A15004   3.192  15.939   6.581  0.0413 -0.4306  0.0830
 1048POPI   C3A15005   3.243  15.875   6.917 -0.1321 -0.0146  0.1455
 1048POPI   C4A15006   3.029  15.619   7.253 -0.0353  0.1880  0.2064
 1048POPI   C1B15007   2.377  16.413   6.439 -0.3582 -0.1910  0.2360
 1048POPI   C2B15008   2.268  16.337   6.901  0.2711 -0.4019  0.1046
 1048POPI   C3B15009   2.293  16.265   7.342  0.2306  0.2562  0.1563
 1048POPI   C4B15010   2.237  16.508   7.608 -0.2002  0.0514  0.3118
 1049POPI    C115011  14.348   7.193   5.719  0.0714 -0.1478 -0.1290
 1049POPI    C215012  14.343   7.164   5.320 -0.0426  0.0978 -0.1471
 1049POPI    C315013  14.112   7.434   5.504 -0.0967 -0.1093  0.0951
 1049POPI   PO415014  14.630   7.077   5.755  0.2549 -0.2568 -0.2090
 1049POPI   GL115015  14.640   6.907   6.191 -0.0111 -0.0520 -0.1570
 1049POPI   GL215016  14.815   7.181   6.282  0.2509 -0.1706  0.1819
 1049POPI   C1A15017  14.646   6.819   6.581 -0.1235 -0.0936 -0.0531
 1049POPI   D2A15018  14.596   6.579   6.832 -0.1472  0.2427 -0.2077
 1049POPI   C3A15019  14.575   6.634   7.338  0.1538  0.0128  0.1824
 1049POPI   C4A15020  14.375   6.713   7.659  0.1261 -0.0517 -0.1540
 1049POPI   C1B15021  14.941   7.191   6.747  0.1715  0.2100  0.0046
 1049POPI   C2B15022  14.921   7.002   7.159  0.3394  0.2314 -0.0447
 1049POPI   C3B15023  14.877   6.999   7.674  0.0946 -0.2263  0.0214
 1049POPI   C4B15024  14.626   6.944   7.963 -0.0217 -0.0549 -0.1000
 1050POPI    C115025   9.220  15.984   5.976 -0.0083 -0.1664 -0.0396
 1050POPI    C215026   9.395  16.284   5.778  0.0742 -0.2147 -0.0409
 1050POPI    C315027   8.997  16.244   5.770  0.0751 -0.2019 -0.1761
 1050POPI   PO415028   9.313  15.948   6.179  0.0012 -0.3816 -0.1481
 1050POPI   GL115029   9.578  16.001   6.515 -0.0076 -0.0770  0.4351
 1050POPI   GL215030   9.973  15.960   6.498  0.1006  0.0975 -0.1204
 1050POPI   C1A15031   9.553  15.574   6.747 -0.1182 -0.1303  0.2248
 1050POPI   D2A15032   9.457  15.423   7.090 -0.2473 -0.2263  0.1865
 1050POPI   C3A15033   9.342  15.050   7.116  0.4008  0.0318  0.0220
 1050POPI   C4A15034   9.579  14.645   7.210 -0.2136  0.1179 -0.3440
 1050POPI   C1B15035   9.780  16.046   6.916 -0.2041  0.0322 -0.3927
 1050POPI   C2B15036   9.738  16.254   7.250  0.0951  0.0412 -0.1010
 1050POPI   C3B15037   9.761  16.535   7.653 -0.0444  0.1493  0.1238
 1050POPI   C4B15038   9.570  16.636   8.103  0.0813 -0.0002 -0.0781
 1051POPI    C115039   8.655  10.630   5.764 -0.0706 -0.0165 -0.0759
 1051POPI    C215040   8.422  10.930   5.640 -0.0800  0.0498  0.1008
 1051POPI    C315041   8.580  10.678   5.374 -0.1625  0.1446 -0.0393
 1051POPI   PO415042   8.602  10.588   5.998 -0.1975 -0.2628 -0.2173
 1051POPI   GL115043   8.716  10.468   6.297  0.2084  0.0638  0.1879
 1051POPI   GL215044   8.294  10.521   6.446 -0.1117 -0.2442  0.2014
 1051POPI   C1A15045   8.716  10.601   6.698 -0.1456 -0.0276 -0.0022
 1051POPI   D2A15046   8.731  10.797   7.021 -0.2963 -0.0544 -0.1675
 1051POPI   C3A15047   8.735  10.662   7.457  0.0118  0.2445 -0.2322
 1051POPI   C4A15048   8.742  10.784   7.926 -0.1852  0.2482  0.1102
 1051POPI   C1B15049   8.194  10.779   6.833  0.0811 -0.1465  0.2147
 1051POPI   C2B15050   8.208  10.840   7.310  0.1962 -0.0858  0.0754
 1051POPI   C3B15051   8.254  10.560   7.668  0.0680 -0.0229  0.1626
 1051POPI   C4B15052   8.280  10.515   8.155  0.0763  0.0175 -0.0474
 1052POPI    C115053  10.564   0.627   5.770 -0.2794  0.0890  0.0004
 1052POPI    C215054  10.507   0.982   5.596 -0.1785  0.0032 -0.2114
 1052POPI    C315055  10.759   0.718   5.433  0.0947  0.0077  0.1886
 1052POPI   PO415056  10.610   0.744   5.997 -0.0494  0.0533  0.0311
 1052POPI   GL115057  10.588   0.947   6.292 -0.1162 -0.1466  0.2768
 1052POPI   GL215058  10.510   0.708   6.543 -0.2124 -0.2282  0.1411
 1052POPI   C1A15059  10.917   0.968   6.687 -0.1739  0.1497  0.0100
 1052POPI   D2A15060  11.317   0.899   6.791 -0.3174 -0.0442 -0.0715
 1052POPI   C3A15061  11.626   0.824   6.467  0.0601 -0.0699  0.2407
 1052POPI   C4A15062  11.912   0.584   6.244  0.2541 -0.1632  0.0659
 1052POPI   C1B15063  10.611   0.741   7.051 -0.2087 -0.0769 -0.1056
 1052POPI   C2B15064  10.928   0.561   7.335 -0.1218 -0.0688  0.0095
 1052POPI   C3B15065  11.061   0.699   7.770  0.0630  0.1914 -0.2090
 1052POPI   C4B15066  11.362   0.617   7.987 -0.5524  0.0793  0.0967
 1053POPI    C115067   1.949  12.454   5.237 -0.0614  0.0803 -0.2125
 1053POPI    C215068   1.966  12.055   5.224  0.2594  0.0850 -0.0266
 1053POPI    C315069   1.800  12.257   4.922  0.0710 -0.1888 -0.1099
 1053POPI   PO415070   1.906  12.531   5.469 -0.2396  0.0148  0.0045
 1053POPI   GL115071   2.079  12.668   5.728  0.0252 -0.0029 -0.0645
 1053POPI   GL215072   2.248  12.512   5.939 -0.1194  0.3207  0.1034
 1053POPI   C1A15073   1.778  12.710   6.053  0.1660 -0.2258  0.0084
 1053POPI   D2A15074   1.462  12.742   6.281 -0.1456 -0.0892 -0.1529
 1053POPI   C3A15075   1.312  13.193   6.475  0.1397  0.2482 -0.1008
 1053POPI   C4A15076   1.107  13.380   6.806 -0.2411  0.1525  0.2917
 1053POPI   C1B15077   2.119  12.393   6.308  0.3601  0.2745 -0.0000
 1053POPI   C2B15078   1.844  12.482   6.665 -0.2631 -0.2149  0.3462
 1053POPI   C3B15079   1.647  12.876   6.771  0.2765 -0.1701  0.3355
 1053POPI   C4B15080   1.478  13.089   7.079 -0.0360  0.1372  0.1212
 1054POPI    C115081  10.813  14.067   5.840 -0.1946 -0.0936  0.0196
 1054POPI    C215082  10.556  14.374   5.845  0.0448  0.1096  0.0601
 1054POPI    C315083  10.718  14.254   5.499 -0.0146  0.0568  0.0503
 1054POPI   PO415084  10.906  14.066   6.161 -0.1944 -0.0093 -0.1026
 1054POPI   GL115085  10.960  13.908   6.538  0.0037 -0.1527 -0.0921
 1054POPI   GL215086  11.289  13.783   6.307  0.0308  0.3869  0.4133
 1054POPI   C1A15087  10.995  13.847   6.908 -0.1916 -0.2053 -0.3460
 1054POPI   D2A15088  10.953  13.725   7.248 -0.1471  0.2817  0.1126
 1054POPI   C3A15089  10.615  13.858   7.585  0.0928 -0.0730 -0.0602
 1054POPI   C4A15090  10.484  14.002   8.065 -0.0043  0.1276 -0.1128
 1054POPI   C1B15091  11.442  13.613   6.675 -0.1216  0.2675  0.1416
 1054POPI   C2B15092  11.434  13.639   7.051  0.0831 -0.2268  0.2461
 1054POPI   C3B15093  11.431  13.698   7.514 -0.1521 -0.0394 -0.0223
 1054POPI   C4B15094  11.404  13.745   7.948  0.3530  0.0449 -0.2600
 1055POPI    C115095   9.417   6.618   5.203 -0.0224 -0.0904  0.2101
 1055POPI    C215096   9.238   6.963   5.109  0.1335 -0.0601  0.0177
 1055POPI    C315097   9.018   6.645   5.213 -0.0354 -0.0339 -0.2496
 1055POPI   PO415098   9.612   6.764   5.324  0.2464  0.1408 -0.1842
 1055POPI   GL115099   9.769   6.826   5.653 -0.0637  0.0048 -0.3324
 1055POPI   GL215100   9.814   7.191   5.752  0.0923  0.0915  0.3017
 1055POPI   C1A15101   9.630   6.840   6.001 -0.2919  0.0146 -0.0893
 1055POPI   D2A15102   9.567   6.946   6.447  0.0027 -0.0635  0.1626
 1055POPI   C3A15103   9.571   6.913   6.908  0.1387 -0.1809 -0.0440
 1055POPI   C4A15104   9.586   6.923   7.295 -0.1198 -0.0998  0.1054
 1055POPI   C1B15105   9.876   7.393   6.187  0.0181  0.1603 -0.0958
 1055POPI   C2B15106   9.819   7.325   6.666 -0.4009 -0.0572  0.0580
 1055POPI   C3B15107   9.809   7.377   7.120 -0.0804  0.0358 -0.0919
 1055POPI   C4B15108   9.937   7.329   7.526 -0.0036 -0.4599 -0.0579
 1056POPI    C115109   7.913   9.750   5.761 -0.2956  0.0979  0.1041
 1056POPI    C215110   7.592   9.776   5.524 -0.2529 -0.0413  0.0303
 1056POPI    C315111   7.815   9.444   5.524 -0.0988  0.0613  0.0686
 1056POPI   PO415112   7.778   9.799   6.037 -0.1479 -0.4233  0.0580
 1056POPI   GL115113   7.939   9.935   6.458  0.0450  0.0948  0.2954
 1056POPI   GL215114   8.077   9.662   6.437  0.1973  0.0207  0.0144
 1056POPI   C1A15115   8.078   9.927   6.916  0.0349 -0.1640  0.0304
 1056POPI   D2A15116   8.217   9.840   7.280 -0.0517  0.1252  0.1753
 1056POPI   C3A15117   8.311   9.719   7.610 -0.1038 -0.1133 -0.1651
 1056POPI   C4A15118   8.364   9.900   7.973  0.0078  0.0119 -0.0705
 1056POPI   C1B15119   7.945   9.468   6.741  0.0003 -0.1409 -0.0205
 1056POPI   C2B15120   7.816   9.438   7.104  0.0631 -0.1853 -0.1106
 1056POPI   C3B15121   7.789   9.514   7.534  0.0212  0.1306 -0.0467
 1056POPI   C4B15122   7.919   9.629   7.910  0.0765 -0.0337  0.2861
 1057POPI    C115123   3.939  16.210   5.811 -0.0177 -0.1019  0.0519
 1057POPI    C215124   3.928  16.282   5.418 -0.1195 -0.0498  0.0639
 1057POPI    C315125   4.279  16.273   5.610 -0.0581 -0.2172 -0.0536
 1057POPI   PO415126   3.691  16.368   5.876  0.0768  0.0357  0.1203
 1057POPI   GL115127   3.480  16.461   6.302  0.1149 -0.0295  0.1907
 1057POPI   GL215128   3.243  16.551   6.291  0.0953 -0.2174  0.0978
 1057POPI   C1A15129   3.822  16.653   6.485 -0.1440 -0.1286 -0.1469
 1057POPI   D2A15130   3.839  16.854   6.958  0.0085 -0.0151 -0.0032
 1057POPI   C3A15131   3.743  16.632   7.285  0.1885  0.1306 -0.3770
 1057POPI   C4A15132   3.617  16.588   7.706  0.1409 -0.2430  0.1386
 1057POPI   C1B15133   3.209  16.512   6.773 -0.0662 -0.1170  0.0424
 1057POPI   C2B15134   3.158  16.443   7.237  0.1756 -0.1812  0.1165
 1057POPI   C3B15135   3.107  16.307   7.699  0.3001 -0.2507  0.0082
 1057POPI   C4B15136   2.837  16.089   7.979  0.1231  0.0370  0.2851
 1058POPI    C115137   3.691   8.285   5.942  0.1421  0.1188 -0.0887
 1058POPI    C215138   3.403   8.281   5.665  0.1336  0.0023 -0.0788
 1058POPI    C315139   3.781   8.200   5.561  0.1363 -0.0062 -0.0627
 1058POPI   PO415140   3.754   8.483   6.046 -0.1743  0.0363 -0.0842
 1058POPI   GL115141   3.467   8.665   6.236 -0.1563  0.3236 -0.0011
 1058POPI   GL215142   3.090   8.755   6.379  0.0918 -0.0932  0.1430
 1058POPI   C1A15143   3.563   8.815   6.643  0.0168  0.0096 -0.0532
 1058POPI   D2A15144   3.572   8.684   7.068 -0.1037 -0.2242  0.1698
 1058POPI   C3A15145   4.019   8.703   7.256 -0.0758 -0.1732  0.1722
 1058POPI   C4A15146   4.290   8.644   7.726  0.1596  0.0596  0.1992
 1058POPI   C1B15147   3.130   8.571   6.746  0.1161 -0.0969 -0.1263
 1058POPI   C2B15148   3.095   8.519   7.190 -0.1979 -0.0645  0.0766
 1058POPI   C3B15149   2.853   8.393   7.514  0.0866 -0.1322  0.1527
 1058POPI   C4B15150   2.756   8.394   7.907 -0.0755  0.0638 -0.1114
 1059POPI    C115151   4.072   1.353   5.977 -0.0328  0.1369  0.2555
 1059POPI    C215152   3.799   1.185   6.216 -0.0839  0.1549  0.2104
 1059POPI    C315153   3.682   1.414   5.910 -0.0191  0.1268  0.1644
 1059POPI   PO415154   4.278   1.342   6.086 -0.0836 -0.0034  0.0292
 1059POPI   GL115155   4.381   1.567   6.383  0.0652  0.2350 -0.2027
 1059POPI   GL215156   4.452   1.320   6.578 -0.0378 -0.2794 -0.0440
 1059POPI   C1A15157   4.131   1.644   6.703 -0.1809  0.0576 -0.1159
 1059POPI   D2A15158   4.081   1.420   7.036 -0.2731 -0.1231  0.1211
 1059POPI   C3A15159   4.016   1.499   7.438  0.2581  0.0387  0.3809
 1059POPI   C4A15160   3.983   1.448   7.877  0.0586  0.0973 -0.0818
 1059POPI   C1B15161   4.562   1.303   6.981 -0.1445  0.1790 -0.1150
 1059POPI   C2B15162   4.618   1.238   7.419  0.2824 -0.1869  0.1015
 1059POPI   C3B15163   4.762   1.030   7.828  0.2093 -0.0539 -0.0890
 1059POPI   C4B15164   4.650   0.860   8.149 -0.3848 -0.1728  0.1530
 1060POPI    C115165   1.630   3.122   5.585 -0.0883 -0.1840 -0.0450
 1060POPI    C215166   1.365   2.822   5.604 -0.1739 -0.1203 -0.2094
 1060POPI    C315167   1.723   2.763   5.435 -0.0948 -0.1973 -0.0172
 1060POPI   PO415168   1.609   3.206   5.832  0.0767  0.0364 -0.3968
 1060POPI   GL115169   1.687   3.520   6.164  0.0682  0.0419 -0.2102
 1060POPI   GL215170   1.503   3.290   6.318 -0.1456 -0.1113  0.1146
 1060POPI   C1A15171   1.641   3.801   6.596 -0.2733  0.3582  0.0070
 1060POPI   D2A15172   1.582   3.798   7.062 -0.3043 -0.0759 -0.0711
 1060POPI   C3A15173   1.672   3.612   7.449  0.4062 -0.0355 -0.1901
 1060POPI   C4A15174   1.654   3.677   8.014 -0.1994  0.0373  0.0884
 1060POPI   C1B15175   1.716   3.268   6.754 -0.1646 -0.2109 -0.1433
 1060POPI   C2B15176   1.958   3.208   7.189  0.0332 -0.1528 -0.1519
 1060POPI   C3B15177   2.035   3.180   7.661  0.0126  0.2205  0.1473
 1060POPI   C4B15178   2.287   2.958   8.019  0.2707  0.1451 -0.0247
 1061POPI    C115179   3.061   9.443   5.283 -0.0876 -0.0700 -0.3180
 1061POPI    C215180   3.354   9.206   5.149  0.2243 -0.0092  0.2260
 1061POPI    C315181   2.978   9.071   5.161  0.3210 -0.3007  0.0757
 1061POPI   PO415182   3.196   9.538   5.601 -0.2324  0.2477  0.0710
 1061POPI   GL115183   3.206   9.661   6.101 -0.3815  0.1487 -0.1209
 1061POPI   GL215184   3.297   9.749   6.348  0.1041 -0.0967 -0.0930
 1061POPI   C1A15185   2.833   9.639   6.414 -0.3643 -0.0025  0.1427
 1061POPI   D2A15186   2.464   9.467   6.724 -0.0592 -0.1044 -0.3265
 1061POPI   C3A15187   2.286   9.473   7.140 -0.1035 -0.4424  0.0352
 1061POPI   C4A15188   2.487   9.314   7.540  0.0568 -0.1920 -0.2148
 1061POPI   C1B15189   3.339   9.606   6.808 -0.1593  0.2092 -0.2885
 1061POPI   C2B15190   3.322   9.466   7.253  0.0734 -0.0630  0.1659
 1061POPI   C3B15191   3.018   9.362   7.672 -0.0175 -0.0591 -0.0471
 1061POPI   C4B15192   3.072   9.205   8.169 -0.1551 -0.0627  0.1134
 1062POPI    C115193   7.738  10.837   5.662 -0.3837 -0.0245 -0.1881
 1062POPI    C215194   7.905  11.159   5.832 -0.0611 -0.2480 -0.0721
 1062POPI    C315195   7.840  11.152   5.437 -0.0264 -0.0596 -0.0818
 1062POPI   PO415196   7.716  10.646   5.928  0.1554  0.0015  0.1769
 1062POPI   GL115197   7.603  10.423   6.274 -0.1279 -0.6206  0.0020
 1062POPI   GL215198   7.826  10.378   6.574 -0.1330 -0.0583  0.2182
 1062POPI   C1A15199   7.377  10.327   6.706  0.1178 -0.1843 -0.0790
 1062POPI   D2A15200   7.315  10.458   7.046 -0.4049  0.1653 -0.3248
 1062POPI   C3A15201   7.380  10.372   7.386 -0.2240 -0.0230  0.0453
 1062POPI   C4A15202   7.390  10.376   7.895  0.0533 -0.0551  0.0303
 1062POPI   C1B15203   7.882  10.431   6.949 -0.1897 -0.1336 -0.1010
 1062POPI   C2B15204   7.958  10.267   7.329  0.0433 -0.2768 -0.1339
 1062POPI   C3B15205   7.950  10.165   7.746 -0.0004  0.0161 -0.2381
 1062POPI   C4B15206   7.721  10.060   8.140  0.1755  0.1454  0.1777
 1063POPI    C115207  18.011  14.093   5.760  0.1793  0.0156  0.0474
 1063POPI    C215208  18.064  13.869   5.433 -0.2836  0.1519 -0.1299
 1063POPI    C315209  17.939  13.700   5.773  0.3247 -0.0121  0.0250
 1063POPI   PO415210  17.865  14.274   5.676  0.0321 -0.1321 -0.0607
 1063POPI   GL115211  17.495  14.390   5.839  0.0351  0.1724 -0.1166
 1063POPI   GL215212  17.574  14.677   5.842 -0.0387 -0.0432 -0.3110
 1063POPI   C1A15213  17.403  14.365   6.215  0.1300  0.1555 -0.0154
 1063POPI   D2A15214  17.279  14.238   6.594  0.1019 -0.2127 -0.0218
 1063POPI   C3A15215  17.280  14.483   6.941 -0.1523  0.0412 -0.2917
 1063POPI   C4A15216  17.303  14.591   7.405  0.2213 -0.0072  0.0646
 1063POPI   C1B15217  17.381  14.842   6.179  0.0445  0.0481  0.0983
 1063POPI   C2B15218  17.170  14.731   6.552  0.1857 -0.0127 -0.5091
 1063POPI   C3B15219  16.886  14.797   6.886  0.2468 -0.2955  0.3153
 1063POPI   C4B15220  16.840  14.731   7.348  0.1422 -0.3756  0.1092
 1064POPI    C115221   2.850   2.689   5.407 -0.2229 -0.0202 -0.2408
 1064POPI    C215222   2.634   2.645   5.074  0.0571  0.1851 -0.4545
 1064POPI    C315223   2.905   2.938   5.099  0.1294  0.0918 -0.0928
 1064POPI   PO415224   2.734   2.651   5.620 -0.0075  0.5784 -0.3899
 1064POPI   GL115225   2.668   2.415   5.932  0.0231  0.0188 -0.1633
 1064POPI   GL215226   2.884   2.574   6.236  0.0445  0.1859 -0.0682
 1064POPI   C1A15227   2.535   2.253   6.412 -0.2243  0.0679 -0.2265
 1064POPI   D2A15228   2.600   1.968   6.649 -0.4403  0.2597 -0.1063
 1064POPI   C3A15229   2.832   1.969   7.032  0.2385  0.1284 -0.1943
 1064POPI   C4A15230   3.037   2.223   7.348 -0.1619  0.0898 -0.0805
 1064POPI   C1B15231   2.595   2.684   6.623  0.2887 -0.1147  0.2036
 1064POPI   C2B15232   2.447   2.326   6.902 -0.0112  0.1000  0.0991
 1064POPI   C3B15233   2.430   2.285   7.365 -0.1822 -0.0821  0.0736
 1064POPI   C4B15234   2.691   2.410   7.692  0.1189 -0.2834 -0.3548
 1065POPI    C115235  15.477   6.539   5.175 -0.0535  0.0683  0.1616
 1065POPI    C215236  15.178   6.786   5.076 -0.0764 -0.0879 -0.1701
 1065POPI    C315237  15.557   6.912   5.057 -0.0868 -0.0819 -0.3615
 1065POPI   PO415238  15.486   6.514   5.517 -0.0777 -0.2192  0.1380
 1065POPI   GL115239  15.387   6.641   5.906  0.0693  0.2451  0.0056
 1065POPI   GL215240  15.062   6.693   6.117 -0.3390 -0.0766  0.1112
 1065POPI   C1A15241  15.582   6.531   6.279 -0.4080 -0.0142 -0.1508
 1065POPI   D2A15242  15.598   6.479   6.743 -0.1792  0.0932  0.2865
 1065POPI   C3A15243  15.373   6.191   6.903  0.0293 -0.0580 -0.0229
 1065POPI   C4A15244  15.371   5.940   7.102 -0.0635 -0.1495  0.3277
 1065POPI   C1B15245  14.658   6.411   6.286  0.0413 -0.1297 -0.2875
 1065POPI   C2B15246  14.618   6.167   6.544 -0.0890  0.1203  0.2614
 1065POPI   C3B15247  14.482   5.808   6.847 -0.0055  0.1550 -0.1648
 1065POPI   C4B15248  14.192   5.562   6.871  0.4887  0.0043 -0.2250
 1066POPI    C115249   0.369   0.110   5.805 -0.0833  0.0570 -0.1658
 1066POPI    C215250   0.229   0.154   5.433 -0.0379 -0.0866 -0.2004
 1066POPI    C315251   0.471  -0.153   5.521  0.2376  0.1447 -0.1355
 1066POPI   PO415252   0.179   0.049   5.958 -0.1062  0.2528 -0.0282
 1066POPI   GL115253   0.109  -0.080   6.379  0.2145  0.0256  0.0790
 1066POPI   GL215254  -0.174  -0.322   6.456 -0.1628 -0.3881 -0.0388
 1066POPI   C1A15255   0.127   0.086   6.840  0.1416 -0.1610  0.1159
 1066POPI   D2A15256   0.031   0.154   7.333 -0.2000  0.1098  0.0435
 1066POPI   C3A15257  -0.033   0.257   7.671  0.4630  0.0144 -0.2783
 1066POPI   C4A15258   0.189   0.150   8.135  0.0385  0.2388 -0.0567
 1066POPI   C1B15259  -0.136  -0.398   6.908 -0.1163  0.1108  0.0063
 1066POPI   C2B15260  -0.304  -0.259   7.346  0.0971  0.4506  0.1138
 1066POPI   C3B15261  -0.252  -0.465   7.786 -0.2862  0.1940 -0.0015
 1066POPI   C4B15262  -0.086  -0.821   8.206 -0.0314  0.0657  0.1398
 1067POPI    C115263  14.429  14.161   5.715  0.2015 -0.1227 -0.0307
 1067POPI    C215264  14.816  14.259   5.679  0.1899 -0.0649  0.0014
 1067POPI    C315265  14.581  14.462   5.931  0.1489 -0.1292  0.0153
 1067POPI   PO415266  14.462  13.860   5.744  0.0433  0.0501  0.0890
 1067POPI   GL115267  14.443  13.527   6.096 -0.1680 -0.0780  0.0431
 1067POPI   GL215268  14.754  13.507   6.025 -0.1256 -0.0020 -0.0305
 1067POPI   C1A15269  14.421  13.337   6.523  0.0429  0.1372  0.3157
 1067POPI   D2A15270  14.454  13.361   6.928 -0.1267 -0.0840 -0.1893
 1067POPI   C3A15271  14.203  13.551   7.299 -0.0280 -0.2685  0.0686
 1067POPI   C4A15272  14.114  13.443   7.718  0.0490 -0.0871 -0.0539
 1067POPI   C1B15273  14.875  13.519   6.502 -0.1772 -0.1509 -0.0391
 1067POPI   C2B15274  14.895  13.655   6.909  0.0808 -0.1167 -0.0372
 1067POPI   C3B15275  14.696  13.518   7.313 -0.0938 -0.0851 -0.0164
 1067POPI   C4B15276  14.696  13.583   7.677  0.1908  0.1287  0.0376
 1068POPI    C115277  15.422   0.180   5.820 -0.1128 -0.2353  0.0500
 1068POPI    C215278  15.330   0.554   5.929  0.0857 -0.1692 -0.0044
 1068POPI    C315279  15.073   0.341   5.709 -0.0106 -0.0501 -0.0082
 1068POPI   PO415280  15.701   0.127   5.907  0.1355 -0.2273  0.0013
 1068POPI   GL115281  15.917   0.221   6.262  0.0515 -0.0023 -0.1755
 1068POPI   GL215282  16.059   0.016   6.304  0.1652 -0.1127  0.1929
 1068POPI   C1A15283  15.534   0.258   6.600  0.1905 -0.2006 -0.0185
 1068POPI   D2A15284  15.310   0.599   6.898  0.1108  0.0323 -0.0955
 1068POPI   C3A15285  15.515   0.674   7.218 -0.3703  0.1171 -0.1165
 1068POPI   C4A15286  15.592   0.702   7.627 -0.1583 -0.3949 -0.3943
 1068POPI   C1B15287  16.080   0.162   6.764 -0.0486 -0.1183 -0.0717
 1068POPI   C2B15288  15.991   0.245   7.211  0.3672 -0.0512  0.2930
 1068POPI   C3B15289  15.851   0.290   7.671  0.0302 -0.0066 -0.1203
 1068POPI   C4B15290  15.563   0.135   7.914  0.0913  0.0068  0.2814
 1069POPI    C115291   6.707  14.334   6.214  0.3037 -0.0615 -0.0320
 1069POPI    C215292   6.751  14.713   6.334  0.2434 -0.0047 -0.1869
 1069POPI    C315293   6.534  14.631   6.008  0.1266 -0.1857 -0.0650
 1069POPI   PO415294   6.944  14.214   6.181  0.1082 -0.0185 -0.2134
 1069POPI   GL115295   7.169  14.458   6.395  0.1237 -0.0701 -0.1258
 1069POPI   GL215296   7.512  14.398   6.519 -0.1017 -0.0071 -0.0780
 1069POPI   C1A15297   6.840  14.454   6.770 -0.2165  0.1087  0.0681
 1069POPI   D2A15298   6.729  14.300   7.228  0.1305  0.2156  0.1089
 1069POPI   C3A15299   6.731  14.246   7.630  0.3716 -0.0154 -0.3357
 1069POPI   C4A15300   6.969  14.259   7.821  0.1010 -0.2441 -0.2588
 1069POPI   C1B15301   7.449  14.489   6.932 -0.1455 -0.0820 -0.3930
 1069POPI   C2B15302   7.395  14.477   7.370  0.3952  0.0431  0.2440
 1069POPI   C3B15303   7.583  14.480   7.601  0.1509  0.0278 -0.2327
 1069POPI   C4B15304   7.735  14.379   8.070 -0.3549 -0.0584 -0.0363
 1070POPI    C115305   1.765  15.835   5.649  0.0891 -0.1186 -0.1297
 1070POPI    C215306   1.652  16.185   5.491 -0.0135 -0.0842  0.0180
 1070POPI    C315307   1.683  15.861   5.258 -0.2640 -0.0576 -0.0546
 1070POPI   PO415308   1.600  15.905   5.925 -0.1456 -0.1148  0.1124
 1070POPI   GL115309   1.441  15.716   6.219  0.0478  0.1500  0.1283
 1070POPI   GL215310   1.575  15.439   6.242  0.1401 -0.2939  0.0005
 1070POPI   C1A15311   1.433  15.710   6.679  0.4166  0.1427 -0.2200
 1070POPI   D2A15312   1.467  15.608   7.024  0.1360  0.1628 -0.3544
 1070POPI   C3A15313   1.196  15.745   7.287  0.0616 -0.0149  0.0688
 1070POPI   C4A15314   0.900  15.761   7.608  0.1665 -0.0338 -0.2637
 1070POPI   C1B15315   1.342  15.271   6.493  0.1337 -0.0099 -0.4112
 1070POPI   C2B15316   1.362  15.168   6.883 -0.0302  0.0163 -0.1657
 1070POPI   C3B15317   1.372  15.141   7.339 -0.0646 -0.1752 -0.0700
 1070POPI   C4B15318   1.508  14.949   7.780 -0.0448  0.1551 -0.2409
 1071POPI    C115319  10.102   5.055   5.855 -0.2003  0.1289 -0.0141
 1071POPI    C215320  10.236   5.134   5.486 -0.1237 -0.0732 -0.0308
 1071POPI    C315321  10.238   5.420   5.766  0.0124  0.0236 -0.1294
 1071POPI   PO415322  10.138   4.878   5.963 -0.0721  0.0588  0.3629
 1071POPI   GL115323  10.052   4.850   6.332  0.1624  0.1026  0.1152
 1071POPI   GL215324  10.214   4.723   6.402 -0.3180 -0.2072 -0.3228
 1071POPI   C1A15325   9.941   5.110   6.608 -0.0567 -0.0014  0.4510
 1071POPI   D2A15326   9.889   5.023   7.091  0.0398 -0.0388  0.0720
 1071POPI   C3A15327   9.889   5.314   7.393  0.1827 -0.1909  0.0828
 1071POPI   C4A15328   9.836   5.161   7.836 -0.0392 -0.0672 -0.2611
 1071POPI   C1B15329  10.109   4.517   6.756  0.0286  0.1194  0.1107
 1071POPI   C2B15330  10.245   4.637   7.124 -0.0397 -0.2107 -0.1234
 1071POPI   C3B15331  10.202   4.817   7.548  0.2214 -0.2748  0.0715
 1071POPI   C4B15332  10.306   4.855   7.989 -0.0490  0.3009 -0.0516
 1072POPI    C115333  15.417   7.971   5.674 -0.0523  0.1953  0.0948
 1072POPI    C215334  15.172   7.671   5.776 -0.0373  0.2243  0.2173
 1072POPI    C315335  15.551   7.594   5.673 -0.0530  0.1947  0.1820
 1072POPI   PO415336  15.295   8.155   5.902  0.1972  0.5365 -0.0524
 1072POPI   GL115337  15.419   8.322   6.231 -0.0540  0.0559 -0.2379
 1072POPI   GL215338  15.642   8.308   6.283  0.2686  0.1785  0.1077
 1072POPI   C1A15339  15.348   8.700   6.471 -0.0152 -0.2197  0.1696
 1072POPI   D2A15340  15.086   8.921   6.772 -0.0693  0.0317  0.3759
 1072POPI   C3A15341  14.818   8.559   6.938 -0.1742  0.3007  0.2171
 1072POPI   C4A15342  14.564   8.203   6.850 -0.5388  0.0751  0.3708
 1072POPI   C1B15343  15.642   8.346   6.674  0.1951  0.2249  0.0898
 1072POPI   C2B15344  15.582   8.525   7.098  0.1598 -0.0669  0.0989
 1072POPI   C3B15345  15.200   8.883   7.354 -0.1040  0.0709  0.1922
 1072POPI   C4B15346  15.045   9.356   7.532 -0.1014 -0.0073 -0.1408
 1073POPI    C115347  11.655   7.585   5.042  0.1575 -0.1097 -0.1561
 1073POPI    C215348  11.263   7.537   4.980  0.0981  0.1098  0.0355
 1073POPI    C315349  11.526   7.398   4.712 -0.1073 -0.0777 -0.0728
 1073POPI   PO415350  11.639   7.624   5.362  0.0828  0.0756 -0.3175
 1073POPI   GL115351  11.617   7.561   5.732  0.2618 -0.1803 -0.0145
 1073POPI   GL215352  11.814   7.431   6.000 -0.2431 -0.0651  0.0395
 1073POPI   C1A15353  11.458   7.749   6.157 -0.0505  0.1840  0.3286
 1073POPI   D2A15354  11.452   7.896   6.641  0.1066  0.2199 -0.2585
 1073POPI   C3A15355  11.332   7.567   7.000  0.0972  0.2740 -0.0194
 1073POPI   C4A15356  11.322   7.507   7.455  0.0819  0.2297  0.1321
 1073POPI   C1B15357  12.206   7.372   6.176  0.2602 -0.1480  0.0814
 1073POPI   C2B15358  12.468   7.318   6.543 -0.0310 -0.2644  0.0803
 1073POPI   C3B15359  12.582   7.000   6.978 -0.0778  0.0025  0.0851
 1073POPI   C4B15360  12.872   6.941   7.312  0.1010  0.0910 -0.0678
 1074POPI    C115361  11.535  10.641   5.488  0.0324 -0.0832  0.0706
 1074POPI    C215362  11.613  10.340   5.236 -0.0857 -0.0517 -0.0046
 1074POPI    C315363  11.339  10.616   5.140 -0.0544  0.0205  0.1112
 1074POPI   PO415364  11.819  10.758   5.570  0.0481  0.2260  0.0566
 1074POPI   GL115365  11.915  10.799   5.966 -0.1000  0.1925 -0.1895
 1074POPI   GL215366  11.733  10.575   6.173  0.0503 -0.1886  0.0869
 1074POPI   C1A15367  12.198  11.110   6.161 -0.0607  0.0213 -0.1683
 1074POPI   D2A15368  12.028  11.415   6.324 -0.2744  0.2510  0.1478
 1074POPI   C3A15369  11.822  11.416   6.666  0.4192  0.0011  0.1136
 1074POPI   C4A15370  11.800  11.413   7.111 -0.0223  0.3410 -0.0776
 1074POPI   C1B15371  11.884  10.230   6.499  0.0254 -0.1354  0.1373
 1074POPI   C2B15372  12.241  10.455   6.849  0.0874  0.1339 -0.3713
 1074POPI   C3B15373  12.562  10.430   7.211 -0.0518  0.1416 -0.0260
 1074POPI   C4B15374  12.723  10.458   7.693  0.0528  0.2662  0.0712
 1075POPI    C115375  17.738   8.056   5.593  0.2179 -0.0417  0.0846
 1075POPI    C215376  17.745   8.409   5.404 -0.0648  0.0084  0.1623
 1075POPI    C315377  17.889   8.082   5.224  0.0487  0.1320  0.0261
 1075POPI   PO415378  17.632   8.193   5.860  0.0804  0.1314  0.0637
 1075POPI   GL115379  17.762   8.324   6.266  0.2157  0.1984  0.2018
 1075POPI   GL215380  17.520   8.624   6.241 -0.3468  0.1399  0.0440
 1075POPI   C1A15381  17.797   8.306   6.756 -0.0487 -0.0849 -0.0706
 1075POPI   D2A15382  18.029   8.607   7.008 -0.2657 -0.1781 -0.1802
 1075POPI   C3A15383  18.136   8.488   7.448  0.1386 -0.2538  0.1799
 1075POPI   C4A15384  17.947   8.218   7.684  0.0475 -0.2463  0.2122
 1075POPI   C1B15385  17.360   8.347   6.548 -0.2839 -0.1293 -0.2627
 1075POPI   C2B15386  17.351   8.409   7.024 -0.1109  0.2197  0.2199
 1075POPI   C3B15387  17.212   8.488   7.341 -0.4377  0.0770 -0.0924
 1075POPI   C4B15388  17.032   8.268   7.659 -0.3061 -0.3197  0.0587
 1076POPI    C115389   9.710  14.898   5.789  0.2422 -0.0748 -0.2328
 1076POPI    C215390   9.428  14.937   5.508  0.0348  0.2407  0.0104
 1076POPI    C315391   9.539  14.573   5.631 -0.1692  0.1106 -0.1829
 1076POPI   PO415392   9.558  15.091   6.029 -0.0628 -0.3487 -0.1001
 1076POPI   GL115393   9.598  15.179   6.480 -0.2384 -0.3451 -0.0357
 1076POPI   GL215394   9.450  14.840   6.520  0.1154  0.3403 -0.1344
 1076POPI   C1A15395   9.792  15.097   6.896  0.1192 -0.1382  0.3575
 1076POPI   D2A15396   9.799  15.204   7.345  0.1899 -0.1493 -0.0722
 1076POPI   C3A15397   9.721  14.919   7.659  0.0215  0.0924  0.0387
 1076POPI   C4A15398   9.834  14.864   8.091 -0.2344 -0.3310 -0.2253
 1076POPI   C1B15399   9.575  14.572   6.680 -0.1895  0.0985 -0.1509
 1076POPI   C2B15400   9.650  14.173   6.857  0.1310  0.0125  0.1249
 1076POPI   C3B15401   9.820  14.142   7.285 -0.2787 -0.0290  0.0650
 1076POPI   C4B15402   9.933  14.370   7.691 -0.1708  0.0262 -0.1586
 1077POPI    C115403  14.872  13.523   5.348 -0.2034  0.0739 -0.0172
 1077POPI    C215404  15.029  13.747   5.640 -0.1955 -0.1392  0.1444
 1077POPI    C315405  14.879  13.922   5.313  0.0863  0.0842  0.1301
 1077POPI   PO415406  14.846  13.225   5.589 -0.0533  0.1749  0.0904
 1077POPI   GL115407  14.613  13.003   5.868  0.0472 -0.0992  0.1319
 1077POPI   GL215408  14.396  13.029   6.012 -0.1991 -0.0250  0.0959
 1077POPI   C1A15409  14.825  13.044   6.331 -0.0653 -0.2716 -0.2005
 1077POPI   D2A15410  14.885  13.140   6.818 -0.1909  0.1560  0.1172
 1077POPI   C3A15411  14.704  13.061   7.252 -0.0123  0.1046 -0.2534
 1077POPI   C4A15412  14.585  13.108   7.663 -0.1890  0.2938  0.3118
 1077POPI   C1B15413  14.416  12.816   6.382 -0.2761 -0.2861 -0.0232
 1077POPI   C2B15414  14.358  12.925   6.830 -0.1394  0.0716 -0.0370
 1077POPI   C3B15415  14.183  12.913   7.216  0.0466 -0.1030 -0.1333
 1077POPI   C4B15416  14.007  13.036   7.475  0.1056  0.1060 -0.0966
 1078POPI    C115417  17.305   7.546   5.473 -0.2449  0.0473 -0.0806
 1078POPI    C215418  16.961   7.590   5.672 -0.2537  0.0510 -0.0971
 1078POPI    C315419  16.971   7.641   5.275 -0.2319  0.0626 -0.0951
 1078POPI   PO415420  17.471   7.578   5.611  0.2525 -0.2540 -0.1012
 1078POPI   GL115421  17.575   7.725   5.992 -0.0828 -0.0879 -0.2371
 1078POPI   GL215422  17.222   7.735   6.068  0.0596 -0.0053  0.2595
 1078POPI   C1A15423  17.588   7.717   6.417  0.0292 -0.3216  0.0600
 1078POPI   D2A15424  17.590   7.897   6.849 -0.1179 -0.1092  0.0812
 1078POPI   C3A15425  17.707   7.703   7.208  0.2540 -0.3830  0.3568
 1078POPI   C4A15426  17.920   7.613   7.526 -0.0703  0.0784 -0.0261
 1078POPI   C1B15427  17.056   7.972   6.386  0.2038  0.2060 -0.1871
 1078POPI   C2B15428  17.115   7.999   6.751  0.0748  0.0478  0.0825
 1078POPI   C3B15429  17.159   8.011   7.173 -0.0014  0.0374 -0.0326
 1078POPI   C4B15430  17.124   7.790   7.504 -0.0589  0.0791  0.1957
 1079POPI    C115431  16.869  16.771   5.901 -0.0944 -0.2359 -0.2709
 1079POPI    C215432  17.122  16.876   5.609 -0.1060 -0.1403 -0.2471
 1079POPI    C315433  17.198  16.554   5.833  0.1806  0.0873 -0.0099
 1079POPI   PO415434  16.775  17.015   5.970  0.1945  0.0053 -0.0537
 1079POPI   GL115435  16.603  17.218   6.294  0.0159  0.0614  0.1153
 1079POPI   GL215436  16.851  17.124   6.449 -0.0313  0.0985  0.1039
 1079POPI   C1A15437  16.398  17.210   6.670 -0.1154 -0.0215 -0.2635
 1079POPI   D2A15438  16.270  17.339   7.090 -0.0410 -0.4456  0.1768
 1079POPI   C3A15439  16.027  17.374   7.461  0.1330 -0.0421  0.0368
 1079POPI   C4A15440  15.911  17.382   7.817 -0.1017 -0.0980 -0.0729
 1079POPI   C1B15441  17.111  17.174   6.738 -0.0200 -0.1018 -0.1416
 1079POPI   C2B15442  17.189  17.080   7.233  0.3286  0.0639  0.0920
 1079POPI   C3B15443  17.089  17.033   7.770  0.2687  0.0558 -0.1084
 1079POPI   C4B15444  17.271  17.136   8.121  0.0715  0.1496  0.1292
 1080POPI    C115445   9.070  10.022   5.601  0.0460  0.0445  0.1808
 1080POPI    C215446   9.091   9.659   5.434 -0.1396  0.0561  0.1298
 1080POPI    C315447   9.065   9.984   5.203  0.3380  0.1273  0.1676
 1080POPI   PO415448   9.304   9.961   5.770  0.1169 -0.0738  0.1597
 1080POPI   GL115449   9.439   9.766   6.164 -0.1536 -0.3323  0.1234
 1080POPI   GL215450   9.592   9.543   6.097  0.0217 -0.1277  0.0130
 1080POPI   C1A15451   9.431   9.740   6.624  0.0563  0.2489  0.1263
 1080POPI   D2A15452   9.450   9.529   6.927  0.0657  0.2000 -0.0052
 1080POPI   C3A15453   9.620   9.543   7.331 -0.0766  0.2029  0.0612
 1080POPI   C4A15454   9.778   9.573   7.758 -0.0832 -0.0408  0.3764
 1080POPI   C1B15455   9.596   9.301   6.500 -0.1249 -0.1580  0.1565
 1080POPI   C2B15456   9.777   9.201   6.894 -0.2419  0.2510  0.2856
 1080POPI   C3B15457   9.738   9.127   7.205  0.0076  0.1039 -0.1451
 1080POPI   C4B15458   9.496   9.117   7.590  0.1199 -0.0806  0.1247
 1081POPI    C115459   2.162   5.334   5.554  0.2042  0.1825 -0.0226
 1081POPI    C215460   2.189   4.948   5.452  0.2629  0.1683  0.0462
 1081POPI    C315461   1.984   5.202   5.221  0.0571  0.0572  0.1041
 1081POPI   PO415462   2.311   5.362   5.804 -0.1668  0.7084  0.2358
 1081POPI   GL115463   2.206   5.453   6.248  0.0483  0.2530  0.1390
 1081POPI   GL215464   2.388   5.735   6.147 -0.0044  0.2612  0.1856
 1081POPI   C1A15465   2.145   5.509   6.723  0.0469  0.0042 -0.2814
 1081POPI   D2A15466   2.253   5.849   6.917  0.0506  0.1058 -0.3325
 1081POPI   C3A15467   2.263   6.063   7.312 -0.3456  0.3307  0.0558
 1081POPI   C4A15468   2.247   6.237   7.644  0.0529  0.1236  0.1856
 1081POPI   C1B15469   2.511   5.849   6.439  0.0742  0.2914 -0.1948
 1081POPI   C2B15470   2.538   6.151   6.664 -0.2284  0.0922 -0.1760
 1081POPI   C3B15471   2.722   6.271   7.067  0.1194  0.0023 -0.1779
 1081POPI   C4B15472   2.785   6.236   7.593  0.3060 -0.0317 -0.3053
 1082POPI    C115473  17.726   1.276   5.978 -0.1417 -0.1827  0.2050
 1082POPI    C215474  17.600   1.419   5.627  0.1262  0.2561  0.2798
 1082POPI    C315475  17.869   1.123   5.637  0.2208  0.3350  0.1137
 1082POPI   PO415476  17.772   1.510   6.152 -0.1864 -0.0838  0.1760
 1082POPI   GL115477  17.543   1.484   6.480 -0.0247  0.1039 -0.0776
 1082POPI   GL215478  17.576   1.182   6.530 -0.0276  0.1551 -0.3554
 1082POPI   C1A15479  17.056   1.501   6.569  0.4013  0.0261 -0.0240
 1082POPI   D2A15480  16.797   1.804   6.750  0.1003 -0.0293 -0.2263
 1082POPI   C3A15481  16.701   1.830   7.090 -0.0900  0.3314  0.2674
 1082POPI   C4A15482  16.804   2.149   7.368  0.2666 -0.2064 -0.3141
 1082POPI   C1B15483  17.409   0.885   6.873  0.1686  0.0809  0.1199
 1082POPI   C2B15484  17.332   1.031   7.267 -0.1004 -0.1789 -0.1257
 1082POPI   C3B15485  17.097   1.340   7.523 -0.2485 -0.0513  0.2230
 1082POPI   C4B15486  16.731   1.260   7.805 -0.1062 -0.1881  0.3419
 1083POPI    C115487   8.375  11.417   5.882  0.1868  0.2789 -0.2636
 1083POPI    C215488   8.729  11.520   6.036  0.1531 -0.0972  0.0823
 1083POPI    C315489   8.708  11.372   5.665  0.3950 -0.3170  0.1531
 1083POPI   PO415490   8.266  11.312   6.200 -0.0805  0.1863 -0.0302
 1083POPI   GL115491   8.022  11.094   6.515 -0.4802 -0.2752 -0.0452
 1083POPI   GL215492   7.744  10.940   6.334  0.2239 -0.3285  0.2034
 1083POPI   C1A15493   7.937  11.169   6.901  0.1452 -0.0110 -0.0546
 1083POPI   D2A15494   7.869  11.180   7.371  0.3028  0.3463 -0.0789
 1083POPI   C3A15495   7.907  11.581   7.594 -0.0580 -0.0357 -0.2262
 1083POPI   C4A15496   8.223  11.886   7.854 -0.1224 -0.2346  0.1109
 1083POPI   C1B15497   7.612  10.800   6.744 -0.2027 -0.2474 -0.0451
 1083POPI   C2B15498   7.600  10.813   7.152 -0.0585  0.0516 -0.3263
 1083POPI   C3B15499   7.319  10.896   7.547 -0.2280 -0.0589  0.1534
 1083POPI   C4B15500   7.278  10.908   7.999 -0.4817  0.3022  0.1002
 1084POPI    C115501   1.263   0.566   5.586  0.0923 -0.0969 -0.0513
 1084POPI    C215502   0.950   0.760   5.431  0.2244  0.0670 -0.1160
 1084POPI    C315503   1.270   0.685   5.204  0.3413  0.1400  0.0235
 1084POPI   PO415504   1.360   0.535   5.813 -0.2517 -0.0567 -0.0009
 1084POPI   GL115505   1.509   0.661   6.225  0.0472 -0.0195  0.0666
 1084POPI   GL215506   1.182   0.785   6.211  0.1406 -0.0191 -0.0553
 1084POPI   C1A15507   1.605   0.535   6.706  0.0994 -0.0105  0.0030
 1084POPI   D2A15508   1.536   0.648   7.061 -0.1855 -0.1795  0.2805
 1084POPI   C3A15509   1.386   0.585   7.406  0.3400  0.0516  0.0649
 1084POPI   C4A15510   1.598   0.603   7.813 -0.1445 -0.1525  0.1120
 1084POPI   C1B15511   1.173   0.935   6.602  0.1468 -0.0531 -0.0758
 1084POPI   C2B15512   1.155   0.946   7.034 -0.0488  0.1823 -0.0377
 1084POPI   C3B15513   1.010   0.982   7.512  0.1042 -0.1752 -0.1174
 1084POPI   C4B15514   1.148   0.831   7.861  0.2063  0.3179  0.0880
 1085POPI    C115515   0.834   6.603   5.632  0.0878 -0.0369  0.1615
 1085POPI    C215516   0.954   6.946   5.464  0.0169 -0.0982 -0.0175
 1085POPI    C315517   0.784   6.662   5.239  0.0924 -0.2593  0.1261
 1085POPI   PO415518   0.709   6.698   5.891  0.2203  0.2676  0.1620
 1085POPI   GL115519   0.828   6.554   6.297  0.3740  0.0391 -0.0286
 1085POPI   GL215520   0.785   6.875   6.329  0.3973 -0.1190 -0.0443
 1085POPI   C1A15521   0.511   6.546   6.576  0.1596  0.1243  0.0116
 1085POPI   D2A15522   0.544   6.548   6.998  0.2697  0.1612  0.1020
 1085POPI   C3A15523   0.773   6.493   7.341  0.0741 -0.0224  0.1622
 1085POPI   C4A15524   0.615   6.486   7.744  0.2527 -0.1643 -0.1333
 1085POPI   C1B15525   0.732   7.116   6.549  0.0036 -0.1199 -0.0108
 1085POPI   C2B15526   0.647   7.292   6.948  0.3326  0.2377  0.0494
 1085POPI   C3B15527   0.732   7.432   7.390 -0.0023  0.3942 -0.0040
 1085POPI   C4B15528   0.995   7.479   7.765  0.0641  0.0568 -0.2160
 1086POPI    C115529   5.566  17.436   6.346  0.2334 -0.0033 -0.1650
 1086POPI    C215530   5.874  17.441   6.601  0.3260 -0.0609 -0.2748
 1086POPI    C315531   5.816  17.748   6.351  0.0119  0.1744  0.0763
 1086POPI   PO415532   5.566  17.172   6.339  0.2231  0.0532  0.0808
 1086POPI   GL115533   5.518  16.848   6.641 -0.0461 -0.0434  0.1328
 1086POPI   GL215534   5.600  16.659   6.768 -0.1968 -0.0581  0.1639
 1086POPI   C1A15535   5.280  16.972   7.021 -0.0851  0.1115  0.2660
 1086POPI   D2A15536   5.325  16.753   7.378 -0.0125  0.0288  0.2948
 1086POPI   C3A15537   5.403  16.975   7.795 -0.2377  0.2662  0.2828
 1086POPI   C4A15538   5.681  17.177   8.133  0.2693 -0.1406 -0.0592
 1086POPI   C1B15539   5.469  16.236   6.991 -0.0132 -0.5980  0.0712
 1086POPI   C2B15540   5.497  16.298   7.396 -0.1560 -0.0878 -0.1748
 1086POPI   C3B15541   5.575  16.460   7.869  0.0424 -0.0152  0.0354
 1086POPI   C4B15542   5.546  16.696   8.226  0.2808 -0.0839 -0.0754
 1087POPI    C115543  12.084   3.172   5.371  0.0365  0.1750 -0.0101
 1087POPI    C215544  12.475   3.176   5.289  0.0649  0.0170  0.1124
 1087POPI    C315545  12.218   3.012   5.030  0.0547  0.3069 -0.0652
 1087POPI   PO415546  12.081   3.100   5.597 -0.0466  0.0479  0.0944
 1087POPI   GL115547  12.167   2.821   5.898 -0.1483  0.0475 -0.2104
 1087POPI   GL215548  11.887   2.893   6.067  0.1269 -0.0495  0.2974
 1087POPI   C1A15549  12.442   2.906   6.183  0.0344  0.3627  0.1002
 1087POPI   D2A15550  12.584   2.976   6.579 -0.0131 -0.0916 -0.2414
 1087POPI   C3A15551  12.428   2.980   7.035  0.2648  0.3050 -0.1221
 1087POPI   C4A15552  12.102   3.032   7.358 -0.0098  0.2125 -0.0682
 1087POPI   C1B15553  12.021   2.954   6.431  0.1116 -0.1406 -0.0752
 1087POPI   C2B15554  11.989   3.062   6.858 -0.2208  0.1414  0.0519
 1087POPI   C3B15555  11.991   3.456   7.067 -0.1968  0.0047  0.0076
 1087POPI   C4B15556  11.964   3.805   7.339 -0.1393  0.2652 -0.1869
 1088POPI    C115557  10.011   9.405   5.718 -0.0208  0.0923  0.0595
 1088POPI    C215558   9.837   9.051   5.783  0.1969 -0.0327 -0.0258
 1088POPI    C315559   9.836   9.209   5.416  0.0653  0.0751  0.0203
 1088POPI   PO415560  10.232   9.350   5.795 -0.3155 -0.1975  0.0467
 1088POPI   GL115561  10.305   9.123   6.119 -0.0257  0.4172 -0.0391
 1088POPI   GL215562  10.066   9.227   6.275  0.3114  0.0397  0.0792
 1088POPI   C1A15563  10.489   8.837   6.333  0.0534  0.1267 -0.0602
 1088POPI   D2A15564  10.578   8.769   6.725  0.0193 -0.2322 -0.0796
 1088POPI   C3A15565  10.603   8.494   7.080  0.1873  0.0775 -0.1680
 1088POPI   C4A15566  10.601   8.534   7.554  0.0574 -0.0422  0.2731
 1088POPI   C1B15567  10.233   9.248   6.679 -0.3127  0.3719  0.0115
 1088POPI   C2B15568  10.313   9.284   7.051 -0.1498  0.0656  0.1839
 1088POPI   C3B15569  10.089   9.310   7.458  0.1274 -0.0672  0.0568
 1088POPI   C4B15570  10.207   9.401   7.917 -0.0350 -0.3378 -0.2659
 1089POPI    C115571   6.247   0.692   6.475 -0.0100 -0.0363  0.1008
 1089POPI    C215572   6.144   0.472   6.157  0.1530 -0.0635  0.0662
 1089POPI    C315573   6.146   0.871   6.132  0.0729 -0.0634  0.0618
 1089POPI   PO415574   6.079   0.539   6.617 -0.0721 -0.1333  0.3707
 1089POPI   GL115575   6.426   0.342   6.838 -0.1225  0.0431 -0.1986
 1089POPI   GL215576   6.206   0.588   7.092  0.2821 -0.1436  0.0317
 1089POPI   C1A15577   6.525   0.287   7.365  0.3073  0.3216 -0.4341
 1089POPI   D2A15578   6.704   0.024   7.598  0.0759 -0.0050  0.1603
 1089POPI   C3A15579   6.739  -0.223   7.875 -0.0674  0.1651  0.1483
 1089POPI   C4A15580   6.753  -0.048   8.229 -0.2111 -0.0848 -0.1941
 1089POPI   C1B15581   6.175   0.650   7.471  0.0584  0.0004  0.1930
 1089POPI   C2B15582   5.927   0.553   7.782  0.1244  0.0948  0.0755
 1089POPI   C3B15583   5.620   0.661   8.096 -0.3186  0.2100  0.2054
 1089POPI   C4B15584   5.524   0.898   8.394 -0.1943 -0.0344 -0.2508
 1090POPI    C115585   2.914   0.318   6.166  0.0916  0.2483 -0.0470
 1090POPI    C215586   3.109   0.090   5.902  0.0919 -0.0224  0.1828
 1090POPI    C315587   3.305   0.374   6.103  0.2262 -0.2123  0.3240
 1090POPI   PO415588   2.780   0.151   6.332 -0.3550 -0.0101 -0.0927
 1090POPI   GL115589   2.619   0.038   6.684  0.1091 -0.1529 -0.3586
 1090POPI   GL215590   2.873  -0.194   6.664  0.1106  0.0913  0.0370
 1090POPI   C1A15591   2.610  -0.161   7.129 -0.0792  0.0376  0.2156
 1090POPI   D2A15592   2.668   0.064   7.492 -0.4622  0.1436 -0.0725
 1090POPI   C3A15593   2.538  -0.071   7.870  0.0388  0.0904  0.3181
 1090POPI   C4A15594   2.205  -0.278   8.202  0.0818 -0.0293 -0.0899
 1090POPI   C1B15595   3.022  -0.351   7.042  0.2850 -0.1979  0.2841
 1090POPI   C2B15596   3.043  -0.299   7.499 -0.2892 -0.0491  0.2931
 1090POPI   C3B15597   3.046  -0.107   7.918 -0.3927 -0.0056 -0.1348
 1090POPI   C4B15598   2.951   0.186   8.145 -0.0993 -0.0386  0.0956
 1091POPI    C115599  13.988  11.096   5.299  0.0406  0.1351 -0.1372
 1091POPI    C215600  13.779  11.405   5.155 -0.1092  0.0346 -0.1387
 1091POPI    C315601  13.821  11.073   4.937  0.0429  0.0490 -0.1329
 1091POPI   PO415602  13.884  11.134   5.625  0.0156  0.0107  0.0641
 1091POPI   GL115603  13.591  11.165   5.970  0.2558  0.4270 -0.2207
 1091POPI   GL215604  13.715  10.942   6.073  0.0449  0.0299  0.3220
 1091POPI   C1A15605  13.228  11.150   6.316  0.4039 -0.2813  0.1287
 1091POPI   D2A15606  13.309  11.189   6.667 -0.0751 -0.0788  0.4086
 1091POPI   C3A15607  13.259  11.361   7.034 -0.0730  0.2065 -0.1017
 1091POPI   C4A15608  13.022  11.299   7.414  0.0101 -0.0216 -0.1043
 1091POPI   C1B15609  13.761  10.959   6.458 -0.2027  0.1160  0.0971
 1091POPI   C2B15610  13.794  10.907   6.865  0.0260  0.1973  0.1064
 1091POPI   C3B15611  13.689  11.057   7.172  0.4868 -0.1144 -0.1455
 1091POPI   C4B15612  13.468  11.045   7.496 -0.0134 -0.2053  0.1506
 1092POPI    C115613   4.153  11.573   5.816  0.0834  0.1366 -0.0814
 1092POPI    C215614   4.478  11.607   5.586 -0.0808  0.1050 -0.3212
 1092POPI    C315615   4.204  11.898   5.588 -0.0426  0.1408 -0.1039
 1092POPI   PO415616   3.986  11.391   5.767  0.1029  0.0561 -0.1914
 1092POPI   GL115617   3.878  11.296   6.134 -0.0580  0.0756 -0.1793
 1092POPI   GL215618   3.876  11.583   6.257  0.0398 -0.2406 -0.0009
 1092POPI   C1A15619   3.928  11.130   6.507 -0.1991 -0.0301  0.0788
 1092POPI   D2A15620   3.763  10.999   6.864  0.1448  0.1210  0.1745
 1092POPI   C3A15621   3.732  10.981   7.325 -0.0055  0.1652  0.2574
 1092POPI   C4A15622   3.473  11.100   7.628  0.1043  0.1754 -0.0879
 1092POPI   C1B15623   3.720  11.579   6.676  0.0537  0.0298  0.0583
 1092POPI   C2B15624   3.625  11.458   7.072 -0.2352 -0.0269 -0.1380
 1092POPI   C3B15625   3.383  11.512   7.360  0.0399 -0.0782  0.2905
 1092POPI   C4B15626   3.271  11.566   7.787 -0.0453 -0.1655  0.0921
 1093POPI    C115627  10.235  16.649   5.558  0.0620 -0.3314 -0.1635
 1093POPI    C215628  10.429  16.817   5.251 -0.0085  0.0871  0.0150
 1093POPI    C315629  10.031  16.845   5.275 -0.0164 -0.0649  0.0742
 1093POPI   PO415630  10.479  16.590   5.761  0.0536  0.0243  0.2377
 1093POPI   GL115631  10.338  16.857   6.188 -0.4297 -0.0062 -0.2066
 1093POPI   GL215632  10.004  16.801   6.254  0.1896  0.0822 -0.0844
 1093POPI   C1A15633  10.539  17.040   6.427  0.0199 -0.0202  0.0709
 1093POPI   D2A15634  10.557  17.446   6.544 -0.3357  0.3049  0.0646
 1093POPI   C3A15635  10.670  17.636   6.907  0.1793 -0.1727  0.1382
 1093POPI   C4A15636  10.672  17.702   7.273  0.2272  0.0313  0.0389
 1093POPI   C1B15637  10.130  16.931   6.627 -0.1274 -0.3670 -0.2009
 1093POPI   C2B15638  10.370  17.187   6.930  0.0263 -0.2144  0.0620
 1093POPI   C3B15639  10.262  17.368   7.192  0.0576  0.1658 -0.4134
 1093POPI   C4B15640  10.349  17.596   7.618  0.2156 -0.0735  0.0568
 1094POPI    C115641   5.990  14.988   6.241  0.1414  0.0962  0.2325
 1094POPI    C215642   6.383  15.036   6.297  0.2034 -0.0188 -0.0790
 1094POPI    C315643   6.230  15.053   5.928 -0.1054  0.1590  0.0528
 1094POPI   PO415644   5.915  14.852   6.384 -0.2718 -0.2447  0.1731
 1094POPI   GL115645   5.446  14.865   6.617 -0.0860 -0.1070 -0.2011
 1094POPI   GL215646   5.136  14.893   6.606 -0.1193 -0.1590 -0.0368
 1094POPI   C1A15647   5.494  14.842   7.091  0.3497  0.0912  0.1422
 1094POPI   D2A15648   5.385  14.892   7.565  0.0298 -0.2352 -0.1148
 1094POPI   C3A15649   5.053  14.660   7.761  0.0611  0.0807  0.1268
 1094POPI   C4A15650   4.830  14.702   8.249  0.2207  0.0424 -0.2410
 1094POPI   C1B15651   4.975  14.858   7.018 -0.5403  0.4373 -0.1071
 1094POPI   C2B15652   4.772  14.946   7.476 -0.0685 -0.0020 -0.1526
 1094POPI   C3B15653   4.582  14.826   7.798  0.0071  0.0084 -0.3695
 1094POPI   C4B15654   4.239  14.649   8.028  0.1341 -0.2586 -0.1056
 1095POPI    C115655   5.230  16.899   5.781  0.0305  0.0700 -0.0836
 1095POPI    C215656   5.423  16.753   6.100 -0.2253  0.1128  0.0939
 1095POPI    C315657   5.522  16.630   5.733 -0.0204 -0.0394  0.1983
 1095POPI   PO415658   4.998  16.930   5.900  0.1267 -0.0462 -0.0750
 1095POPI   GL115659   4.736  16.706   6.225 -0.1390 -0.2255 -0.2309
 1095POPI   GL215660   4.571  16.592   6.298 -0.4341  0.0548  0.2613
 1095POPI   C1A15661   4.884  16.727   6.723  0.0666  0.4004 -0.0336
 1095POPI   D2A15662   4.787  16.799   7.130  0.1424 -0.1501 -0.0609
 1095POPI   C3A15663   4.868  16.843   7.513 -0.0386  0.0149  0.0302
 1095POPI   C4A15664   4.941  17.182   7.864 -0.3225 -0.0719  0.0110
 1095POPI   C1B15665   4.263  16.559   6.598 -0.0919 -0.0270  0.0772
 1095POPI   C2B15666   4.071  16.405   6.994 -0.0083  0.0084  0.2146
 1095POPI   C3B15667   4.067  16.285   7.353 -0.0933  0.0846 -0.3951
 1095POPI   C4B15668   4.103  16.207   7.761  0.1389 -0.2137 -0.1915
 1096POPI    C115669  15.414  14.891   5.916 -0.0173 -0.0403 -0.0316
 1096POPI    C215670  15.696  14.937   5.636 -0.0286  0.1303 -0.0156
 1096POPI    C315671  15.732  14.648   5.909  0.1420  0.1650 -0.0006
 1096POPI   PO415672  15.367  15.131   6.094  0.2492  0.0933  0.1137
 1096POPI   GL115673  15.589  15.272   6.465  0.0194 -0.2456  0.2912
 1096POPI   GL215674  15.861  15.409   6.730  0.1063  0.0713  0.1080
 1096POPI   C1A15675  15.622  14.932   6.822  0.0628  0.1009  0.0691
 1096POPI   D2A15676  15.561  14.703   7.226  0.0431  0.2288  0.0499
 1096POPI   C3A15677  15.432  15.003   7.413 -0.3073 -0.0423  0.0817
 1096POPI   C4A15678  15.191  15.032   7.782 -0.0634 -0.1433  0.0647
 1096POPI   C1B15679  15.502  15.409   6.982  0.1668 -0.2207 -0.1237
 1096POPI   C2B15680  15.289  15.491   7.345 -0.2460 -0.0640 -0.0820
 1096POPI   C3B15681  15.031  15.477   7.690 -0.0297  0.3333 -0.1761
 1096POPI   C4B15682  14.780  15.537   8.168 -0.0030  0.2565  0.2036
 1097DPPI    C115683  12.837  11.793   5.543 -0.1424  0.4138 -0.0843
 1097DPPI    C215684  12.772  11.698   5.160 -0.1060  0.3440 -0.0734
 1097DPPI    C315685  12.584  11.497   5.449  0.3090 -0.0001 -0.0333
 1097DPPI   PO415686  13.126  11.849   5.617 -0.3355  0.0458 -0.0001
 1097DPPI   GL115687  13.312  11.695   6.050 -0.1157 -0.0396  0.0863
 1097DPPI   GL215688  12.953  11.705   6.108  0.0605 -0.0445 -0.1215
 1097DPPI   C1A15689  13.480  11.661   6.385  0.0552  0.0762 -0.0436
 1097DPPI   C2A15690  13.340  11.798   6.750 -0.0117 -0.1715 -0.0280
 1097DPPI   C3A15691  13.283  11.900   7.166 -0.2415  0.2447  0.0488
 1097DPPI   C4A15692  13.148  11.676   7.622  0.2894  0.0179  0.3037
 1097DPPI   C1B15693  12.936  11.529   6.551 -0.4030 -0.3520 -0.0830
 1097DPPI   C2B15694  12.779  11.532   6.994 -0.1612 -0.1868 -0.1875
 1097DPPI   C3B15695  12.613  11.678   7.445  0.1051 -0.0984 -0.3127
 1097DPPI   C4B15696  12.785  11.883   7.798 -0.0163 -0.0306  0.0950
 1098DPPI    C115697   6.500  13.539   5.608 -0.2072  0.0448  0.1592
 1098DPPI    C215698   6.735  13.260   5.444 -0.0165  0.1976  0.1689
 1098DPPI    C315699   6.451  13.436   5.225  0.0090  0.1538  0.1004
 1098DPPI   PO415700   6.391  13.442   5.894  0.0864 -0.2200  0.2186
 1098DPPI   GL115701   6.331  13.193   6.333  0.3255 -0.2950  0.0734
 1098DPPI   GL215702   6.611  13.147   6.605  0.2000  0.2119  0.1306
 1098DPPI   C1A15703   6.297  13.516   6.684  0.2872 -0.1245 -0.0701
 1098DPPI   C2A15704   6.392  13.383   7.117  0.0926  0.1898  0.0122
 1098DPPI   C3A15705   6.317  13.280   7.481 -0.4645  0.0557  0.0395
 1098DPPI   C4A15706   6.093  13.122   7.938 -0.1788 -0.2515  0.0258
 1098DPPI   C1B15707   6.566  12.935   6.986  0.1135 -0.0931 -0.2645
 1098DPPI   C2B15708   6.567  12.824   7.433 -0.3551  0.2174  0.0448
 1098DPPI   C3B15709   6.460  12.676   7.850  0.1065 -0.3314 -0.0200
 1098DPPI   C4B15710   6.354  12.762   8.222 -0.1066  0.1665  0.0605
 1099DPPI    C115711   5.042  15.229   6.053  0.0838 -0.0672 -0.2285
 1099DPPI    C215712   5.191  15.599   6.087  0.0458 -0.0776  0.0815
 1099DPPI    C315713   5.223  15.401   5.741 -0.0114  0.2479 -0.1143
 1099DPPI   PO415714   4.779  15.237   6.262 -0.0845 -0.0952  0.0016
 1099DPPI   GL115715   4.726  15.256   6.712  0.3115  0.1384 -0.2705
 1099DPPI   GL215716   5.065  15.362   6.607 -0.0654 -0.3594  0.2171
 1099DPPI   C1A15717   4.635  15.366   7.158  0.1717 -0.0115 -0.0724
 1099DPPI   C2A15718   4.492  15.353   7.554  0.2651  0.2192  0.0088
 1099DPPI   C3A15719   4.386  15.322   7.933 -0.1005 -0.0261 -0.1689
 1099DPPI   C4A15720   4.445  15.037   8.256 -0.3042 -0.0912  0.1484
 1099DPPI   C1B15721   5.209  15.287   7.064 -0.0105  0.0027  0.1503
 1099DPPI   C2B15722   5.152  15.359   7.606 -0.1565  0.0520 -0.0280
 1099DPPI   C3B15723   4.869  15.596   7.770 -0.1314 -0.3830 -0.0312
 1099DPPI   C4B15724   4.881  16.035   7.927  0.0920  0.0203 -0.1283
 1100DPPI    C115725   9.234  12.713   5.837  0.0803 -0.0710  0.0208
 1100DPPI    C215726   9.052  12.886   5.526  0.1818 -0.0150 -0.0080
 1100DPPI    C315727   8.904  12.549   5.682 -0.0881  0.1623  0.1274
 1100DPPI   PO415728   9.320  12.827   6.030  0.1009 -0.1175  0.0936
 1100DPPI   GL115729   9.235  12.910   6.534 -0.0521 -0.1818  0.2007
 1100DPPI   GL215730   9.529  12.681   6.478 -0.0839 -0.0354  0.2162
 1100DPPI   C1A15731   9.344  13.238   6.809  0.3937  0.0776 -0.1240
 1100DPPI   C2A15732   9.375  13.149   7.230 -0.1503 -0.3845  0.2334
 1100DPPI   C3A15733   9.523  13.109   7.604  0.0361  0.3677  0.0668
 1100DPPI   C4A15734   9.905  13.001   7.777 -0.0666 -0.0327  0.1506
 1100DPPI   C1B15735   9.623  12.630   6.907  0.1193  0.0384 -0.3889
 1100DPPI   C2B15736   9.728  12.710   7.395 -0.1351  0.1133 -0.1631
 1100DPPI   C3B15737   9.703  12.575   7.863  0.1125 -0.1622 -0.2644
 1100DPPI   C4B15738   9.718  12.375   8.267 -0.3468  0.1836  0.0355
 1101DPPI    C115739  10.434   1.482   5.515  0.4515 -0.3575  0.0275
 1101DPPI    C215740  10.546   1.773   5.265  0.0967 -0.1061  0.1527
 1101DPPI    C315741  10.410   1.426   5.120 -0.2664  0.0990 -0.0117
 1101DPPI   PO415742  10.318   1.543   5.713 -0.2837 -0.1769 -0.1326
 1101DPPI   GL115743  10.323   1.436   6.070 -0.0619 -0.0386  0.0228
 1101DPPI   GL215744  10.403   1.715   6.225  0.0475  0.0472  0.0216
 1101DPPI   C1A15745  10.277   1.329   6.569 -0.0494  0.1143 -0.0432
 1101DPPI   C2A15746  10.549   1.243   6.987 -0.2085 -0.0034 -0.1099
 1101DPPI   C3A15747  10.994   1.167   7.183 -0.2177 -0.0395  0.2499
 1101DPPI   C4A15748  11.175   1.100   7.565 -0.1796  0.0561  0.0446
 1101DPPI   C1B15749  10.489   1.776   6.696  0.1130  0.1872  0.2649
 1101DPPI   C2B15750  10.413   1.690   7.023 -0.1621 -0.1311  0.3740
 1101DPPI   C3B15751  10.377   1.945   7.456 -0.0650  0.0179  0.3265
 1101DPPI   C4B15752  10.447   1.874   7.907  0.3135 -0.0947  0.3554
 1102DPPI    C115753  13.553  15.015   5.641 -0.1778  0.1722 -0.0092
 1102DPPI    C215754  13.564  14.665   5.448 -0.2497  0.0317  0.2369
 1102DPPI    C315755  13.883  14.906   5.443 -0.1770 -0.0658  0.1193
 1102DPPI   PO415756  13.496  15.008   5.873 -0.0260  0.2238  0.0651
 1102DPPI   GL115757  13.218  15.137   6.208 -0.2224  0.0752  0.0646
 1102DPPI   GL215758  12.863  15.114   6.202 -0.3127  0.2214  0.1253
 1102DPPI   C1A15759  13.148  14.947   6.539 -0.2830 -0.2274 -0.1714
 1102DPPI   C2A15760  13.022  15.037   7.030  0.1115  0.2156  0.1200
 1102DPPI   C3A15761  13.075  15.229   7.374 -0.0102 -0.0748  0.1285
 1102DPPI   C4A15762  13.150  15.465   7.778  0.0073 -0.4236  0.1711
 1102DPPI   C1B15763  12.842  15.341   6.597 -0.2765 -0.0027 -0.0438
 1102DPPI   C2B15764  12.850  15.558   6.913 -0.2533  0.2333 -0.1244
 1102DPPI   C3B15765  12.939  15.733   7.419 -0.1114  0.0781  0.0689
 1102DPPI   C4B15766  13.109  16.094   7.490  0.0609  0.0412  0.2512
 1103DPPI    C115767   7.099  15.952   6.369  0.0076 -0.0410 -0.0130
 1103DPPI    C215768   6.901  15.731   6.101  0.2445 -0.0520 -0.1826
 1103DPPI    C315769   7.089  16.064   5.985  0.1048  0.1023  0.0253
 1103DPPI   PO415770   7.246  15.772   6.476  0.1296 -0.2104 -0.1570
 1103DPPI   GL115771   7.408  15.739   6.825 -0.1134 -0.2744  0.0241
 1103DPPI   GL215772   7.367  15.982   7.021  0.1853  0.2743  0.1741
 1103DPPI   C1A15773   7.233  15.453   7.188 -0.3073 -0.3006 -0.3027
 1103DPPI   C2A15774   7.353  15.418   7.593 -0.1388  0.1509 -0.2792
 1103DPPI   C3A15775   7.651  15.344   7.991 -0.0918  0.0362  0.2006
 1103DPPI   C4A15776   7.899  15.685   8.205 -0.1558  0.2090 -0.3406
 1103DPPI   C1B15777   7.599  15.768   7.345  0.1506 -0.1732 -0.0492
 1103DPPI   C2B15778   7.683  15.765   7.712 -0.1168 -0.3543  0.1845
 1103DPPI   C3B15779   7.894  16.121   7.963  0.2904  0.0003  0.1834
 1103DPPI   C4B15780   7.814  16.502   7.910  0.3206 -0.1218 -0.0855
 1104DPPI    C115781   9.134   1.415   5.575  0.1627  0.1808  0.2421
 1104DPPI    C215782   8.948   1.766   5.621  0.1269  0.2008 -0.0384
 1104DPPI    C315783   9.206   1.714   5.319 -0.0866 -0.1041 -0.1727
 1104DPPI   PO415784   9.232   1.370   5.766 -0.3179  0.2281 -0.1679
 1104DPPI   GL115785   9.057   1.298   6.170  0.1117 -0.1423 -0.1334
 1104DPPI   GL215786   9.006   1.597   6.082  0.2679 -0.2729  0.0993
 1104DPPI   C1A15787   9.077   1.511   6.625 -0.1309 -0.0917 -0.2025
 1104DPPI   C2A15788   8.946   1.631   7.118  0.1041  0.3848  0.0277
 1104DPPI   C3A15789   8.917   1.579   7.570 -0.0557  0.0569 -0.3431
 1104DPPI   C4A15790   8.921   1.685   7.938 -0.0545  0.2189 -0.1304
 1104DPPI   C1B15791   8.630   1.586   6.412 -0.2378  0.2016 -0.0514
 1104DPPI   C2B15792   8.288   1.428   6.744  0.3315  0.0637  0.0096
 1104DPPI   C3B15793   8.423   1.633   7.180 -0.0833 -0.3340  0.2081
 1104DPPI   C4B15794   8.408   1.487   7.607 -0.0520  0.1029  0.2323
 1105DPPI    C115795  16.282   2.788   5.453  0.0292 -0.0325  0.3158
 1105DPPI    C215796  15.980   3.015   5.323 -0.2068 -0.3977  0.2108
 1105DPPI    C315797  16.242   3.163   5.586 -0.0854  0.1459 -0.1955
 1105DPPI   PO415798  16.161   2.559   5.563  0.0976 -0.0635  0.2775
 1105DPPI   GL115799  15.848   2.461   5.946 -0.1160 -0.3510 -0.2465
 1105DPPI   GL215800  15.577   2.495   5.866  0.2419 -0.2164  0.1663
 1105DPPI   C1A15801  15.867   2.720   6.258 -0.1519  0.3652 -0.1005
 1105DPPI   C2A15802  15.882   2.651   6.650  0.0202  0.0099 -0.0117
 1105DPPI   C3A15803  16.097   2.648   6.913  0.1157  0.0127  0.0103
 1105DPPI   C4A15804  16.255   2.701   7.339  0.0089  0.0001 -0.1269
 1105DPPI   C1B15805  15.380   2.484   6.255 -0.2642 -0.0181  0.2975
 1105DPPI   C2B15806  15.402   2.650   6.665 -0.2972 -0.0546  0.0241
 1105DPPI   C3B15807  15.455   2.538   7.004 -0.1972 -0.1803  0.1430
 1105DPPI   C4B15808  15.773   2.799   7.235 -0.0555  0.1355 -0.0160
 1106DPPI    C115809   8.706  16.005   6.095  0.0532  0.0042 -0.1674
 1106DPPI    C215810   8.308  15.965   6.103  0.0610 -0.0363  0.1942
 1106DPPI    C315811   8.519  15.810   5.801 -0.2447  0.4742 -0.3007
 1106DPPI   PO415812   8.793  15.902   6.328 -0.3166 -0.1032  0.0809
 1106DPPI   GL115813   9.020  16.131   6.654 -0.0383 -0.0708 -0.2475
 1106DPPI   GL215814   9.260  16.428   6.728  0.5895  0.1545 -0.0044
 1106DPPI   C1A15815   9.276  15.959   6.948 -0.1772 -0.1987 -0.5448
 1106DPPI   C2A15816   9.293  15.858   7.378  0.2405 -0.1062 -0.2463
 1106DPPI   C3A15817   9.221  15.842   7.858 -0.3276 -0.0766 -0.2274
 1106DPPI   C4A15818   9.123  15.538   8.136  0.0432 -0.2410 -0.0474
 1106DPPI   C1B15819   9.093  16.471   7.124  0.0280 -0.0096 -0.0619
 1106DPPI   C2B15820   9.323  16.365   7.443 -0.0223 -0.0141  0.1177
 1106DPPI   C3B15821   9.240  16.373   7.833  0.3094 -0.0370  0.2595
 1106DPPI   C4B15822   9.220  16.162   8.301 -0.0125 -0.3136  0.0393
 1107DPPI    C115823   9.549  10.370   5.604 -0.0835  0.1097 -0.0658
 1107DPPI    C215824   9.884  10.330   5.389 -0.0248  0.2065  0.0067
 1107DPPI    C315825   9.570  10.526   5.237 -0.0753  0.0523 -0.0897
 1107DPPI   PO415826   9.625  10.445   5.890 -0.2043  0.2049 -0.1073
 1107DPPI   GL115827   9.429  10.613   6.283  0.1609 -0.2175 -0.0486
 1107DPPI   GL215828   9.114  10.651   6.360 -0.2459 -0.0326  0.0198
 1107DPPI   C1A15829   9.750  10.739   6.634  0.1640 -0.2105 -0.0999
 1107DPPI   C2A15830   9.759  10.691   7.078 -0.1066 -0.3993  0.4235
 1107DPPI   C3A15831   9.751  10.816   7.418 -0.0861 -0.0723 -0.1544
 1107DPPI   C4A15832   9.918  10.740   7.791 -0.2221  0.1102 -0.5806
 1107DPPI   C1B15833   9.253  10.768   6.808 -0.1374  0.0252  0.1379
 1107DPPI   C2B15834   9.304  10.706   7.303 -0.0790  0.1706 -0.1408
 1107DPPI   C3B15835   9.162  10.807   7.629  0.1167 -0.1098  0.0067
 1107DPPI   C4B15836   8.982  11.155   7.662 -0.1765  0.1939 -0.3330
 1108DPPI    C115837  13.862  14.183   5.425  0.0625  0.0939  0.1172
 1108DPPI    C215838  13.982  14.450   5.152 -0.0836  0.1768  0.1331
 1108DPPI    C315839  13.670  14.211   5.075 -0.0889  0.1604  0.2045
 1108DPPI   PO415840  13.750  14.235   5.626  0.0287  0.1276 -0.1797
 1108DPPI   GL115841  13.809  14.252   6.045  0.1845 -0.2973  0.0677
 1108DPPI   GL215842  14.102  14.300   6.066 -0.3221  0.0314 -0.1246
 1108DPPI   C1A15843  13.918  14.244   6.498  0.2886 -0.0961  0.5016
 1108DPPI   C2A15844  13.932  14.310   6.987 -0.2271 -0.0669  0.1873
 1108DPPI   C3A15845  13.982  14.408   7.346  0.3238 -0.0465  0.2954
 1108DPPI   C4A15846  13.835  14.649   7.711 -0.1387 -0.2889 -0.1231
 1108DPPI   C1B15847  14.494  14.342   6.411  0.2226  0.3884 -0.0758
 1108DPPI   C2B15848  14.511  14.468   6.910 -0.3448  0.0649  0.0875
 1108DPPI   C3B15849  14.710  14.603   7.262 -0.1056 -0.1893 -0.1725
 1108DPPI   C4B15850  14.744  14.644   7.636 -0.0414  0.0393 -0.0878
 1109DPPI    C115851   5.809   2.979   5.757  0.1973  0.3092 -0.3265
 1109DPPI    C215852   5.425   2.961   5.649  0.0415 -0.2117  0.2541
 1109DPPI    C315853   5.693   2.723   5.472  0.0634 -0.0044  0.0019
 1109DPPI   PO415854   5.741   2.961   6.117  0.2355 -0.2514 -0.2050
 1109DPPI   GL115855   5.976   2.735   6.365  0.2360  0.0316 -0.0886
 1109DPPI   GL215856   5.684   2.768   6.549  0.2448 -0.0115 -0.1031
 1109DPPI   C1A15857   6.179   2.552   6.700  0.2350  0.0775  0.2590
 1109DPPI   C2A15858   6.353   2.670   7.022 -0.1931  0.1231 -0.1045
 1109DPPI   C3A15859   6.297   2.676   7.434  0.0039  0.2651  0.1968
 1109DPPI   C4A15860   6.351   2.622   7.836  0.2395  0.0386  0.1219
 1109DPPI   C1B15861   5.742   2.647   7.023  0.1081 -0.0570  0.1837
 1109DPPI   C2B15862   5.791   2.765   7.468  0.1757 -0.2396  0.0523
 1109DPPI   C3B15863   5.826   2.629   7.937 -0.0032 -0.5107  0.0491
 1109DPPI   C4B15864   6.048   2.931   8.244  0.3042 -0.0068 -0.1025
 1110DPPI    C115865   2.273   9.362   5.887  0.0954 -0.0768 -0.0211
 1110DPPI    C215866   2.006   9.653   5.821 -0.0788 -0.1999  0.1296
 1110DPPI    C315867   2.209   9.641   6.166  0.2864  0.0185 -0.0715
 1110DPPI   PO415868   2.146   9.125   5.882  0.0272 -0.0739 -0.0293
 1110DPPI   GL115869   1.978   8.838   6.156  0.2907  0.1465 -0.0514
 1110DPPI   GL215870   2.274   8.724   6.259 -0.0140 -0.1054 -0.0151
 1110DPPI   C1A15871   1.772   8.637   6.443 -0.1437  0.3733  0.0105
 1110DPPI   C2A15872   1.797   8.659   6.857  0.0278 -0.0403  0.0229
 1110DPPI   C3A15873   2.051   8.566   7.297  0.0206  0.2738  0.0901
 1110DPPI   C4A15874   2.314   8.437   7.613 -0.0628  0.0280 -0.1224
 1110DPPI   C1B15875   2.235   8.437   6.558 -0.1032  0.0081 -0.0875
 1110DPPI   C2B15876   2.565   8.375   7.026  0.1263 -0.0662 -0.1899
 1110DPPI   C3B15877   2.536   8.785   7.331 -0.0619  0.0152  0.2168
 1110DPPI   C4B15878   2.762   8.898   7.717 -0.0189  0.1386 -0.1488
 1111DPPI    C115879   4.925   3.086   5.814  0.0115 -0.0858  0.1031
 1111DPPI    C215880   4.723   3.394   5.658  0.1772  0.0968  0.2440
 1111DPPI    C315881   4.887   3.119   5.418  0.0291  0.1178  0.1176
 1111DPPI   PO415882   4.920   3.146   6.103  0.2076 -0.3586 -0.1737
 1111DPPI   GL115883   5.211   2.998   6.509 -0.1266  0.1438  0.1394
 1111DPPI   GL215884   4.952   2.640   6.527 -0.3350  0.0056 -0.1393
 1111DPPI   C1A15885   5.191   2.807   6.932  0.0502 -0.0291  0.0175
 1111DPPI   C2A15886   5.388   2.831   7.326  0.1819 -0.0006 -0.3671
 1111DPPI   C3A15887   5.395   3.007   7.673  0.0460 -0.0188  0.1696
 1111DPPI   C4A15888   5.634   3.087   7.957  0.0236  0.1214  0.1290
 1111DPPI   C1B15889   4.761   2.645   6.972 -0.0540 -0.1921  0.0656
 1111DPPI   C2B15890   4.834   2.750   7.319 -0.1024  0.0554  0.4751
 1111DPPI   C3B15891   4.927   2.837   7.804 -0.0070 -0.0080 -0.6448
 1111DPPI   C4B15892   4.742   2.839   8.260 -0.0077 -0.1509 -0.0181
 1112DPPI    C115893   6.001  15.908   6.486  0.0605 -0.3229 -0.0574
 1112DPPI    C215894   5.653  15.826   6.305 -0.0613 -0.1992  0.1169
 1112DPPI    C315895   5.924  16.057   6.122 -0.2908  0.1380  0.1938
 1112DPPI   PO415896   6.092  15.737   6.605 -0.2107  0.3173 -0.4182
 1112DPPI   GL115897   6.427  15.566   6.884 -0.0124 -0.0724 -0.1256
 1112DPPI   GL215898   6.213  15.374   7.093  0.4589  0.0390  0.1580
 1112DPPI   C1A15899   6.381  15.868   7.299 -0.1190  0.0886  0.1093
 1112DPPI   C2A15900   6.484  16.110   7.689 -0.2588 -0.2099  0.1772
 1112DPPI   C3A15901   6.768  16.231   8.031  0.2782  0.0256 -0.1108
 1112DPPI   C4A15902   6.774  16.166   8.394 -0.0061  0.3042  0.0536
 1112DPPI   C1B15903   6.323  15.385   7.468  0.1401  0.1983 -0.1729
 1112DPPI   C2B15904   6.319  15.219   7.915 -0.2220  0.0453 -0.0666
 1112DPPI   C3B15905   6.576  15.253   8.348 -0.0229 -0.0241 -0.1186
 1112DPPI   C4B15906   6.687  14.940   8.713 -0.0403  0.0608 -0.0616
 1113DPPI    C115907   2.152   0.655   5.820  0.1030  0.0974 -0.0915
 1113DPPI    C215908   1.959   0.329   5.691  0.2668  0.0620 -0.2522
 1113DPPI    C315909   2.357   0.351   5.661  0.2809  0.1750 -0.0131
 1113DPPI   PO415910   2.003   0.675   6.104  0.3573 -0.0896 -0.0841
 1113DPPI   GL115911   2.054   0.649   6.499 -0.0263 -0.1446  0.0036
 1113DPPI   GL215912   2.464   0.526   6.628 -0.2904 -0.1244 -0.0308
 1113DPPI   C1A15913   2.017   0.621   6.923  0.1986  0.1581 -0.2754
 1113DPPI   C2A15914   1.958   0.814   7.314  0.4842 -0.0264  0.3222
 1113DPPI   C3A15915   2.013   0.850   7.769  0.0323 -0.3382  0.0321
 1113DPPI   C4A15916   1.983   1.159   8.047 -0.0281 -0.0564  0.0823
 1113DPPI   C1B15917   2.465   0.376   7.061  0.0492  0.0934 -0.0597
 1113DPPI   C2B15918   2.261   0.470   7.450  0.1472  0.0015 -0.2614
 1113DPPI   C3B15919   2.328   0.409   7.872  0.1358  0.1195  0.0675
 1113DPPI   C4B15920   2.367   0.225   8.315  0.0823 -0.0645  0.0614
 1114DPPI    C115921   3.899   2.948   5.739 -0.2754  0.1307  0.0507
 1114DPPI    C215922   3.796   2.966   5.353 -0.1031 -0.3583 -0.0250
 1114DPPI    C315923   4.075   2.707   5.474  0.1443  0.0751  0.3691
 1114DPPI   PO415924   3.634   2.963   5.881  0.3751 -0.3066  0.0626
 1114DPPI   GL115925   3.489   3.107   6.269 -0.0130  0.0573 -0.1900
 1114DPPI   GL215926   3.687   3.392   6.355  0.2975  0.2864  0.2624
 1114DPPI   C1A15927   3.439   3.185   6.763  0.3453 -0.0988 -0.2039
 1114DPPI   C2A15928   3.447   3.186   7.238 -0.1995 -0.1699 -0.1587
 1114DPPI   C3A15929   3.510   3.012   7.598  0.1685  0.3188  0.0245
 1114DPPI   C4A15930   3.518   2.831   8.083  0.0350 -0.0002  0.1336
 1114DPPI   C1B15931   3.916   3.390   6.715  0.3289  0.1225  0.2374
 1114DPPI   C2B15932   4.015   3.427   7.088 -0.1215  0.2179 -0.0991
 1114DPPI   C3B15933   3.963   3.258   7.416 -0.0189  0.1577 -0.0418
 1114DPPI   C4B15934   3.967   3.131   7.761  0.1873  0.0656 -0.0286
 1115DPPI    C115935  12.815  16.074   5.977 -0.0305 -0.1967 -0.0561
 1115DPPI    C215936  12.581  15.875   5.721 -0.1466  0.0577 -0.1519
 1115DPPI    C315937  12.724  16.235   5.622 -0.0564  0.0864  0.0759
 1115DPPI   PO415938  12.687  16.055   6.183 -0.3585 -0.0562  0.0351
 1115DPPI   GL115939  12.734  16.031   6.593 -0.0882 -0.0969 -0.1931
 1115DPPI   GL215940  12.465  15.781   6.594  0.4505 -0.0595 -0.0033
 1115DPPI   C1A15941  12.836  16.109   6.975 -0.0380 -0.0845  0.0323
 1115DPPI   C2A15942  12.687  16.322   7.304  0.3406  0.3295  0.0540
 1115DPPI   C3A15943  12.872  16.533   7.696 -0.0075  0.0098 -0.0282
 1115DPPI   C4A15944  12.694  16.762   7.967  0.0472 -0.2475  0.1726
 1115DPPI   C1B15945  12.467  15.826   7.045 -0.2343 -0.0099  0.0714
 1115DPPI   C2B15946  12.488  15.932   7.568 -0.1432 -0.1470 -0.1001
 1115DPPI   C3B15947  12.443  16.341   7.794 -0.3426 -0.2645 -0.0838
 1115DPPI   C4B15948  12.122  16.475   8.076 -0.0335  0.3292 -0.1520
 1116DPPI    C115949  11.967  14.453   5.418 -0.0662 -0.0800 -0.1148
 1116DPPI    C215950  12.310  14.363   5.232  0.0222  0.1257 -0.0538
 1116DPPI    C315951  12.170  14.738   5.225 -0.2440  0.0272 -0.1452
 1116DPPI   PO415952  11.956  14.217   5.691 -0.1407  0.0765 -0.1551
 1116DPPI   GL115953  11.822  14.148   6.227  0.0150 -0.2183 -0.2474
 1116DPPI   GL215954  11.734  13.881   6.443  0.0270  0.0882 -0.1567
 1116DPPI   C1A15955  12.024  14.289   6.546  0.1974 -0.2362  0.1651
 1116DPPI   C2A15956  12.034  14.262   7.067 -0.1406 -0.1599 -0.0736
 1116DPPI   C3A15957  12.087  14.279   7.518  0.2892 -0.0305 -0.0905
 1116DPPI   C4A15958  12.139  14.310   7.936 -0.3283 -0.2225  0.0308
 1116DPPI   C1B15959  12.002  13.712   6.752 -0.0352 -0.1834 -0.0619
 1116DPPI   C2B15960  11.966  13.753   7.102  0.1853 -0.1902  0.0264
 1116DPPI   C3B15961  11.889  13.840   7.514 -0.1020  0.1780 -0.0575
 1116DPPI   C4B15962  11.941  13.799   7.986 -0.4839  0.0426  0.3095
 1117DPPI    C115963   8.828  12.079   5.861  0.2988  0.1853  0.2921
 1117DPPI    C215964   9.114  11.832   5.992  0.4537  0.2114  0.0104
 1117DPPI    C315965   9.005  11.827   5.607 -0.0816  0.0492  0.1551
 1117DPPI   PO415966   8.687  12.071   6.067 -0.0627  0.0712 -0.1796
 1117DPPI   GL115967   8.602  11.996   6.488 -0.0774  0.1904 -0.1338
 1117DPPI   GL215968   8.556  11.635   6.557  0.0796  0.1744 -0.0629
 1117DPPI   C1A15969   8.841  12.106   6.850  0.0338 -0.0987  0.2270
 1117DPPI   C2A15970   9.006  12.103   7.221  0.1877 -0.1513 -0.0914
 1117DPPI   C3A15971   9.149  12.157   7.597  0.1225 -0.0474 -0.3190
 1117DPPI   C4A15972   9.349  12.307   8.031 -0.1511 -0.1392  0.1602
 1117DPPI   C1B15973   8.689  11.635   6.963  0.1510  0.1352  0.1274
 1117DPPI   C2B15974   8.913  11.575   7.353  0.1232  0.0041 -0.3373
 1117DPPI   C3B15975   9.178  11.705   7.691 -0.0828  0.1436  0.0265
 1117DPPI   C4B15976   9.446  11.600   8.010  0.2080  0.2835  0.4781
 1118DPPI    C115977  17.402   0.143   5.724 -0.1439  0.0622 -0.0234
 1118DPPI    C215978  17.789   0.117   5.626 -0.1297  0.0685  0.0307
 1118DPPI    C315979  17.512   0.155   5.340 -0.0704  0.3186  0.0036
 1118DPPI   PO415980  17.439   0.363   5.952 -0.1317 -0.1155 -0.2185
 1118DPPI   GL115981  17.423   0.207   6.399  0.0890  0.1448 -0.0845
 1118DPPI   GL215982  17.696   0.086   6.598 -0.1230 -0.2182 -0.0439
 1118DPPI   C1A15983  17.005   0.060   6.634  0.4037  0.0544  0.2444
 1118DPPI   C2A15984  17.003   0.004   7.037  0.2096 -0.1364 -0.0532
 1118DPPI   C3A15985  16.905  -0.047   7.434  0.1819  0.1324 -0.2502
 1118DPPI   C4A15986  16.870  -0.069   7.861 -0.1417 -0.0492 -0.1660
 1118DPPI   C1B15987  17.525   0.040   6.949 -0.0788  0.0028 -0.1450
 1118DPPI   C2B15988  17.508   0.168   7.372  0.0698  0.3104 -0.1156
 1118DPPI   C3B15989  17.549   0.079   7.766  0.2307 -0.2515 -0.1824
 1118DPPI   C4B15990  17.807  -0.071   8.054  0.0906  0.2447  0.0046
 1119DPPI    C115991   5.583   5.081   5.585  0.0076 -0.0262 -0.2511
 1119DPPI    C215992   5.242   4.887   5.504 -0.1085  0.0857 -0.0380
 1119DPPI    C315993   5.314   5.243   5.337 -0.0703  0.0364 -0.1269
 1119DPPI   PO415994   5.874   4.939   5.684  0.0160  0.2740  0.0844
 1119DPPI   GL115995   6.068   4.867   6.091 -0.2070 -0.1836 -0.0301
 1119DPPI   GL215996   6.389   4.880   6.200  0.1521 -0.0720 -0.4010
 1119DPPI   C1A15997   5.832   5.211   6.427 -0.1885 -0.1385  0.0296
 1119DPPI   C2A15998   5.877   5.324   6.847  0.1127 -0.0363 -0.1577
 1119DPPI   C3A15999   5.849   5.539   7.212 -0.0840 -0.1881 -0.3160
 1119DPPI   C4A16000   6.033   5.900   7.450  0.0734 -0.0956 -0.1977
 1119DPPI   C1B16001   6.304   5.124   6.680 -0.1918  0.0473  0.2912
 1119DPPI   C2B16002   6.397   5.326   7.083 -0.3927 -0.0339  0.0563
 1119DPPI   C3B16003   6.386   5.327   7.470  0.2188 -0.1781 -0.2121
 1119DPPI   C4B16004   6.375   5.331   7.896 -0.0304 -0.2066 -0.0060
 1120DPPI    C116005  16.434   8.725   5.537  0.1786  0.2519 -0.0741
 1120DPPI    C216006  16.563   8.461   5.266 -0.0248 -0.0938  0.1577
 1120DPPI    C316007  16.461   8.831   5.152 -0.1151 -0.2354 -0.2380
 1120DPPI   PO416008  16.391   8.660   5.730  0.3381  0.2417 -0.3582
 1120DPPI   GL116009  16.280   8.892   6.047  0.1681 -0.1306  0.0971
 1120DPPI   GL216010  16.521   9.133   5.946 -0.1797  0.1001  0.0760
 1120DPPI   C1A16011  16.352   8.860   6.454  0.3720 -0.0024 -0.0225
 1120DPPI   C2A16012  16.380   8.876   6.948 -0.0290  0.0075 -0.0412
 1120DPPI   C3A16013  16.433   8.962   7.360  0.3384  0.1037 -0.2174
 1120DPPI   C4A16014  16.425   9.150   7.698  0.2649  0.0500 -0.0254
 1120DPPI   C1B16015  16.724   9.191   6.314  0.2418  0.1192  0.3434
 1120DPPI   C2B16016  16.718   9.281   6.677  0.0992  0.1054 -0.1437
 1120DPPI   C3B16017  16.615   9.382   7.109 -0.3117  0.0804 -0.3978
 1120DPPI   C4B16018  16.912   9.405   7.490 -0.1280  0.0069 -0.0016
 1121DPPI    C116019  17.591   5.834   5.715  0.1400 -0.0015  0.0816
 1121DPPI    C216020  17.250   5.660   5.829  0.0072  0.2140  0.0200
 1121DPPI    C316021  17.398   5.589   5.464  0.1467 -0.0519  0.1257
 1121DPPI   PO416022  17.696   5.855   5.964  0.1947  0.0938  0.0813
 1121DPPI   GL116023  17.861   6.052   6.273 -0.2946  0.0275 -0.1966
 1121DPPI   GL216024  17.890   5.946   6.570 -0.0407 -0.1573  0.0221
 1121DPPI   C1A16025  18.026   6.438   6.567  0.4070 -0.2609 -0.1694
 1121DPPI   C2A16026  17.971   6.593   6.956  0.0699 -0.0469 -0.1016
 1121DPPI   C3A16027  17.884   6.637   7.370  0.0457 -0.1320  0.0513
 1121DPPI   C4A16028  18.164   6.461   7.819 -0.1333 -0.0827  0.0832
 1121DPPI   C1B16029  18.021   5.661   6.895 -0.1363 -0.0178  0.2879
 1121DPPI   C2B16030  18.249   5.736   7.267  0.0343  0.0839  0.0995
 1121DPPI   C3B16031  18.188   5.842   7.639 -0.2575 -0.0285 -0.1304
 1121DPPI   C4B16032  17.914   6.060   8.025  0.0049  0.1875  0.0294
 1122DPPI    C116033   5.436   8.180   5.556  0.3420 -0.0096 -0.2300
 1122DPPI    C216034   5.083   8.307   5.418  0.2802 -0.0930 -0.1505
 1122DPPI    C316035   5.352   8.153   5.166  0.2182 -0.1269 -0.1962
 1122DPPI   PO416036   5.537   8.394   5.712  0.0421  0.0753 -0.1243
 1122DPPI   GL116037   5.387   8.495   6.149 -0.2702  0.3198  0.1938
 1122DPPI   GL216038   5.035   8.540   6.339 -0.1067 -0.1393 -0.2304
 1122DPPI   C1A16039   5.388   8.158   6.456  0.0861  0.0641 -0.2575
 1122DPPI   C2A16040   5.348   8.011   7.029  0.2346 -0.0305 -0.2069
 1122DPPI   C3A16041   5.470   7.876   7.459  0.0332 -0.2911  0.1378
 1122DPPI   C4A16042   5.438   7.934   7.901 -0.0257 -0.0635  0.1197
 1122DPPI   C1B16043   5.033   8.462   6.747 -0.1939  0.0450  0.0307
 1122DPPI   C2B16044   5.049   8.385   7.191 -0.2229  0.1873 -0.2437
 1122DPPI   C3B16045   5.127   8.176   7.566 -0.4176 -0.1845  0.1126
 1122DPPI   C4B16046   4.990   8.223   8.034 -0.0770  0.1565  0.0169
 1123DPPI    C116047   8.812  17.814   6.031  0.1922  0.0206 -0.1601
 1123DPPI    C216048   8.758  18.197   6.132  0.0916 -0.0254 -0.0356
 1123DPPI    C316049   8.560  18.042   5.821 -0.0100 -0.0256  0.0288
 1123DPPI   PO416050   8.793  17.692   6.218  0.1767 -0.1340  0.3564
 1123DPPI   GL116051   8.735  17.691   6.660 -0.0212  0.1719  0.2397
 1123DPPI   GL216052   8.595  18.013   6.563 -0.4814 -0.0427  0.1030
 1123DPPI   C1A16053   8.806  17.639   7.147  0.0663  0.1225  0.0696
 1123DPPI   C2A16054   8.886  17.399   7.560  0.1976 -0.0092  0.0275
 1123DPPI   C3A16055   8.847  17.027   7.732 -0.1283  0.3874 -0.1303
 1123DPPI   C4A16056   9.068  16.771   8.040  0.0939 -0.0130  0.0611
 1123DPPI   C1B16057   8.666  18.100   7.028  0.1412  0.0243 -0.2764
 1123DPPI   C2B16058   8.796  18.078   7.356  0.0972 -0.3703 -0.0106
 1123DPPI   C3B16059   8.756  18.297   7.793  0.2475 -0.0332  0.2609
 1123DPPI   C4B16060   8.705  18.417   8.290 -0.1736  0.2114  0.0582
 1124DPPI    C116061   2.604  16.946   5.874  0.3035 -0.0966 -0.0479
 1124DPPI    C216062   2.446  17.214   5.623  0.1500 -0.1647 -0.0248
 1124DPPI    C316063   2.425  16.824   5.538  0.2506 -0.1775  0.0092
 1124DPPI   PO416064   2.587  17.164   6.123  0.2733 -0.1059  0.2086
 1124DPPI   GL116065   2.811  17.335   6.524  0.0628  0.2361 -0.3685
 1124DPPI   GL216066   2.489  17.265   6.611  0.1324  0.0242 -0.1432
 1124DPPI   C1A16067   2.977  17.202   6.923 -0.2896  0.0306 -0.0341
 1124DPPI   C2A16068   2.938  17.187   7.350 -0.1569 -0.2411 -0.1083
 1124DPPI   C3A16069   3.240  17.290   7.706  0.1943 -0.1002 -0.0775
 1124DPPI   C4A16070   3.246  17.511   8.070 -0.0437  0.0888 -0.3078
 1124DPPI   C1B16071   2.382  17.360   7.075  0.2422  0.0331  0.1824
 1124DPPI   C2B16072   2.450  17.554   7.498 -0.1478  0.1413  0.1548
 1124DPPI   C3B16073   2.711  17.440   7.765  0.0904 -0.1257 -0.3484
 1124DPPI   C4B16074   2.742  17.519   8.228 -0.1273  0.1426  0.2203
 1125DPPI    C116075  10.582   2.878   5.883 -0.1477 -0.0576 -0.2091
 1125DPPI    C216076  10.967   2.986   5.888 -0.1205 -0.1608  0.1501
 1125DPPI    C316077  10.866   2.611   5.791 -0.1562 -0.0501 -0.2575
 1125DPPI   PO416078  10.513   3.044   6.012  0.2683  0.1626  0.2442
 1125DPPI   GL116079  10.675   3.337   6.298  0.1251 -0.3207 -0.1265
 1125DPPI   GL216080  10.366   3.384   6.367  0.1455  0.0259  0.2350
 1125DPPI   C1A16081  10.618   3.259   6.733  0.0623  0.0080  0.0939
 1125DPPI   C2A16082  10.622   3.148   7.071 -0.0456 -0.0075 -0.1648
 1125DPPI   C3A16083  10.637   3.267   7.460 -0.2167  0.2535 -0.2855
 1125DPPI   C4A16084  10.568   3.424   7.991  0.1217  0.2759 -0.2723
 1125DPPI   C1B16085  10.146   3.304   6.698  0.1846  0.0074  0.5747
 1125DPPI   C2B16086   9.830   3.534   7.000 -0.2060  0.0043 -0.0334
 1125DPPI   C3B16087   9.713   3.621   7.385  0.0507  0.0563 -0.1461
 1125DPPI   C4B16088   9.601   3.522   7.779  0.1718 -0.0443 -0.2150
 1126DPPI    C116089  10.230   5.993   5.303  0.3530  0.0395 -0.0859
 1126DPPI    C216090  10.305   5.601   5.280 -0.0766 -0.0682  0.2240
 1126DPPI    C316091  10.581   5.865   5.162  0.0422 -0.4653 -0.4334
 1126DPPI   PO416092  10.066   6.021   5.616  0.0577  0.0637  0.3034
 1126DPPI   GL116093  10.059   5.846   6.012  0.6384 -0.1538  0.1873
 1126DPPI   GL216094   9.898   5.911   6.136 -0.1315 -0.0783  0.0007
 1126DPPI   C1A16095  10.406   5.802   6.173  0.1999  0.1516  0.1087
 1126DPPI   C2A16096  10.680   5.629   6.410  0.5042 -0.0639 -0.0987
 1126DPPI   C3A16097  10.744   5.616   6.865  0.0448 -0.0269 -0.0103
 1126DPPI   C4A16098  10.712   5.606   7.124 -0.1539 -0.1097 -0.2931
 1126DPPI   C1B16099   9.773   6.065   6.454 -0.0300 -0.0568 -0.0836
 1126DPPI   C2B16100   9.911   6.091   6.934  0.1871 -0.1980  0.0874
 1126DPPI   C3B16101   9.885   6.096   7.337  0.2133  0.4409 -0.2132
 1126DPPI   C4B16102   9.898   5.777   7.668 -0.0007 -0.1433  0.1433
 1127DPPI    C116103   4.365  17.591   5.711  0.2656  0.0836  0.0094
 1127DPPI    C216104   4.579  17.647   5.378 -0.1116  0.0830 -0.2400
 1127DPPI    C316105   4.343  17.326   5.412  0.0068  0.0256  0.0769
 1127DPPI   PO416106   4.502  17.549   5.963  0.0259 -0.1213  0.1597
 1127DPPI   GL116107   4.593  17.644   6.345  0.0156  0.1484  0.0109
 1127DPPI   GL216108   4.506  17.966   6.469  0.2750 -0.0205 -0.4791
 1127DPPI   C1A16109   4.311  17.553   6.715 -0.0188 -0.2329 -0.0741
 1127DPPI   C2A16110   4.363  17.601   7.136 -0.3057  0.1037  0.1851
 1127DPPI   C3A16111   4.416  17.734   7.528 -0.0456 -0.0790  0.1417
 1127DPPI   C4A16112   4.657  18.024   7.365 -0.4556  0.0297 -0.0339
 1127DPPI   C1B16113   4.725  17.849   6.824  0.2058 -0.2143  0.1443
 1127DPPI   C2B16114   4.948  17.688   7.130 -0.3630  0.1188 -0.2080
 1127DPPI   C3B16115   4.867  17.613   7.584 -0.1648 -0.0616 -0.2587
 1127DPPI   C4B16116   4.569  17.545   7.942 -0.1914 -0.0467  0.1924
 1128DPPI    C116117  17.637   9.400   5.147  0.0669  0.1146 -0.1838
 1128DPPI    C216118  17.819   9.735   5.026  0.3523 -0.0146 -0.1195
 1128DPPI    C316119  17.788   9.423   4.778  0.2210  0.0052 -0.1287
 1128DPPI   PO416120  17.693   9.394   5.447 -0.0100 -0.1417  0.3544
 1128DPPI   GL116121  17.510   9.570   5.804 -0.2039  0.0340  0.0412
 1128DPPI   GL216122  17.674   9.778   6.011  0.0127 -0.1821 -0.1397
 1128DPPI   C1A16123  17.269   9.364   6.163 -0.1729  0.1060 -0.0630
 1128DPPI   C2A16124  17.212   9.369   6.614  0.3344  0.0312 -0.1179
 1128DPPI   C3A16125  17.181   9.396   7.095 -0.0925  0.4084 -0.1961
 1128DPPI   C4A16126  17.345   9.150   7.575  0.1665 -0.3247  0.0737
 1128DPPI   C1B16127  17.372   9.785   6.341  0.1514  0.0354  0.0697
 1128DPPI   C2B16128  17.276   9.819   6.805 -0.0805 -0.1359  0.1711
 1128DPPI   C3B16129  17.365   9.883   7.200 -0.2645 -0.0828 -0.2650
 1128DPPI   C4B16130  17.464  10.027   7.627  0.0482 -0.1192 -0.2979
 1129DPPI    C116131   3.663   7.384   5.590 -0.0255 -0.1988 -0.0054
 1129DPPI    C216132   3.632   7.422   5.193  0.0187  0.0083  0.0095
 1129DPPI    C316133   3.535   7.076   5.370 -0.1740 -0.0270 -0.1624
 1129DPPI   PO416134   3.830   7.628   5.627  0.3678  0.0960  0.2097
 1129DPPI   GL116135   3.620   7.740   5.980  0.0467  0.0882  0.0348
 1129DPPI   GL216136   3.827   7.448   6.083  0.0631  0.0037 -0.0709
 1129DPPI   C1A16137   3.758   7.894   6.352 -0.2875  0.3002 -0.2720
 1129DPPI   C2A16138   3.898   7.872   6.821  0.0455  0.2000 -0.2872
 1129DPPI   C3A16139   3.944   7.837   7.176  0.0969  0.3160  0.2755
 1129DPPI   C4A16140   3.711   7.871   7.439  0.1065  0.1467 -0.0864
 1129DPPI   C1B16141   4.120   7.462   6.396  0.0594 -0.0860  0.3929
 1129DPPI   C2B16142   4.081   7.406   6.934  0.2652 -0.1786 -0.0148
 1129DPPI   C3B16143   4.115   7.420   7.324  0.0304 -0.0483 -0.2103
 1129DPPI   C4B16144   4.195   7.713   7.737 -0.0784 -0.0360 -0.0697
 1130DPPI    C116145  12.088  13.104   5.402  0.2797  0.0762 -0.1511
 1130DPPI    C216146  11.864  12.975   5.097  0.1364 -0.2176  0.0730
 1130DPPI    C316147  12.262  12.930   5.087  0.1366 -0.1876 -0.0869
 1130DPPI   PO416148  11.934  13.067   5.606  0.2813 -0.1826  0.1117
 1130DPPI   GL116149  12.085  12.894   5.918  0.0861  0.0035  0.1059
 1130DPPI   GL216150  11.720  12.812   5.962  0.1990  0.1899 -0.1198
 1130DPPI   C1A16151  12.174  12.891   6.274  0.0434  0.0811  0.0809
 1130DPPI   C2A16152  12.067  12.817   6.660  0.1127  0.3350  0.2073
 1130DPPI   C3A16153  12.199  12.883   7.068  0.1277 -0.2998 -0.2307
 1130DPPI   C4A16154  12.466  12.678   7.414 -0.2273 -0.0599  0.4829
 1130DPPI   C1B16155  11.480  12.586   6.413 -0.0903 -0.1018 -0.2762
 1130DPPI   C2B16156  11.515  12.367   6.858  0.0032 -0.2064 -0.1321
 1130DPPI   C3B16157  11.506  12.384   7.288 -0.2078 -0.3440 -0.0085
 1130DPPI   C4B16158  11.424  12.238   7.658  0.1637  0.0529  0.0258
 1131DPPI    C116159   0.386   8.857   5.189  0.0410  0.0606 -0.0511
 1131DPPI    C216160   0.427   8.948   4.802  0.0675  0.2267 -0.0101
 1131DPPI    C316161   0.738   8.803   5.008  0.0017 -0.0426 -0.0970
 1131DPPI   PO416162   0.303   9.052   5.331 -0.3039  0.1005 -0.1314
 1131DPPI   GL116163   0.221   8.985   5.726  0.0464 -0.2639 -0.1139
 1131DPPI   GL216164   0.044   9.282   5.785 -0.1218  0.2402 -0.1386
 1131DPPI   C1A16165   0.096   8.823   6.194 -0.1931  0.1193 -0.2049
 1131DPPI   C2A16166  -0.087   8.715   6.499 -0.1139  0.0255  0.0858
 1131DPPI   C3A16167  -0.479   8.794   6.794  0.0593 -0.0498  0.3216
 1131DPPI   C4A16168  -0.651   8.909   7.145  0.1987 -0.5093 -0.1776
 1131DPPI   C1B16169  -0.130   9.259   6.200  0.0088 -0.2175 -0.1512
 1131DPPI   C2B16170  -0.389   9.202   6.529  0.1816  0.0105  0.1568
 1131DPPI   C3B16171  -0.380   9.458   6.919  0.0939  0.0405 -0.0861
 1131DPPI   C4B16172  -0.425   9.474   7.382 -0.0724 -0.0373 -0.3935
 1132DPPI    C116173   6.410  12.996   5.749 -0.2865  0.2601  0.2519
 1132DPPI    C216174   6.096  12.813   5.584 -0.1378  0.1675  0.0678
 1132DPPI    C316175   6.162  13.200   5.511 -0.0555  0.1194 -0.1177
 1132DPPI   PO416176   6.485  12.841   6.003  0.0958  0.0332  0.2183
 1132DPPI   GL116177   6.249  12.619   6.319  0.1721 -0.1143 -0.3014
 1132DPPI   GL216178   6.476  12.647   6.515 -0.0729 -0.2176  0.2348
 1132DPPI   C1A16179   5.941  12.589   6.666 -0.0320 -0.2411  0.0996
 1132DPPI   C2A16180   5.891  12.331   6.985 -0.0182  0.1319 -0.0256
 1132DPPI   C3A16181   5.713  12.380   7.343  0.1550  0.0591 -0.2920
 1132DPPI   C4A16182   5.670  12.319   7.719  0.1792  0.1570 -0.0565
 1132DPPI   C1B16183   6.381  12.497   6.936  0.2339  0.2613 -0.1216
 1132DPPI   C2B16184   6.292  12.394   7.387 -0.2245  0.0855  0.1525
 1132DPPI   C3B16185   6.175  12.275   7.836 -0.0110 -0.2727 -0.0386
 1132DPPI   C4B16186   6.123  12.278   8.311 -0.1319  0.0199  0.2627
 1133DPPI    C116187   6.437   1.566   6.019  0.1619 -0.0396 -0.0793
 1133DPPI    C216188   6.222   1.408   6.316 -0.0439  0.1013 -0.1510
 1133DPPI    C316189   6.131   1.322   5.936 -0.0717  0.2817 -0.1861
 1133DPPI   PO416190   6.766   1.541   6.057  0.1710 -0.0230  0.1085
 1133DPPI   GL116191   7.032   1.348   6.354  0.0595 -0.1191 -0.2650
 1133DPPI   GL216192   6.780   1.453   6.534  0.3311  0.1477 -0.1446
 1133DPPI   C1A16193   7.228   1.325   6.688 -0.0659 -0.1869  0.1287
 1133DPPI   C2A16194   7.348   1.448   7.045 -0.0997  0.1673  0.2045
 1133DPPI   C3A16195   7.376   1.344   7.485 -0.1140 -0.4197 -0.0929
 1133DPPI   C4A16196   7.333   1.466   7.897  0.1372 -0.2200 -0.0689
 1133DPPI   C1B16197   6.951   1.714   6.887  0.1743  0.5824 -0.1873
 1133DPPI   C2B16198   7.026   1.739   7.254 -0.1957  0.2709 -0.2831
 1133DPPI   C3B16199   6.932   1.728   7.628 -0.1516  0.0931  0.0887
 1133DPPI   C4B16200   7.041   1.966   7.946 -0.1799 -0.0122 -0.1812
 1134DPPI    C116201   9.926  13.961   5.979  0.0100  0.1788  0.0520
 1134DPPI    C216202  10.037  14.127   5.632  0.0692 -0.0030 -0.0176
 1134DPPI    C316203   9.650  14.060   5.708  0.0493  0.1169 -0.0113
 1134DPPI   PO416204   9.959  14.045   6.196  0.3744 -0.0930  0.0565
 1134DPPI   GL116205   9.996  14.159   6.570  0.0468 -0.0480  0.0447
 1134DPPI   GL216206  10.075  14.507   6.598 -0.1715 -0.3105  0.2526
 1134DPPI   C1A16207  10.189  14.134   6.922  0.1238  0.1361  0.2825
 1134DPPI   C2A16208  10.313  14.308   7.319  0.3052 -0.0638  0.0167
 1134DPPI   C3A16209  10.572  14.353   7.732  0.0133 -0.0574 -0.0633
 1134DPPI   C4A16210  10.889  14.332   8.081 -0.0948 -0.3775 -0.0301
 1134DPPI   C1B16211  10.030  14.616   6.969 -0.0904  0.0417 -0.1410
 1134DPPI   C2B16212  10.096  14.766   7.405  0.0717 -0.2324 -0.0235
 1134DPPI   C3B16213  10.271  14.755   7.776 -0.2128 -0.0315 -0.0080
 1134DPPI   C4B16214  10.209  14.407   8.187  0.2841 -0.0259  0.1684
 1135DPPI    C116215   1.817  11.483   5.654  0.0282 -0.0929  0.1648
 1135DPPI    C216216   2.113  11.640   5.436 -0.2853 -0.2240 -0.3750
 1135DPPI    C316217   2.153  11.275   5.594 -0.0086 -0.0792 -0.0987
 1135DPPI   PO416218   1.808  11.745   5.837 -0.1674 -0.1332 -0.4514
 1135DPPI   GL116219   1.753  12.232   6.008 -0.0182 -0.1153 -0.0478
 1135DPPI   GL216220   1.437  12.160   6.159 -0.2381  0.0722 -0.0127
 1135DPPI   C1A16221   1.818  11.995   6.458  0.0123 -0.4581 -0.4020
 1135DPPI   C2A16222   1.740  12.004   6.896  0.4039  0.1187 -0.0460
 1135DPPI   C3A16223   1.672  12.082   7.402 -0.1004 -0.2179 -0.1971
 1135DPPI   C4A16224   1.353  12.176   7.739 -0.1547 -0.0745 -0.0193
 1135DPPI   C1B16225   1.328  12.338   6.572 -0.4021 -0.1619  0.4269
 1135DPPI   C2B16226   1.476  12.489   7.066  0.0985 -0.3466  0.0514
 1135DPPI   C3B16227   1.419  12.604   7.464 -0.5335 -0.0234  0.2217
 1135DPPI   C4B16228   1.145  12.693   7.741 -0.0388 -0.0051  0.0511
 1136DPPI    C116229   3.513  10.118   5.746  0.0747 -0.0869 -0.1935
 1136DPPI    C216230   3.680   9.759   5.688  0.1564 -0.0566 -0.1485
 1136DPPI    C316231   3.844  10.085   5.523  0.2519 -0.0017  0.0521
 1136DPPI   PO416232   3.488  10.078   6.027  0.1653 -0.2769 -0.0903
 1136DPPI   GL116233   3.754  10.047   6.385 -0.4269  0.1285  0.3965
 1136DPPI   GL216234   3.941   9.759   6.539  0.2178  0.2812  0.1852
 1136DPPI   C1A16235   3.688  10.130   6.743  0.2453  0.0752 -0.2611
 1136DPPI   C2A16236   3.770  10.109   7.148 -0.0397  0.0627  0.1095
 1136DPPI   C3A16237   3.562   9.919   7.512  0.0712  0.1908  0.1979
 1136DPPI   C4A16238   3.334   9.717   7.827 -0.2629  0.0846  0.0414
 1136DPPI   C1B16239   3.868   9.648   6.982 -0.0071 -0.0136 -0.2710
 1136DPPI   C2B16240   3.943   9.586   7.488 -0.2338  0.1455 -0.1547
 1136DPPI   C3B16241   3.806   9.587   7.910 -0.1363 -0.1368  0.1139
 1136DPPI   C4B16242   3.995   9.454   8.397  0.0273  0.2414 -0.0565
 1137DPPI    C116243   8.868   9.182   5.447 -0.1951 -0.2303  0.0486
 1137DPPI    C216244   9.000   8.859   5.251  0.0826 -0.1250  0.0580
 1137DPPI    C316245   9.047   9.223   5.092 -0.1297 -0.0789  0.0983
 1137DPPI   PO416246   8.972   9.149   5.778 -0.0323 -0.0110 -0.1658
 1137DPPI   GL116247   8.797   8.859   6.045  0.0080  0.2587  0.0390
 1137DPPI   GL216248   8.417   8.867   6.129  0.1883  0.0257  0.1155
 1137DPPI   C1A16249   8.905   8.745   6.563  0.0607  0.0135  0.0032
 1137DPPI   C2A16250   8.842   8.621   7.050  0.0624  0.0383  0.2081
 1137DPPI   C3A16251   8.763   8.499   7.483 -0.1793 -0.1424  0.3686
 1137DPPI   C4A16252   8.780   8.226   7.681 -0.2739  0.0582 -0.5492
 1137DPPI   C1B16253   8.417   8.680   6.552  0.0304 -0.0526 -0.0560
 1137DPPI   C2B16254   8.398   8.452   6.893  0.3581  0.1326  0.1187
 1137DPPI   C3B16255   8.182   7.966   7.014 -0.1036 -0.0677 -0.1682
 1137DPPI   C4B16256   8.012   7.821   7.301 -0.1489 -0.1548  0.1069
 1138DPPI    C116257   4.883   4.186   6.031 -0.0967  0.2746 -0.2595
 1138DPPI    C216258   4.562   3.969   5.933  0.0039 -0.0238  0.0502
 1138DPPI    C316259   4.888   3.959   5.702 -0.0051 -0.1770  0.0430
 1138DPPI   PO416260   4.794   4.391   6.117 -0.0121 -0.1328  0.3177
 1138DPPI   GL116261   4.946   4.724   6.336  0.1596  0.4636 -0.2587
 1138DPPI   GL216262   4.878   5.086   6.296 -0.1875  0.2272 -0.3468
 1138DPPI   C1A16263   4.978   4.870   6.747 -0.0854 -0.0586  0.2551
 1138DPPI   C2A16264   4.742   4.661   7.144 -0.2106  0.0898  0.2805
 1138DPPI   C3A16265   4.641   4.649   7.466 -0.1364  0.5311  0.2312
 1138DPPI   C4A16266   4.502   4.620   7.800 -0.1417  0.0685 -0.1082
 1138DPPI   C1B16267   4.915   5.414   6.679 -0.4172 -0.1146 -0.1934
 1138DPPI   C2B16268   4.896   5.293   7.053  0.0062 -0.1654 -0.2904
 1138DPPI   C3B16269   5.049   5.070   7.364 -0.0650  0.0961  0.0324
 1138DPPI   C4B16270   5.094   4.895   7.709 -0.1626 -0.0364  0.1058
 1139DPPI    C116271  16.476   9.435   5.411 -0.1817 -0.1714 -0.0890
 1139DPPI    C216272  16.499   9.368   5.018  0.0146  0.5195 -0.2078
 1139DPPI    C316273  16.176   9.546   5.171 -0.0886  0.1960 -0.0408
 1139DPPI   PO416274  16.758   9.524   5.475  0.0830 -0.1040 -0.1950
 1139DPPI   GL116275  16.932   9.456   5.843  0.1431 -0.2156  0.0760
 1139DPPI   GL216276  16.956   9.751   5.925 -0.0125  0.0052  0.4092
 1139DPPI   C1A16277  17.033   8.985   5.912  0.1431 -0.0180  0.1089
 1139DPPI   C2A16278  17.099   8.867   6.352 -0.1843 -0.2445  0.1574
 1139DPPI   C3A16279  17.098   8.896   6.759  0.2397 -0.2662 -0.3258
 1139DPPI   C4A16280  16.901   8.923   7.063 -0.0201 -0.1361 -0.1944
 1139DPPI   C1B16281  16.901   9.671   6.348  0.0330 -0.1646 -0.4147
 1139DPPI   C2B16282  16.804   9.808   6.823 -0.0848 -0.0831 -0.0315
 1139DPPI   C3B16283  16.900   9.844   7.247 -0.1686  0.0669  0.0409
 1139DPPI   C4B16284  16.877  10.042   7.677  0.0440  0.2540  0.1889
 1140DPPI    C116285  15.837   8.258   5.544 -0.0221  0.0443  0.2217
 1140DPPI    C216286  16.012   8.557   5.345  0.0186 -0.1085  0.0239
 1140DPPI    C316287  16.072   8.179   5.230 -0.3828 -0.1679 -0.0018
 1140DPPI   PO416288  15.848   8.269   5.841  0.0632  0.0376  0.0472
 1140DPPI   GL116289  15.952   7.896   6.099 -0.0671 -0.2158 -0.0969
 1140DPPI   GL216290  15.697   7.813   6.177  0.1934 -0.3894  0.0791
 1140DPPI   C1A16291  16.216   7.684   6.420 -0.2587 -0.2060  0.4529
 1140DPPI   C2A16292  16.248   7.723   6.797  0.0075  0.0918  0.2111
 1140DPPI   C3A16293  16.140   7.764   7.193 -0.2709 -0.0786  0.1448
 1140DPPI   C4A16294  16.075   7.750   7.551  0.0647  0.0606 -0.0984
 1140DPPI   C1B16295  15.769   7.855   6.671  0.0400 -0.1096  0.0130
 1140DPPI   C2B16296  15.621   8.000   7.129  0.0293 -0.0948  0.0524
 1140DPPI   C3B16297  15.628   8.012   7.624 -0.0126  0.2162  0.0527
 1140DPPI   C4B16298  15.680   7.871   8.103  0.0905 -0.0969  0.1775
 1141DPPI    C116299  13.311   5.399   5.845 -0.1215 -0.0408  0.1091
 1141DPPI    C216300  13.585   5.292   6.117 -0.0769 -0.0375  0.0657
 1141DPPI    C316301  13.576   5.111   5.760 -0.0579  0.0422  0.0246
 1141DPPI   PO416302  13.107   5.374   6.113  0.1283  0.0996  0.0156
 1141DPPI   GL116303  13.051   5.372   6.542  0.5085  0.1898 -0.0002
 1141DPPI   GL216304  13.283   5.162   6.545  0.2586  0.1452 -0.1796
 1141DPPI   C1A16305  12.958   5.401   6.955  0.1559  0.2324  0.1237
 1141DPPI   C2A16306  13.193   5.619   7.213 -0.2087  0.1279 -0.0048
 1141DPPI   C3A16307  13.429   5.820   7.487 -0.0904  0.1726  0.1039
 1141DPPI   C4A16308  13.499   6.136   7.618  0.2446 -0.1023 -0.1189
 1141DPPI   C1B16309  13.293   5.072   6.987  0.1760  0.1253  0.1312
 1141DPPI   C2B16310  13.072   5.184   7.428  0.0609 -0.3890  0.1007
 1141DPPI   C3B16311  13.140   5.463   7.745  0.1037 -0.1858 -0.0335
 1141DPPI   C4B16312  13.325   5.864   8.009 -0.2177 -0.0262 -0.0774
 1142DPPI    C116313  15.389  14.498   5.563  0.0274  0.0699  0.0967
 1142DPPI    C216314  15.078  14.449   5.316  0.2000 -0.1212 -0.0872
 1142DPPI    C316315  15.247  14.809   5.356 -0.0577 -0.0110  0.0325
 1142DPPI   PO416316  15.300  14.405   5.760  0.0640  0.1515  0.2130
 1142DPPI   GL116317  15.156  14.137   5.993  0.4712  0.1527 -0.0562
 1142DPPI   GL216318  15.405  14.216   6.184  0.0641  0.0924 -0.1253
 1142DPPI   C1A16319  14.874  14.008   6.313  0.1302  0.0790  0.0935
 1142DPPI   C2A16320  14.902  14.251   6.669 -0.1721 -0.0369 -0.0325
 1142DPPI   C3A16321  14.918  14.139   7.140 -0.1232  0.3050  0.0998
 1142DPPI   C4A16322  14.856  14.107   7.624  0.2346 -0.0843  0.0653
 1142DPPI   C1B16323  15.495  14.377   6.635 -0.3358 -0.0509  0.0382
 1142DPPI   C2B16324  15.251  14.471   6.947  0.0562  0.1123  0.1475
 1142DPPI   C3B16325  15.188  14.435   7.433  0.0173  0.2922  0.0093
 1142DPPI   C4B16326  15.220  14.404   7.916 -0.2632  0.1209 -0.0656
 1143DPPI    C116327  14.403   0.383   5.533 -0.0709  0.1949 -0.0401
 1143DPPI    C216328  14.708   0.641   5.529 -0.1692  0.3107 -0.2535
 1143DPPI    C316329  14.738   0.292   5.335 -0.0279  0.1477  0.0537
 1143DPPI   PO416330  14.301   0.445   5.789  0.2209  0.1218 -0.1205
 1143DPPI   GL116331  14.532   0.786   5.985 -0.1654  0.1279 -0.1300
 1143DPPI   GL216332  14.856   0.693   6.061  0.4572  0.0822  0.1286
 1143DPPI   C1A16333  14.332   0.845   6.414  0.3129 -0.0801  0.0346
 1143DPPI   C2A16334  14.503   0.881   6.762 -0.3023 -0.0234 -0.1157
 1143DPPI   C3A16335  14.655   0.704   7.167  0.1089  0.1627  0.1361
 1143DPPI   C4A16336  14.869   0.404   7.267  0.0412 -0.1440 -0.0954
 1143DPPI   C1B16337  14.577   0.419   6.362  0.1233  0.1522 -0.0283
 1143DPPI   C2B16338  14.292   0.115   6.463  0.1430  0.0639 -0.0591
 1143DPPI   C3B16339  14.066  -0.133   6.824 -0.0292 -0.2025 -0.1673
 1143DPPI   C4B16340  14.027  -0.558   7.046 -0.0643 -0.0965  0.2932
 1144DPPI    C116341   0.686   1.713   5.592  0.1206 -0.2308 -0.2335
 1144DPPI    C216342   0.435   2.024   5.571  0.0862 -0.2256  0.1681
 1144DPPI    C316343   0.410   1.727   5.303 -0.2594 -0.1600  0.1238
 1144DPPI   PO416344   0.590   1.584   5.851  0.0381 -0.0077  0.0225
 1144DPPI   GL116345   0.596   1.556   6.233 -0.0054  0.0541  0.2198
 1144DPPI   GL216346   0.895   1.350   6.401  0.1774 -0.0061 -0.1600
 1144DPPI   C1A16347   0.416   1.701   6.607  0.0834  0.1033  0.0151
 1144DPPI   C2A16348   0.493   1.791   7.018  0.2618  0.3193 -0.1558
 1144DPPI   C3A16349   0.321   1.714   7.396  0.0801  0.1556 -0.1587
 1144DPPI   C4A16350   0.440   1.654   7.991 -0.0192 -0.4883  0.0234
 1144DPPI   C1B16351   0.847   1.298   6.874  0.1761  0.0149 -0.1914
 1144DPPI   C2B16352   0.821   1.507   7.321  0.1171  0.0622  0.0194
 1144DPPI   C3B16353   0.750   1.849   7.641  0.3174  0.0838  0.0344
 1144DPPI   C4B16354   0.838   2.284   7.839 -0.0436 -0.2615 -0.2050
 1145DPPI    C116355   7.129  11.979   5.875  0.1164  0.1035 -0.0197
 1145DPPI    C216356   7.341  12.035   6.210 -0.0873  0.2647  0.0843
 1145DPPI    C316357   7.516  12.080   5.853  0.1795 -0.0917  0.1650
 1145DPPI   PO416358   6.904  11.891   5.951  0.0428 -0.0770 -0.3303
 1145DPPI   GL116359   6.850  11.856   6.438  0.0311  0.0245  0.4139
 1145DPPI   GL216360   7.034  11.595   6.622 -0.1010  0.2010 -0.0514
 1145DPPI   C1A16361   6.675  12.119   6.816  0.1014 -0.1870  0.0239
 1145DPPI   C2A16362   6.549  12.003   7.253  0.2664 -0.0175 -0.1111
 1145DPPI   C3A16363   6.513  11.984   7.728 -0.3331  0.2450  0.1050
 1145DPPI   C4A16364   6.354  11.765   8.072  0.1109  0.0847 -0.0979
 1145DPPI   C1B16365   6.766  11.649   7.017  0.0524 -0.0228  0.0831
 1145DPPI   C2B16366   6.841  11.726   7.447 -0.0938  0.1829 -0.0835
 1145DPPI   C3B16367   6.940  11.686   7.885  0.0509  0.1142 -0.1160
 1145DPPI   C4B16368   7.145  11.405   8.258 -0.0748 -0.0452  0.1439
 1146DPPI    C116369   3.713  13.833   5.697 -0.2630  0.0111 -0.0117
 1146DPPI    C216370   3.878  13.937   5.348  0.1965 -0.1775  0.1412
 1146DPPI    C316371   3.680  13.591   5.381 -0.3525  0.1040 -0.0740
 1146DPPI   PO416372   3.882  13.805   5.879 -0.3315  0.1115  0.2683
 1146DPPI   GL116373   3.935  13.615   6.241  0.1528 -0.4990 -0.5513
 1146DPPI   GL216374   3.700  13.478   6.388  0.0360  0.1337 -0.0426
 1146DPPI   C1A16375   4.040  13.511   6.765 -0.1660 -0.0957  0.2693
 1146DPPI   C2A16376   4.088  13.582   7.148  0.3370 -0.2274 -0.0448
 1146DPPI   C3A16377   4.157  13.373   7.532  0.1423  0.0093  0.4269
 1146DPPI   C4A16378   4.273  13.340   7.873  0.0234  0.1384  0.0112
 1146DPPI   C1B16379   3.478  13.478   6.703 -0.1042  0.2395 -0.1410
 1146DPPI   C2B16380   3.569  13.409   7.088 -0.0125  0.0453  0.1366
 1146DPPI   C3B16381   3.707  13.637   7.433  0.0118  0.0707 -0.0164
 1146DPPI   C4B16382   3.821  13.676   7.859 -0.1727  0.2584 -0.1827
 1147PYPI    C116383   4.776  14.128   5.809 -0.1336 -0.0129  0.0600
 1147PYPI    C216384   4.431  13.999   5.652 -0.0645 -0.0548 -0.0582
 1147PYPI    C316385   4.764  14.004   5.429  0.0876 -0.3417  0.1565
 1147PYPI   PO416386   4.775  13.897   6.027  0.1833  0.2869 -0.3218
 1147PYPI   GL116387   4.510  13.769   6.428 -0.0600 -0.1572 -0.1588
 1147PYPI   GL216388   4.812  13.672   6.458 -0.3018 -0.0753 -0.3333
 1147PYPI   C1A16389   4.296  13.925   6.700  0.1690 -0.3472 -0.1635
 1147PYPI   C2A16390   4.262  14.056   7.127 -0.1060  0.1748 -0.1704
 1147PYPI   D3A16391   4.148  13.888   7.493 -0.4182 -0.1016  0.2822
 1147PYPI   C4A16392   4.193  14.179   7.858  0.1311  0.2808 -0.1319
 1147PYPI   C1B16393   4.646  13.561   6.884  0.1651  0.0884  0.0271
 1147PYPI   C2B16394   4.543  13.375   7.226  0.0841 -0.1844  0.1789
 1147PYPI   C3B16395   4.540  12.965   7.469 -0.1334  0.1288  0.0678
 1147PYPI   C4B16396   4.422  12.628   7.580  0.2642  0.0263  0.1171
 1148PYPI    C116397   1.329  10.438   5.374 -0.2145 -0.0106 -0.1853
 1148PYPI    C216398   1.262  10.802   5.525 -0.0924 -0.0063 -0.1408
 1148PYPI    C316399   1.460  10.762   5.180 -0.2428 -0.0232 -0.2255
 1148PYPI   PO416400   1.077  10.287   5.487 -0.0271  0.0601 -0.1224
 1148PYPI   GL116401   1.046  10.271   5.893  0.1675  0.0071 -0.0602
 1148PYPI   GL216402   1.083  10.014   6.015  0.0599 -0.1160 -0.2569
 1148PYPI   C1A16403   1.126  10.485   6.297 -0.2884  0.2764  0.1804
 1148PYPI   C2A16404   1.056  10.771   6.555  0.0313 -0.1014  0.0128
 1148PYPI   D3A16405   1.247  10.920   6.922 -0.0475 -0.1416  0.3350
 1148PYPI   C4A16406   1.576  11.138   6.812  0.0269  0.0594  0.0191
 1148PYPI   C1B16407   1.090  10.008   6.479 -0.0180 -0.3226  0.1307
 1148PYPI   C2B16408   0.987  10.169   6.822  0.4689  0.0265 -0.1366
 1148PYPI   C3B16409   0.817  10.482   7.133 -0.2272  0.0035 -0.0797
 1148PYPI   C4B16410   0.657  10.923   7.234 -0.1441 -0.0969  0.0463
 1149PYPI    C116411   7.708  13.255   6.004  0.0057 -0.0040 -0.4696
 1149PYPI    C216412   7.348  13.268   5.829 -0.1815 -0.0923 -0.1015
 1149PYPI    C316413   7.423  12.996   6.113  0.0515  0.1697  0.0935
 1149PYPI   PO416414   7.728  13.425   6.212 -0.2647  0.0706 -0.0411
 1149PYPI   GL116415   7.745  13.157   6.556 -0.0255 -0.1379 -0.0882
 1149PYPI   GL216416   7.882  12.915   6.670 -0.1918  0.0986  0.0393
 1149PYPI   C1A16417   7.921  13.369   6.903  0.1364 -0.0136  0.1170
 1149PYPI   C2A16418   8.027  13.388   7.268 -0.2828 -0.2028 -0.0324
 1149PYPI   D3A16419   7.982  13.481   7.633  0.1558 -0.1082  0.3500
 1149PYPI   C4A16420   7.679  13.469   7.988 -0.1992 -0.1841  0.1120
 1149PYPI   C1B16421   7.730  12.977   7.199  0.0457 -0.1621 -0.2753
 1149PYPI   C2B16422   7.691  13.038   7.643 -0.1650  0.0727 -0.1358
 1149PYPI   C3B16423   7.421  12.923   8.010  0.1096 -0.1447 -0.0609
 1149PYPI   C4B16424   7.307  12.704   8.412  0.1060 -0.0485  0.0591
 1150PYPI    C116425   0.839  12.969   5.204 -0.1012  0.0848  0.0484
 1150PYPI    C216426   1.208  13.069   5.087 -0.0208 -0.0452  0.1867
 1150PYPI    C316427   0.933  12.968   4.815 -0.0134  0.2430  0.0687
 1150PYPI   PO416428   0.956  12.870   5.452  0.0344  0.2053  0.2043
 1150PYPI   GL116429   1.094  13.004   5.792 -0.2749 -0.0720 -0.2002
 1150PYPI   GL216430   0.769  13.047   5.962  0.0415 -0.0672 -0.2075
 1150PYPI   C1A16431   0.994  12.686   6.212  0.0274  0.2566 -0.2399
 1150PYPI   C2A16432   1.141  12.777   6.716  0.3064 -0.0469  0.2485
 1150PYPI   D3A16433   1.027  12.866   7.090 -0.0073  0.0036  0.1928
 1150PYPI   C4A16434   0.715  12.878   7.486 -0.0062  0.1865 -0.2114
 1150PYPI   C1B16435   0.731  13.096   6.430  0.2110  0.0493  0.0797
 1150PYPI   C2B16436   0.660  13.112   6.783  0.0438 -0.2687 -0.0769
 1150PYPI   C3B16437   0.727  13.250   7.206 -0.2999  0.2280  0.4712
 1150PYPI   C4B16438   0.404  13.280   7.568 -0.0889 -0.0540  0.1111
 1151PYPI    C116439  10.673  15.725   5.784 -0.0255  0.0148  0.1887
 1151PYPI    C216440  10.741  16.039   5.545  0.1776 -0.0122  0.2094
 1151PYPI    C316441  10.533  15.725   5.409  0.2093  0.0140  0.0991
 1151PYPI   PO416442  10.555  15.882   6.035 -0.1881 -0.0146  0.1915
 1151PYPI   GL116443  10.477  15.997   6.421  0.2257 -0.1173  0.1000
 1151PYPI   GL216444  10.517  15.711   6.561 -0.0567  0.0824  0.1065
 1151PYPI   C1A16445  10.366  16.055   6.917 -0.2482  0.0971 -0.1758
 1151PYPI   C2A16446  10.389  16.254   7.364 -0.2719 -0.2744 -0.1922
 1151PYPI   D3A16447  10.181  16.211   7.774 -0.0764 -0.4037  0.0449
 1151PYPI   C4A16448  10.187  16.150   8.173  0.1446  0.0828  0.0902
 1151PYPI   C1B16449  10.872  15.707   6.816 -0.0909 -0.0605  0.2440
 1151PYPI   C2B16450  11.034  15.775   7.163 -0.0655  0.4014 -0.0926
 1151PYPI   C3B16451  11.096  15.744   7.562 -0.0830 -0.3751  0.1295
 1151PYPI   C4B16452  11.075  15.495   7.874 -0.0454  0.2502  0.0809
 1152PYPI    C116453   4.080   9.385   5.504 -0.0103 -0.1197  0.0822
 1152PYPI    C216454   4.224   9.757   5.485 -0.0052 -0.1073  0.3317
 1152PYPI    C316455   4.360   9.477   5.234 -0.0768  0.0803  0.0799
 1152PYPI   PO416456   4.075   9.403   5.753 -0.1005 -0.1038  0.3368
 1152PYPI   GL116457   4.270   9.220   6.092 -0.0358  0.1213  0.0502
 1152PYPI   GL216458   4.079   9.251   6.293 -0.3011  0.1558  0.2296
 1152PYPI   C1A16459   4.465   8.915   6.491 -0.1746 -0.0999 -0.0701
 1152PYPI   C2A16460   4.563   8.654   6.578 -0.1531 -0.1196 -0.2970
 1152PYPI   D3A16461   4.593   8.316   6.969 -0.0425  0.0857 -0.4029
 1152PYPI   C4A16462   4.590   8.434   7.380  0.0158 -0.0046  0.3981
 1152PYPI   C1B16463   4.194   9.282   6.680  0.1115  0.0800  0.3661
 1152PYPI   C2B16464   4.210   9.238   7.143  0.0407  0.0281  0.2056
 1152PYPI   C3B16465   4.329   9.179   7.587  0.0974 -0.0559 -0.3475
 1152PYPI   C4B16466   4.732   9.091   7.941  0.2720  0.0219  0.1477
 1153PYPI    C116467  16.977  11.599   4.940 -0.0231  0.0615  0.0276
 1153PYPI    C216468  16.687  11.812   4.765  0.0192  0.0452 -0.0626
 1153PYPI    C316469  17.023  11.729   4.565  0.0733  0.0378  0.0311
 1153PYPI   PO416470  17.068  11.696   5.246 -0.1556  0.0321  0.2299
 1153PYPI   GL116471  17.416  11.547   5.582 -0.1787 -0.2661 -0.2325
 1153PYPI   GL216472  17.720  11.744   5.658 -0.0150 -0.0347 -0.1387
 1153PYPI   C1A16473  17.027  11.508   5.894  0.2135  0.1959 -0.4931
 1153PYPI   C2A16474  16.951  11.061   5.989 -0.1220  0.0890 -0.2936
 1153PYPI   D3A16475  16.977  11.022   6.513  0.1558  0.2192  0.0729
 1153PYPI   C4A16476  17.387  10.911   6.716  0.0467 -0.0527  0.3124
 1153PYPI   C1B16477  17.325  11.944   5.965  0.0325  0.3272 -0.1682
 1153PYPI   C2B16478  17.051  11.875   6.253 -0.0310  0.3299 -0.1094
 1153PYPI   C3B16479  17.005  11.550   6.401 -0.0761 -0.0722  0.0775
 1153PYPI   C4B16480  16.649  11.363   6.365  0.0250  0.4367  0.1323
 1154PYPI    C116481   1.324   5.465   5.568  0.1316  0.0143  0.1749
 1154PYPI    C216482   1.123   5.165   5.397  0.0510  0.2275 -0.1127
 1154PYPI    C316483   1.490   5.257   5.269  0.1782  0.0913  0.1469
 1154PYPI   PO416484   1.067   5.572   5.664  0.2538 -0.1191 -0.0660
 1154PYPI   GL116485   0.913   5.799   6.062  0.1689 -0.0688 -0.1244
 1154PYPI   GL216486   0.891   5.419   6.113 -0.2550  0.0625 -0.2202
 1154PYPI   C1A16487   0.810   6.032   6.543 -0.1117 -0.0527 -0.0656
 1154PYPI   C2A16488   0.622   6.033   6.968 -0.4506 -0.1913 -0.0563
 1154PYPI   D3A16489   0.516   6.075   7.469 -0.4855 -0.3573  0.1965
 1154PYPI   C4A16490   0.253   6.303   7.376 -0.1276 -0.0029 -0.0170
 1154PYPI   C1B16491   1.077   5.617   6.470 -0.1286  0.1292 -0.1299
 1154PYPI   C2B16492   1.082   5.773   6.861 -0.2898  0.1558  0.0438
 1154PYPI   C3B16493   0.994   5.928   7.269  0.0189  0.2963 -0.0925
 1154PYPI   C4B16494   0.923   6.101   7.726  0.1667 -0.0643 -0.0639
 1155PYPI    C116495   3.210  10.569   5.861 -0.2130  0.1237 -0.0507
 1155PYPI    C216496   3.090  10.403   5.518 -0.0498  0.1285 -0.1109
 1155PYPI    C316497   3.412  10.640   5.523  0.1490 -0.1403  0.1039
 1155PYPI   PO416498   3.053  10.425   6.026  0.1477  0.0137  0.2543
 1155PYPI   GL116499   3.008  10.142   6.308  0.0903 -0.0520  0.0097
 1155PYPI   GL216500   2.641  10.062   6.170 -0.0840 -0.1155 -0.0141
 1155PYPI   C1A16501   3.023   9.943   6.754 -0.1428  0.3175 -0.1383
 1155PYPI   C2A16502   2.808   9.592   7.059  0.2169  0.2776  0.2737
 1155PYPI   D3A16503   2.835   9.034   7.053 -0.1100 -0.0583  0.1538
 1155PYPI   C4A16504   2.572   8.784   6.720  0.2907 -0.2196 -0.1666
 1155PYPI   C1B16505   2.341   9.928   6.506  0.3918 -0.1346  0.1487
 1155PYPI   C2B16506   2.405   9.921   6.957  0.0419  0.0642 -0.1997
 1155PYPI   C3B16507   2.529   9.921   7.371  0.3058  0.1696  0.0697
 1155PYPI   C4B16508   2.416   9.820   7.810  0.1359  0.0927  0.2485
 1156PYPI    C116509   0.511   5.100   5.843 -0.3006  0.0582  0.0750
 1156PYPI    C216510   0.655   5.320   5.541  0.0988 -0.2429  0.0387
 1156PYPI    C316511   0.515   4.951   5.472 -0.1147 -0.1884  0.1729
 1156PYPI   PO416512   0.345   5.368   5.965 -0.0120  0.2084 -0.0980
 1156PYPI   GL116513   0.025   5.610   6.216  0.2191 -0.1590 -0.0069
 1156PYPI   GL216514   0.099   5.460   6.453 -0.2288  0.0083  0.0106
 1156PYPI   C1A16515   0.307   5.987   6.537  0.1538 -0.0304 -0.0610
 1156PYPI   C2A16516   0.171   6.097   6.884 -0.1990  0.0774 -0.1801
 1156PYPI   D3A16517  -0.144   6.134   7.091  0.1282  0.0220 -0.0480
 1156PYPI   C4A16518  -0.237   6.192   7.505 -0.1089  0.0283 -0.0966
 1156PYPI   C1B16519   0.466   5.563   6.820 -0.2064 -0.1485  0.1287
 1156PYPI   C2B16520   0.643   5.535   7.190  0.3297 -0.1225 -0.3000
 1156PYPI   C3B16521   0.632   5.450   7.550  0.2950 -0.1443 -0.1455
 1156PYPI   C4B16522   0.571   5.629   7.921  0.1946 -0.0524  0.0551
 1157PYPI    C116523   7.881  17.639   5.981 -0.1698  0.0827  0.1258
 1157PYPI    C216524   7.693  17.835   5.687  0.0145 -0.0221 -0.0650
 1157PYPI    C316525   8.091  17.861   5.723  0.0205 -0.2116  0.0214
 1157PYPI   PO416526   7.759  17.665   6.162 -0.0772  0.0585  0.1167
 1157PYPI   GL116527   7.693  17.709   6.589 -0.2731  0.0859 -0.0184
 1157PYPI   GL216528   7.969  17.869   6.619 -0.4564 -0.1573  0.0848
 1157PYPI   C1A16529   7.766  17.879   7.040 -0.2085 -0.1880 -0.1529
 1157PYPI   C2A16530   7.862  17.956   7.425  0.3378 -0.0762 -0.1850
 1157PYPI   D3A16531   7.855  18.166   7.768  0.0359  0.1186  0.0167
 1157PYPI   C4A16532   7.918  17.981   8.105 -0.0183 -0.2754  0.1576
 1157PYPI   C1B16533   8.288  17.755   6.918 -0.0858 -0.2761  0.0129
 1157PYPI   C2B16534   8.360  17.775   7.304  0.1422 -0.0245 -0.2978
 1157PYPI   C3B16535   8.511  17.749   7.614 -0.1097  0.0797  0.1158
 1157PYPI   C4B16536   8.452  17.629   8.034  0.1314 -0.1024 -0.0982
 1158PYPI    C116537   1.232  12.197   5.592 -0.1955  0.1553  0.1050
 1158PYPI    C216538   1.614  12.083   5.557 -0.2143  0.1061  0.0592
 1158PYPI    C316539   1.402  12.175   5.230 -0.2287  0.1755  0.0881
 1158PYPI   PO416540   1.110  12.133   5.772  0.1055 -0.1403 -0.0181
 1158PYPI   GL116541   0.791  11.935   6.050  0.2440  0.2377 -0.0367
 1158PYPI   GL216542   0.759  12.220   6.151 -0.2669 -0.0984  0.1807
 1158PYPI   C1A16543   1.041  11.846   6.455  0.1590 -0.1690 -0.0129
 1158PYPI   C2A16544   1.234  11.991   6.918  0.3964  0.1722  0.1446
 1158PYPI   D3A16545   1.038  12.286   7.200 -0.0573 -0.4271  0.0489
 1158PYPI   C4A16546   0.848  12.184   7.612  0.0813  0.1493 -0.0190
 1158PYPI   C1B16547   0.783  12.407   6.645  0.2215  0.1097 -0.0659
 1158PYPI   C2B16548   0.498  12.314   7.009  0.0783 -0.1211  0.1023
 1158PYPI   C3B16549   0.463  12.399   7.433 -0.3202 -0.0433 -0.2593
 1158PYPI   C4B16550   0.378  12.256   7.896  0.1430  0.3507  0.0469
 1159PYPI    C116551   2.307   4.551   5.788 -0.3292 -0.0852 -0.1288
 1159PYPI    C216552   2.135   4.498   6.146  0.0380 -0.2720  0.0247
 1159PYPI    C316553   2.075   4.232   5.853  0.0385 -0.3200  0.0680
 1159PYPI   PO416554   2.569   4.588   5.878  0.2234  0.0894  0.1407
 1159PYPI   GL116555   2.868   4.482   6.173 -0.3320 -0.2949 -0.2460
 1159PYPI   GL216556   3.225   4.440   6.314  0.0807 -0.1708 -0.0982
 1159PYPI   C1A16557   2.726   4.294   6.507  0.0179 -0.0587  0.1403
 1159PYPI   C2A16558   2.658   4.371   6.926  0.1343 -0.0809  0.1514
 1159PYPI   D3A16559   2.550   4.210   7.281 -0.0066  0.1640  0.0485
 1159PYPI   C4A16560   2.568   4.465   7.611 -0.0283  0.3809 -0.2886
 1159PYPI   C1B16561   3.122   4.561   6.706  0.0401  0.0905  0.0318
 1159PYPI   C2B16562   3.043   4.547   7.208 -0.1394 -0.2101  0.2929
 1159PYPI   C3B16563   3.043   4.530   7.644 -0.2346 -0.3189 -0.0174
 1159PYPI   C4B16564   2.835   4.319   8.061  0.1492 -0.1752 -0.0263
 1160PYPI    C116565   8.090   9.016   5.628 -0.0004  0.4701  0.1365
 1160PYPI    C216566   7.878   8.973   5.292  0.1896 -0.0819  0.0762
 1160PYPI    C316567   8.254   9.110   5.276  0.0745  0.2478  0.1104
 1160PYPI   PO416568   8.054   8.873   5.749 -0.0097  0.0544 -0.0900
 1160PYPI   GL116569   7.858   8.650   6.084  0.4302  0.0821  0.0708
 1160PYPI   GL216570   7.606   8.768   6.229 -0.1333  0.2757  0.0945
 1160PYPI   C1A16571   8.031   8.474   6.349  0.2099  0.0321  0.0978
 1160PYPI   C2A16572   7.928   8.370   6.848  0.2344  0.0532  0.0218
 1160PYPI   D3A16573   8.102   8.481   7.307  0.1042 -0.1932  0.0669
 1160PYPI   C4A16574   8.366   8.789   7.415  0.1238 -0.2663  0.0863
 1160PYPI   C1B16575   7.470   8.551   6.726  0.0688 -0.1689 -0.0740
 1160PYPI   C2B16576   7.291   8.493   7.126  0.3790  0.0793 -0.2469
 1160PYPI   C3B16577   7.135   8.540   7.570 -0.2197  0.0694 -0.0322
 1160PYPI   C4B16578   6.900   8.186   7.828  0.0235 -0.1901  0.2573
 1161PYPI    C116579   9.681   2.975   5.609  0.0669 -0.0588  0.0029
 1161PYPI    C216580  10.007   3.202   5.656  0.0109 -0.0171  0.1993
 1161PYPI    C316581   9.829   3.178   5.298  0.2997 -0.1370  0.0606
 1161PYPI   PO416582   9.625   2.963   5.843  0.0527  0.2577 -0.0329
 1161PYPI   GL116583   9.508   2.693   6.220 -0.2207  0.3909  0.0642
 1161PYPI   GL216584   9.705   2.658   6.474 -0.1971  0.1343 -0.0018
 1161PYPI   C1A16585   9.226   2.481   6.488 -0.0205  0.0799 -0.0911
 1161PYPI   C2A16586   9.403   2.336   6.793  0.1972 -0.0744  0.4054
 1161PYPI   D3A16587   9.608   2.094   7.126 -0.1455  0.1764 -0.2810
 1161PYPI   C4A16588   9.425   1.747   7.260 -0.1921  0.0900  0.1957
 1161PYPI   C1B16589  10.117   2.778   6.491  0.1435 -0.3119 -0.0964
 1161PYPI   C2B16590  10.275   2.780   6.887  0.0727 -0.0172  0.0393
 1161PYPI   C3B16591  10.115   3.133   7.210 -0.1952 -0.0414 -0.3912
 1161PYPI   C4B16592  10.150   3.350   7.625  0.1664  0.1598  0.0430
 1162PYPI    C116593  17.049   7.131   5.732  0.1665  0.1866 -0.1855
 1162PYPI    C216594  16.651   7.161   5.718  0.1355 -0.0189  0.1449
 1162PYPI    C316595  16.865   7.175   5.380 -0.1278  0.3635 -0.0131
 1162PYPI   PO416596  17.153   6.931   5.790  0.1763  0.5566  0.2539
 1162PYPI   GL116597  17.297   6.855   6.242  0.0156  0.1312 -0.1792
 1162PYPI   GL216598  17.600   6.741   6.124  0.3646  0.2942  0.0596
 1162PYPI   C1A16599  17.472   6.811   6.683  0.1141 -0.0793 -0.2087
 1162PYPI   C2A16600  17.313   6.852   7.060 -0.0121  0.0495  0.0049
 1162PYPI   D3A16601  17.443   6.823   7.547  0.3685 -0.0415  0.2972
 1162PYPI   C4A16602  17.250   6.727   7.834  0.0196  0.0084 -0.0918
 1162PYPI   C1B16603  17.869   6.919   6.447 -0.2438  0.4302  0.0248
 1162PYPI   C2B16604  18.187   6.932   6.689  0.2825 -0.3202  0.1424
 1162PYPI   C3B16605  18.344   6.952   7.058 -0.1762  0.3833 -0.0119
 1162PYPI   C4B16606  18.413   6.779   7.448 -0.1881  0.1122  0.1292
 1163PYPI    C116607  13.706   6.812   5.355  0.1588  0.2336 -0.2177
 1163PYPI    C216608  13.878   6.477   5.220  0.1014  0.2391 -0.3053
 1163PYPI    C316609  13.579   6.646   5.014 -0.1481  0.1164 -0.0505
 1163PYPI   PO416610  13.855   6.966   5.495 -0.1073 -0.1664 -0.2349
 1163PYPI   GL116611  13.756   7.058   5.930 -0.1606  0.0029  0.1768
 1163PYPI   GL216612  13.906   7.381   5.988 -0.2179  0.2288  0.1688
 1163PYPI   C1A16613  13.775   6.792   6.270  0.0275 -0.2234 -0.0311
 1163PYPI   C2A16614  13.729   6.349   6.428  0.1628  0.1599 -0.0819
 1163PYPI   D3A16615  13.614   5.932   6.617 -0.2529 -0.0960  0.1461
 1163PYPI   C4A16616  13.245   5.752   6.718  0.1157 -0.1120 -0.2424
 1163PYPI   C1B16617  13.779   7.301   6.385 -0.1870 -0.1610  0.2236
 1163PYPI   C2B16618  13.924   7.391   6.778 -0.1203 -0.1905  0.0958
 1163PYPI   C3B16619  13.977   7.408   7.178 -0.2619  0.1077 -0.3170
 1163PYPI   C4B16620  14.198   7.622   7.468 -0.1588  0.1916 -0.2655
 1164PYPI    C116621   3.340  15.583   5.774  0.0541  0.0584 -0.1112
 1164PYPI    C216622   3.502  15.908   5.607  0.2055  0.1275  0.1639
 1164PYPI    C316623   3.598  15.545   5.470  0.2153  0.1882  0.0072
 1164PYPI   PO416624   3.233  15.578   5.978 -0.2931  0.0407 -0.0392
 1164PYPI   GL116625   3.487  15.363   6.263  0.3387  0.0050  0.3475
 1164PYPI   GL216626   3.470  15.047   6.403 -0.0495 -0.2458  0.2036
 1164PYPI   C1A16627   3.126  15.381   6.608  0.0318 -0.1257  0.0553
 1164PYPI   C2A16628   2.825  15.633   6.693 -0.2965 -0.1009 -0.1356
 1164PYPI   D3A16629   2.833  16.128   6.933  0.1892 -0.0718  0.1792
 1164PYPI   C4A16630   2.769  16.071   7.366 -0.0281  0.5305  0.0541
 1164PYPI   C1B16631   3.333  14.852   6.778  0.3155  0.0442  0.1364
 1164PYPI   C2B16632   3.224  14.900   7.197 -0.0475  0.1077 -0.1416
 1164PYPI   C3B16633   3.107  14.851   7.681  0.3733 -0.0931  0.2367
 1164PYPI   C4B16634   3.412  14.928   8.058  0.2971 -0.0619 -0.1488
 1165PYPI    C116635   0.645  15.580   5.434  0.0480  0.0703  0.0634
 1165PYPI    C216636   0.674  15.199   5.316  0.0704  0.0236  0.2170
 1165PYPI    C316637   0.368  15.424   5.191  0.1361 -0.0009  0.0079
 1165PYPI   PO416638   0.926  15.580   5.502  0.3224  0.0603  0.0512
 1165PYPI   GL116639   1.044  15.383   5.984  0.1025 -0.1413  0.2141
 1165PYPI   GL216640   1.051  15.101   6.109 -0.2221 -0.0479  0.2970
 1165PYPI   C1A16641   0.935  15.589   6.253  0.1469  0.2173  0.1388
 1165PYPI   C2A16642   0.622  15.759   6.436  0.2378  0.2841 -0.2547
 1165PYPI   D3A16643   0.412  16.004   6.770 -0.0687 -0.1160  0.0964
 1165PYPI   C4A16644   0.035  16.304   6.699 -0.2476 -0.2205  0.1358
 1165PYPI   C1B16645   0.982  14.881   6.482  0.1315  0.2623 -0.1176
 1165PYPI   C2B16646   0.944  14.750   6.968 -0.1864 -0.3089 -0.1542
 1165PYPI   C3B16647   1.056  14.771   7.384 -0.1685  0.1803 -0.1963
 1165PYPI   C4B16648   1.021  14.884   7.811  0.0991 -0.1007 -0.2624
 1166PYPI    C116649   9.710   5.287   5.489 -0.1158  0.0739  0.0614
 1166PYPI    C216650   9.494   4.953   5.445 -0.1029  0.0723  0.0101
 1166PYPI    C316651   9.441   5.260   5.194 -0.0095  0.0527 -0.0340
 1166PYPI   PO416652   9.684   5.368   5.713  0.0486  0.1402  0.0442
 1166PYPI   GL116653   9.780   5.434   6.131 -0.0142  0.2796  0.1168
 1166PYPI   GL216654   9.556   5.533   6.351 -0.0432 -0.1814 -0.1321
 1166PYPI   C1A16655  10.051   5.634   6.498  0.3437  0.0850 -0.0841
 1166PYPI   C2A16656  10.301   5.816   6.810  0.0633  0.2343 -0.2102
 1166PYPI   D3A16657  10.459   6.083   7.149  0.2730 -0.3058  0.1272
 1166PYPI   C4A16658  10.301   6.184   7.629 -0.0025  0.2317 -0.1709
 1166PYPI   C1B16659   9.649   5.611   6.760  0.1859  0.0786  0.0031
 1166PYPI   C2B16660   9.928   5.533   6.960 -0.0552 -0.1198 -0.2902
 1166PYPI   C3B16661  10.224   5.693   7.296  0.0395 -0.1922 -0.0931
 1166PYPI   C4B16662  10.597   5.810   7.556 -0.1500  0.1375  0.1838
 1167PYPI    C116663   8.307   4.093   5.918  0.1544 -0.1006 -0.1375
 1167PYPI    C216664   8.274   3.842   5.609 -0.0368 -0.3783  0.1032
 1167PYPI    C316665   7.945   3.990   5.782  0.0703 -0.1753  0.1357
 1167PYPI   PO416666   8.559   3.941   6.079 -0.2030  0.1416  0.3555
 1167PYPI   GL116667   8.620   3.729   6.488  0.0208  0.0006 -0.0873
 1167PYPI   GL216668   8.952   3.541   6.416 -0.0277  0.2002  0.0549
 1167PYPI   C1A16669   8.545   3.450   6.836 -0.3762  0.2613 -0.0325
 1167PYPI   C2A16670   8.534   3.401   7.224 -0.0972  0.1464 -0.1571
 1167PYPI   D3A16671   8.652   3.222   7.653  0.0023 -0.1286  0.0618
 1167PYPI   C4A16672   8.353   3.112   7.928  0.1891 -0.1892 -0.3198
 1167PYPI   C1B16673   9.083   3.311   6.778  0.0786 -0.2566  0.3095
 1167PYPI   C2B16674   9.350   3.285   7.077 -0.1502  0.1200  0.1416
 1167PYPI   C3B16675   9.607   3.143   7.368  0.1299  0.1834  0.1295
 1167PYPI   C4B16676   9.788   3.107   7.838  0.1751  0.0976 -0.1248
 1168PYPI    C116677  13.021   7.312   5.258  0.1353  0.0526  0.0292
 1168PYPI    C216678  13.275   7.511   5.023  0.2763 -0.2744 -0.1016
 1168PYPI    C316679  12.931   7.374   4.873 -0.0682  0.3142  0.1156
 1168PYPI   PO416680  13.028   7.421   5.469  0.0092  0.0471 -0.1257
 1168PYPI   GL116681  13.169   7.198   5.844 -0.0638  0.2176 -0.1369
 1168PYPI   GL216682  13.330   7.360   5.928 -0.1125 -0.3066 -0.0217
 1168PYPI   C1A16683  13.260   6.902   6.254 -0.1278  0.1231  0.2053
 1168PYPI   C2A16684  13.516   7.006   6.612  0.0993  0.0506  0.0791
 1168PYPI   D3A16685  13.551   7.191   7.027 -0.0972  0.2704  0.2717
 1168PYPI   C4A16686  13.347   6.933   7.332  0.0914  0.0528  0.2338
 1168PYPI   C1B16687  13.376   7.546   6.303  0.1651 -0.1241 -0.2358
 1168PYPI   C2B16688  13.328   7.661   6.816 -0.2356 -0.1897  0.1172
 1168PYPI   C3B16689  13.416   7.605   7.280 -0.0492 -0.0112  0.2113
 1168PYPI   C4B16690  13.675   7.340   7.520 -0.2017  0.1607  0.3631
 1169PYPI    C116691   9.069   7.426   5.024  0.2043 -0.0750  0.0671
 1169PYPI    C216692   9.395   7.468   4.797  0.0735 -0.1114 -0.1298
 1169PYPI    C316693   9.046   7.368   4.629 -0.0579  0.0093  0.0679
 1169PYPI   PO416694   9.062   7.535   5.224  0.2552 -0.1793 -0.0096
 1169PYPI   GL116695   9.141   7.537   5.597 -0.0335  0.0144 -0.1108
 1169PYPI   GL216696   8.922   7.413   5.798  0.2408 -0.0387 -0.1384
 1169PYPI   C1A16697   9.427   7.403   5.966  0.1737  0.2853 -0.2288
 1169PYPI   C2A16698   9.381   7.432   6.412 -0.2664  0.1305 -0.3886
 1169PYPI   D3A16699   9.278   7.347   6.802  0.2821 -0.1604 -0.2554
 1169PYPI   C4A16700   9.167   7.173   7.126  0.1974 -0.1534  0.1463
 1169PYPI   C1B16701   8.939   7.346   6.239 -0.2737 -0.1815  0.1997
 1169PYPI   C2B16702   8.829   7.251   6.642  0.0045 -0.2505 -0.1583
 1169PYPI   C3B16703   8.719   7.067   6.829  0.0083  0.0231  0.0214
 1169PYPI   C4B16704   8.674   7.024   7.220  0.0050 -0.2941 -0.0682
 1170PYPI    C116705  14.093   7.970   5.854  0.2157 -0.0023 -0.1980
 1170PYPI    C216706  14.128   7.929   5.457 -0.4527 -0.0513 -0.2630
 1170PYPI    C316707  13.973   8.264   5.611  0.1190  0.1116 -0.0140
 1170PYPI   PO416708  14.379   7.981   5.981  0.2925  0.0395  0.1502
 1170PYPI   GL116709  14.803   8.183   6.122  0.1423 -0.0840 -0.0242
 1170PYPI   GL216710  14.904   7.861   6.168 -0.0519  0.1203 -0.0520
 1170PYPI   C1A16711  14.869   8.558   6.441  0.2028 -0.0317  0.2052
 1170PYPI   C2A16712  14.912   8.971   6.242 -0.3708  0.4272  0.3710
 1170PYPI   D3A16713  14.604   9.277   6.210  0.2074 -0.3568  0.1128
 1170PYPI   C4A16714  14.536   9.210   6.703 -0.2764 -0.0692 -0.1548
 1170PYPI   C1B16715  14.977   8.038   6.571  0.3064 -0.1289  0.0431
 1170PYPI   C2B16716  15.182   8.146   6.950  0.1617  0.0980  0.2315
 1170PYPI   C3B16717  15.232   8.226   7.355  0.1420 -0.1202  0.0700
 1170PYPI   C4B16718  15.191   8.487   7.700  0.0863 -0.1097 -0.2367
 1171PYPI    C116719   5.684   1.160   6.353  0.0831 -0.2524  0.2535
 1171PYPI    C216720   5.399   1.288   6.603 -0.1883 -0.0607 -0.1443
 1171PYPI    C316721   5.302   1.060   6.289  0.1014 -0.0191 -0.2663
 1171PYPI   PO416722   5.840   1.092   6.494 -0.1774  0.2411  0.0162
 1171PYPI   GL116723   5.853   0.918   6.824 -0.1562  0.2260 -0.3017
 1171PYPI   GL216724   5.477   0.945   6.956 -0.0925  0.1711  0.1403
 1171PYPI   C1A16725   5.720   1.321   7.144 -0.0694  0.1206  0.0758
 1171PYPI   C2A16726   5.650   1.460   7.574 -0.1651  0.2725  0.3096
 1171PYPI   D3A16727   5.435   1.503   7.973 -0.0697 -0.1056 -0.1576
 1171PYPI   C4A16728   5.033   1.503   8.012 -0.2759  0.1571 -0.0698
 1171PYPI   C1B16729   5.653   0.853   7.316 -0.0920  0.1978 -0.3477
 1171PYPI   C2B16730   5.643   0.977   7.693 -0.0753 -0.1821  0.1233
 1171PYPI   C3B16731   5.757   1.142   7.982 -0.1898  0.4939  0.2683
 1171PYPI   C4B16732   6.083   0.912   8.069  0.1640 -0.1299 -0.2966
 1172PYPI    C116733   1.545   1.616   5.432  0.0229 -0.1166  0.0661
 1172PYPI    C216734   1.225   1.732   5.220  0.0343  0.0400  0.1333
 1172PYPI    C316735   1.536   1.561   5.036 -0.0595 -0.0504  0.0583
 1172PYPI   PO416736   1.516   1.472   5.779 -0.0362  0.0544  0.0249
 1172PYPI   GL116737   1.531   1.685   6.182 -0.1124 -0.3032  0.0754
 1172PYPI   GL216738   1.437   1.835   6.403 -0.0360  0.0059  0.2265
 1172PYPI   C1A16739   1.404   1.445   6.700  0.1871  0.2215 -0.1459
 1172PYPI   C2A16740   1.367   1.460   7.064  0.0372  0.1197 -0.2464
 1172PYPI   D3A16741   1.246   1.432   7.547 -0.0874 -0.1549  0.4359
 1172PYPI   C4A16742   0.946   1.468   7.826 -0.1411  0.2006  0.0109
 1172PYPI   C1B16743   1.621   1.914   6.765  0.3028  0.0960  0.0967
 1172PYPI   C2B16744   1.678   1.826   7.257 -0.2105  0.2879 -0.1201
 1172PYPI   C3B16745   1.754   1.617   7.631  0.3061 -0.1665 -0.2227
 1172PYPI   C4B16746   1.896   1.660   7.999 -0.4419 -0.0801 -0.5622
 1173PYPI    C116747  16.221   1.167   5.479 -0.1923  0.0165 -0.0601
 1173PYPI    C216748  16.568   1.246   5.297  0.0180 -0.2862  0.1983
 1173PYPI    C316749  16.224   1.280   5.095  0.1972 -0.0156 -0.0699
 1173PYPI   PO416750  16.341   0.909   5.669 -0.0297 -0.1992 -0.0215
 1173PYPI   GL116751  16.072   0.752   5.916 -0.0177  0.0476 -0.1945
 1173PYPI   GL216752  15.822   0.586   5.912  0.0629  0.1122 -0.0139
 1173PYPI   C1A16753  15.952   1.046   6.201  0.1481  0.3356  0.1662
 1173PYPI   C2A16754  16.154   1.223   6.432  0.0254  0.3178 -0.0024
 1173PYPI   D3A16755  16.094   1.237   6.835  0.1370 -0.4079  0.1221
 1173PYPI   C4A16756  15.982   1.273   7.209 -0.0071  0.0332  0.1135
 1173PYPI   C1B16757  15.636   0.662   6.272 -0.1085  0.0731 -0.1603
 1173PYPI   C2B16758  15.214   0.608   6.448 -0.0644 -0.0050 -0.1064
 1173PYPI   C3B16759  14.862   0.491   6.736 -0.1120  0.1316 -0.2349
 1173PYPI   C4B16760  14.544   0.256   6.922  0.0353  0.0524 -0.1903
 1174PYPI    C116761   8.448  10.186   5.784  0.0066  0.0815  0.1653
 1174PYPI    C216762   8.603  10.188   5.416  0.0668  0.1392  0.1907
 1174PYPI    C316763   8.239  10.036   5.479  0.0049  0.2424  0.0863
 1174PYPI   PO416764   8.729  10.083   5.951  0.0739 -0.4299 -0.3115
 1174PYPI   GL116765   9.017  10.092   6.264  0.0042 -0.1405 -0.1483
 1174PYPI   GL216766   8.944   9.809   6.446 -0.0774  0.1534  0.1175
 1174PYPI   C1A16767   9.045  10.217   6.670 -0.0769  0.0714  0.1939
 1174PYPI   C2A16768   9.057  10.239   7.139 -0.1042 -0.1110 -0.0638
 1174PYPI   D3A16769   9.088  10.242   7.535  0.2419  0.1597 -0.0810
 1174PYPI   C4A16770   8.806   9.859   7.613 -0.0921 -0.0537 -0.1845
 1174PYPI   C1B16771   8.899   9.802   6.886 -0.1031 -0.0029 -0.2253
 1174PYPI   C2B16772   9.146   9.763   7.256 -0.1645  0.0840  0.2061
 1174PYPI   C3B16773   9.150   9.460   7.576  0.1655 -0.0875  0.2370
 1174PYPI   C4B16774   9.245   9.440   8.011 -0.3362  0.0982  0.0989
 1175PYPI    C116775   0.846   1.111   5.780  0.0915 -0.1279 -0.1469
 1175PYPI    C216776   1.235   1.054   5.703  0.1273 -0.0748 -0.0085
 1175PYPI    C316777   1.037   1.353   5.526  0.2034  0.0324  0.0856
 1175PYPI   PO416778   0.825   1.133   5.980  0.0525 -0.0980 -0.1970
 1175PYPI   GL116779   0.563   0.925   6.300  0.1559 -0.0554  0.0310
 1175PYPI   GL216780   0.739   0.722   6.371 -0.0428  0.4530 -0.1820
 1175PYPI   C1A16781   0.440   1.055   6.646  0.1566 -0.0658 -0.0309
 1175PYPI   C2A16782   0.403   1.273   7.138 -0.1592  0.1968  0.1187
 1175PYPI   D3A16783   0.540   1.142   7.605 -0.0303  0.0248  0.0817
 1175PYPI   C4A16784   0.512   0.720   7.806  0.1543  0.3192 -0.3592
 1175PYPI   C1B16785   0.759   0.715   6.808 -0.2275  0.0286 -0.0846
 1175PYPI   C2B16786   0.783   0.661   7.250  0.2564 -0.2914 -0.2698
 1175PYPI   C3B16787   0.828   0.472   7.565  0.1144 -0.2447 -0.1305
 1175PYPI   C4B16788   0.925   0.394   7.943 -0.1865 -0.1624 -0.0426
 1176PYPI    C116789   2.276  17.919   5.738 -0.0438  0.0553 -0.0295
 1176PYPI    C216790   2.619  18.023   5.916 -0.0185  0.2256 -0.1741
 1176PYPI    C316791   2.561  17.645   5.798 -0.0200  0.1191  0.1562
 1176PYPI   PO416792   2.053  17.913   5.993 -0.3497 -0.0049 -0.1510
 1176PYPI   GL116793   1.804  17.700   6.338  0.1777  0.0193 -0.1571
 1176PYPI   GL216794   1.519  17.833   6.258 -0.0873  0.1214  0.1489
 1176PYPI   C1A16795   1.815  17.617   6.796 -0.4723  0.2174  0.0381
 1176PYPI   C2A16796   2.024  17.749   7.058 -0.0102 -0.1645  0.1549
 1176PYPI   D3A16797   2.162  17.954   7.443  0.1847 -0.2282  0.2100
 1176PYPI   C4A16798   2.058  17.739   7.700 -0.3185  0.0176 -0.1107
 1176PYPI   C1B16799   1.422  17.879   6.650 -0.0351  0.1728  0.0474
 1176PYPI   C2B16800   1.438  17.795   7.060  0.0885  0.0532  0.0796
 1176PYPI   C3B16801   1.529  17.746   7.447 -0.0349  0.1483 -0.0983
 1176PYPI   C4B16802   1.506  17.457   7.809  0.1631  0.1460  0.2468
 1177PYPI    C116803  11.135  15.418   5.849 -0.1024 -0.1288 -0.1502
 1177PYPI    C216804  11.010  15.052   5.949  0.2922 -0.1756  0.1982
 1177PYPI    C316805  11.207  15.110   5.605 -0.2019 -0.1947 -0.0968
 1177PYPI   PO416806  11.251  15.576   6.160  0.1185 -0.3240 -0.0786
 1177PYPI   GL116807  11.296  15.747   6.503  0.2562  0.2573 -0.1008
 1177PYPI   GL216808  10.978  15.963   6.320  0.1133 -0.0145  0.1444
 1177PYPI   C1A16809  11.498  15.638   6.852  0.0068  0.2004 -0.0820
 1177PYPI   C2A16810  11.515  15.518   7.313  0.0619 -0.0895  0.1802
 1177PYPI   D3A16811  11.351  15.129   7.584 -0.3528 -0.1102 -0.0774
 1177PYPI   C4A16812  11.516  15.105   7.989  0.2737  0.0634 -0.0974
 1177PYPI   C1B16813  10.926  16.189   6.668 -0.1017  0.1418 -0.1312
 1177PYPI   C2B16814  10.851  16.293   7.129  0.0961  0.0049 -0.1212
 1177PYPI   C3B16815  10.899  16.252   7.577  0.0990 -0.1991 -0.3291
 1177PYPI   C4B16816  10.718  16.137   7.998 -0.1463  0.0047  0.1457
 1178PYPI    C116817   6.498  15.524   6.356 -0.1013  0.0268 -0.1200
 1178PYPI    C216818   6.617  15.873   6.512 -0.2202 -0.1052  0.2767
 1178PYPI    C316819   6.395  15.868   6.179 -0.0208  0.1851  0.1353
 1178PYPI   PO416820   6.720  15.385   6.430 -0.0499 -0.1931 -0.0534
 1178PYPI   GL116821   6.968  15.367   6.690  0.0210  0.0620 -0.0364
 1178PYPI   GL216822   7.023  15.054   6.592 -0.0388 -0.4118 -0.4452
 1178PYPI   C1A16823   6.757  15.319   7.132  0.0589 -0.0207  0.1856
 1178PYPI   C2A16824   6.827  15.337   7.567 -0.0695  0.1875 -0.2736
 1178PYPI   D3A16825   6.648  15.588   7.881 -0.1095 -0.1958 -0.1292
 1178PYPI   C4A16826   6.875  15.690   8.215  0.1788 -0.1422 -0.0130
 1178PYPI   C1B16827   7.005  14.860   7.033  0.0171 -0.1897  0.1421
 1178PYPI   C2B16828   7.046  14.902   7.497  0.1479  0.0991  0.2119
 1178PYPI   C3B16829   7.154  14.729   7.792 -0.1021  0.0420  0.1056
 1178PYPI   C4B16830   7.438  14.881   8.021  0.0510  0.1184 -0.0982
 1179PYPI    C116831   8.104  12.830   6.178 -0.2089 -0.0203 -0.1054
 1179PYPI    C216832   7.737  12.683   6.238 -0.2476  0.0556 -0.1551
 1179PYPI    C316833   7.913  12.642   5.881 -0.2486  0.1082 -0.1617
 1179PYPI   PO416834   8.107  13.073   6.191  0.1329  0.0516 -0.2663
 1179PYPI   GL116835   8.159  13.373   6.467 -0.2172 -0.1654 -0.1222
 1179PYPI   GL216836   8.133  13.691   6.421  0.2166 -0.3497 -0.0524
 1179PYPI   C1A16837   8.474  13.402   6.753 -0.1389  0.0058 -0.0740
 1179PYPI   C2A16838   8.539  13.558   7.110  0.1702 -0.3092  0.3444
 1179PYPI   D3A16839   8.632  13.555   7.550 -0.1288  0.2226  0.0416
 1179PYPI   C4A16840   8.430  13.476   7.819  0.0174 -0.1556  0.0443
 1179PYPI   C1B16841   8.172  13.840   6.824 -0.0745  0.1864  0.1867
 1179PYPI   C2B16842   8.271  14.037   7.139  0.2070  0.4669  0.0498
 1179PYPI   C3B16843   8.310  13.993   7.536 -0.2140  0.0662 -0.0288
 1179PYPI   C4B16844   8.447  13.917   8.002  0.4274 -0.0191 -0.0160
 1180ERGO   ROH16845  10.791   3.940   6.340  0.1131  0.1475 -0.0217
 1180ERGO    R116846  10.758   3.800   6.584 -0.0671  0.3623  0.0830
 1180ERGO    R216847  10.956   3.639   6.690 -0.3640 -0.0516  0.0470
 1180ERGO    R316848  10.919   3.795   6.910  0.1403  0.1815 -0.0208
 1180ERGO    R416849  10.984   3.530   7.017 -0.4221  0.0874  0.0985
 1180ERGO    R516850  10.810   3.651   7.067 -0.1091  0.5359  0.1382
 1180ERGO    C116851  10.966   3.613   7.413  0.0176  0.3872  0.0648
 1180ERGO    C216852  11.082   3.456   7.665  0.2932  0.1134 -0.1305
 1181ERGO   ROH16853   8.441  10.014   6.408 -0.0582 -0.0397  0.0394
 1181ERGO    R116854   8.557  10.133   6.637  0.0484 -0.1599  0.0488
 1181ERGO    R216855   8.411  10.284   6.817  0.2114  0.0862 -0.0240
 1181ERGO    R316856   8.515  10.109   6.997 -0.0892 -0.0274  0.0440
 1181ERGO    R416857   8.397  10.324   7.160  0.3035  0.2832 -0.0423
 1181ERGO    R516858   8.601  10.249   7.172  0.1817 -0.0905 -0.0286
 1181ERGO    C116859   8.485  10.183   7.529  0.0749  0.2912  0.0108
 1181ERGO    C216860   8.674  10.262   7.791 -0.0386  0.1028 -0.1480
 1182ERGO   ROH16861   5.901   9.137   6.370  0.0785 -0.1811 -0.1548
 1182ERGO    R116862   5.994   8.977   6.584 -0.1210 -0.2283 -0.1036
 1182ERGO    R216863   6.054   9.082   6.832  0.0150 -0.2212 -0.1489
 1182ERGO    R316864   5.880   8.892   6.919 -0.2221  0.0241 -0.0687
 1182ERGO    R416865   6.008   8.993   7.163  0.1973 -0.2772 -0.1361
 1182ERGO    R516866   5.995   8.784   7.100 -0.2085 -0.2433 -0.2219
 1182ERGO    C116867   5.818   8.763   7.437  0.0809 -0.0796 -0.0532
 1182ERGO    C216868   5.699   8.833   7.819 -0.2361 -0.0343  0.2420
 1183ERGO   ROH16869   6.550  15.007   6.813  0.1327 -0.0298  0.0065
 1183ERGO    R116870   6.446  14.947   7.069  0.0113 -0.0960 -0.0584
 1183ERGO    R216871   6.554  14.753   7.233  0.0937  0.0412  0.0454
 1183ERGO    R316872   6.565  14.956   7.413 -0.2415  0.0798  0.0291
 1183ERGO    R416873   6.605  14.713   7.573  0.1148  0.1406  0.0545
 1183ERGO    R516874   6.457  14.869   7.608 -0.1360 -0.0782  0.0232
 1183ERGO    C116875   6.645  14.882   7.939 -0.1875  0.2349  0.0444
 1183ERGO    C216876   6.857  14.779   8.220 -0.1613  0.1531 -0.0519
 1184ERGO   ROH16877   2.866  16.834   6.391 -0.0863  0.1410  0.2040
 1184ERGO    R116878   2.755  16.846   6.651 -0.0398  0.0398  0.2299
 1184ERGO    R216879   2.681  16.620   6.792  0.0366 -0.0221  0.1810
 1184ERGO    R316880   2.845  16.723   6.982  0.0532 -0.0390  0.1746
 1184ERGO    R416881   2.644  16.570   7.132  0.0909 -0.0690  0.1794
 1184ERGO    R516882   2.698  16.779   7.163  0.0795 -0.0747  0.2022
 1184ERGO    C116883   2.777  16.639   7.508  0.1382 -0.1124  0.1726
 1184ERGO    C216884   2.731  16.641   7.845  0.0186  0.0385 -0.1973
 1185ERGO   ROH16885   9.428   0.582   6.499  0.0841 -0.0150 -0.0700
 1185ERGO    R116886   9.605   0.582   6.720  0.1207  0.0337 -0.0990
 1185ERGO    R216887   9.642   0.804   6.881  0.1539  0.0726 -0.1583
 1185ERGO    R316888   9.579   0.630   7.080  0.1809  0.1224 -0.1063
 1185ERGO    R416889   9.610   0.889   7.214  0.2775  0.1396 -0.1631
 1185ERGO    R516890   9.711   0.703   7.266  0.2549  0.1287 -0.1615
 1185ERGO    C116891   9.533   0.775   7.595  0.3749  0.2253 -0.1172
 1185ERGO    C216892   9.498   0.781   7.932  0.3051  0.2650  0.1485
 1186ERGO   ROH16893   0.659   0.080   6.274 -0.1298 -0.1588  0.1583
 1186ERGO    R116894   0.746   0.159   6.531 -0.0229 -0.1129  0.1096
 1186ERGO    R216895   0.579   0.279   6.715  0.0342 -0.1333  0.1844
 1186ERGO    R316896   0.663   0.076   6.875  0.1614 -0.1024  0.1557
 1186ERGO    R416897   0.509   0.252   7.053 -0.1122 -0.3375  0.1389
 1186ERGO    R516898   0.713   0.183   7.084 -0.0606 -0.1322  0.2206
 1186ERGO    C116899   0.548   0.046   7.400 -0.0781 -0.4273  0.0855
 1186ERGO    C216900   0.459   0.131   7.760  0.0975 -0.0973 -0.0550
 1187ERGO   ROH16901   9.175   6.874   5.622  0.1942  0.2038  0.0301
 1187ERGO    R116902   9.105   6.927   5.891  0.2899  0.2933  0.0378
 1187ERGO    R216903   8.974   6.742   6.050 -0.1561  0.5411 -0.0262
 1187ERGO    R316904   9.184   6.786   6.217 -0.0580  0.0131  0.0073
 1187ERGO    R416905   8.956   6.737   6.395 -0.1843  0.4282 -0.0287
 1187ERGO    R516906   9.090   6.909   6.400  0.1968  0.1443  0.0554
 1187ERGO    C116907   9.143   6.776   6.753 -0.1087 -0.1331  0.0014
 1187ERGO    C216908   9.050   6.655   6.981  0.2587 -0.1307 -0.2981
 1188ERGO   ROH16909   3.405   1.887   6.704 -0.0177 -0.0312 -0.0981
 1188ERGO    R116910   3.279   1.861   6.956 -0.0094 -0.1137 -0.1030
 1188ERGO    R216911   3.204   1.616   7.060  0.0783 -0.1535 -0.1418
 1188ERGO    R316912   3.353   1.697   7.272  0.0458 -0.1342 -0.1251
 1188ERGO    R416913   3.118   1.570   7.392 -0.0712  0.0393 -0.1514
 1188ERGO    R516914   3.193   1.770   7.434  0.0196  0.0245 -0.2160
 1188ERGO    C116915   3.208   1.618   7.784 -0.1888  0.1697 -0.1412
 1188ERGO    C216916   3.055   1.599   8.156 -0.0358  0.3360  0.2747
 1189ERGO   ROH16917   3.883  15.698   6.450 -0.2929  0.0013 -0.1234
 1189ERGO    R116918   3.713  15.677   6.676 -0.2450  0.0058 -0.0853
 1189ERGO    R216919   3.601  15.437   6.755 -0.2149  0.0013 -0.0436
 1189ERGO    R316920   3.717  15.500   6.994 -0.1654  0.0266 -0.0752
 1189ERGO    R416921   3.471  15.356   7.065 -0.2435  0.1974 -0.0036
 1189ERGO    R516922   3.532  15.552   7.137 -0.1251  0.1890 -0.0839
 1189ERGO    C116923   3.503  15.366   7.469 -0.2136  0.3354 -0.0101
 1189ERGO    C216924   3.552  15.333   7.845 -0.0199  0.0490 -0.2604
 1190ERGO   ROH16925  16.840   2.471   6.221 -0.0207 -0.2864 -0.1714
 1190ERGO    R116926  16.870   2.453   6.502 -0.0234 -0.1530 -0.1625
 1190ERGO    R216927  16.961   2.225   6.628 -0.0397 -0.0981 -0.0522
 1190ERGO    R316928  17.143   2.396   6.736 -0.0288 -0.0584 -0.1323
 1190ERGO    R416929  17.096   2.196   6.945 -0.0336  0.0340 -0.0421
 1190ERGO    R516930  17.080   2.413   6.966 -0.0232  0.0454 -0.1369
 1190ERGO    C116931  17.344   2.340   7.231 -0.0197  0.1481 -0.1114
 1190ERGO    C216932  17.596   2.134   7.341 -0.1965 -0.0274  0.1119
 1191ERGO   ROH16933  13.651  12.492   6.066  0.1735  0.1538 -0.2003
 1191ERGO    R116934  13.689  12.438   6.341  0.1868  0.1009 -0.2131
 1191ERGO    R216935  13.876  12.572   6.494  0.0509  0.2166 -0.1516
 1191ERGO    R316936  13.662  12.624   6.653 -0.0135 -0.0197 -0.1553
 1191ERGO    R416937  13.894  12.715   6.808 -0.0986  0.1205 -0.0978
 1191ERGO    R516938  13.739  12.577   6.875  0.0065 -0.0367 -0.1628
 1191ERGO    C116939  13.702  12.848   7.140 -0.2461 -0.1572 -0.0699
 1191ERGO    C216940  13.536  12.886   7.440  0.2250 -0.0557 -0.1141
 1192ERGO   ROH16941   7.430  11.313   6.473  0.1600 -0.2234  0.0848
 1192ERGO    R116942   7.470  11.274   6.751  0.1272 -0.0930  0.1079
 1192ERGO    R216943   7.510  11.484   6.926 -0.0061 -0.0048  0.0302
 1192ERGO    R316944   7.302  11.371   7.059  0.0242 -0.0509  0.0396
 1192ERGO    R416945   7.474  11.480   7.269  0.0042  0.0058  0.0318
 1192ERGO    R516946   7.402  11.275   7.254  0.0550 -0.0158  0.0434
 1192ERGO    C116947   7.258  11.371   7.595  0.0386 -0.0314  0.0416
 1192ERGO    C216948   7.476  11.524   7.901  0.2421  0.2620  0.1654
 1193ERGO   ROH16949  17.425   6.334   6.366 -0.0154 -0.0480 -0.0315
 1193ERGO    R116950  17.450   6.215   6.622  0.1476 -0.0701 -0.0569
 1193ERGO    R216951  17.554   6.349   6.839  0.0667 -0.0094 -0.0565
 1193ERGO    R316952  17.320   6.277   6.956  0.1562 -0.2492 -0.0192
 1193ERGO    R416953  17.488   6.369   7.178  0.0338  0.1129 -0.0693
 1193ERGO    R516954  17.385   6.177   7.164  0.2860 -0.0363  0.0456
 1193ERGO    C116955  17.229   6.312   7.485  0.0989 -0.0410 -0.0416
 1193ERGO    C216956  17.034   6.239   7.787  0.0396 -0.0609  0.1634
 1194ERGO   ROH16957  10.509   7.642   5.886  0.1481  0.1711 -0.0858
 1194ERGO    R116958  10.424   7.465   6.090 -0.0243  0.1904 -0.1397
 1194ERGO    R216959  10.579   7.409   6.312 -0.0765 -0.0288 -0.1584
 1194ERGO    R316960  10.356   7.487   6.447 -0.0018  0.1481 -0.1323
 1194ERGO    R416961  10.540   7.397   6.656 -0.1153 -0.1867 -0.1672
 1194ERGO    R516962  10.336   7.329   6.626 -0.1948  0.0623 -0.2254
 1194ERGO    C116963  10.308   7.462   6.982 -0.0677 -0.1125 -0.1477
 1194ERGO    C216964  10.274   7.640   7.294  0.0623  0.1188  0.2503
 1195ERGO   ROH16965   0.983   2.015   6.201 -0.1199 -0.0263 -0.1125
 1195ERGO    R116966   0.926   2.054   6.476 -0.1039  0.0252 -0.1171
 1195ERGO    R216967   0.891   1.843   6.652 -0.0979  0.0603 -0.0792
 1195ERGO    R316968   1.085   1.971   6.793 -0.0891  0.0816 -0.1085
 1195ERGO    R416969   0.965   1.785   6.984 -0.0235  0.0420 -0.0981
 1195ERGO    R516970   0.991   1.999   7.011 -0.0531  0.0477 -0.0857
 1195ERGO    C116971   1.190   1.871   7.310  0.0280  0.0513 -0.1365
 1195ERGO    C216972   1.287   1.959   7.637 -0.2540 -0.0975  0.2107
 1196ERGO   ROH16973  12.365  15.274   6.543  0.0299 -0.1358  0.1241
 1196ERGO    R116974  12.361  15.341   6.818  0.0786 -0.0041  0.0931
 1196ERGO    R216975  12.295  15.159   7.015 -0.0415  0.1312  0.1790
 1196ERGO    R316976  12.534  15.234   7.120  0.0111  0.0199  0.1407
 1196ERGO    R416977  12.341  15.274   7.338  0.0711  0.0658  0.1866
 1196ERGO    R516978  12.481  15.422   7.260  0.1149  0.0215  0.1792
 1196ERGO    C116979  12.593  15.411   7.624  0.1862 -0.0768  0.1551
 1196ERGO    C216980  12.684  15.398   7.955  0.2168 -0.0323 -0.1114
 1197ERGO   ROH16981   9.240  11.124   6.381  0.0354 -0.1504  0.0895
 1197ERGO    R116982   9.497  11.128   6.499  0.0383  0.0046  0.0858
 1197ERGO    R216983   9.606  11.356   6.612 -0.0728  0.0898  0.0487
 1197ERGO    R316984   9.636  11.195   6.829  0.0015  0.1375  0.0713
 1197ERGO    R416985   9.827  11.412   6.872  0.0541  0.0979 -0.0623
 1197ERGO    R516986   9.870  11.199   6.875  0.0154  0.1009 -0.0329
 1197ERGO    C116987   9.983  11.295   7.227  0.1977  0.1473 -0.1057
 1197ERGO    C216988  10.133  11.115   7.548  0.0114  0.1298 -0.2601
 1198ERGO   ROH16989   4.161  12.519   6.244 -0.0424  0.0060 -0.0166
 1198ERGO    R116990   4.258  12.593   6.499 -0.0227  0.0695 -0.0420
 1198ERGO    R216991   4.091  12.670   6.705 -0.0205 -0.0376  0.0017
 1198ERGO    R316992   4.221  12.473   6.841  0.1430  0.0443 -0.0320
 1198ERGO    R416993   4.030  12.583   7.034  0.0258 -0.1709 -0.0240
 1198ERGO    R516994   4.244  12.560   7.063  0.0454  0.0137 -0.0095
 1198ERGO    C116995   4.115  12.348   7.353  0.2064 -0.1715 -0.0706
 1198ERGO    C216996   4.062  12.201   7.722 -0.4507  0.2493 -0.1590
 1199ERGO   ROH16997  10.757  16.361   6.190 -0.2354 -0.0080  0.0796
 1199ERGO    R116998  10.666  16.555   6.375 -0.1430 -0.0131  0.1309
 1199ERGO    R216999  10.493  16.493   6.582 -0.0674 -0.0112  0.1938
 1199ERGO    R317000  10.687  16.608   6.734  0.0039 -0.0423  0.1275
 1199ERGO    R417001  10.472  16.543   6.923 -0.0103  0.1331  0.1771
 1199ERGO    R517002  10.567  16.738   6.896  0.0803  0.0794  0.0896
 1199ERGO    C117003  10.642  16.679   7.265  0.0899  0.1881  0.1051
 1199ERGO    C217004  10.680  16.793   7.497 -0.1245 -0.2188  0.1080
 1200ERGO   ROH17005   5.564   3.334   6.516 -0.0008 -0.0892  0.0463
 1200ERGO    R117006   5.462   3.294   6.777 -0.1184  0.0229  0.0190
 1200ERGO    R217007   5.616   3.195   6.984 -0.2574 -0.0578  0.0891
 1200ERGO    R317008   5.534   3.421   7.110 -0.1392  0.0230  0.0228
 1200ERGO    R417009   5.632   3.248   7.325 -0.0561  0.1143  0.0544
 1200ERGO    R517010   5.437   3.343   7.314 -0.0407  0.1484  0.1169
 1200ERGO    C117011   5.563   3.491   7.642  0.1721  0.2904 -0.0280
 1200ERGO    C217012   5.488   3.615   7.959 -0.3455 -0.0231 -0.0065
 1201ERGO   ROH17013   5.089   4.082   6.464  0.1840  0.3063 -0.1581
 1201ERGO    R117014   5.234   4.128   6.703  0.0863  0.1382 -0.0643
 1201ERGO    R217015   5.211   4.362   6.848  0.0666  0.0552  0.0627
 1201ERGO    R317016   5.155   4.192   7.052 -0.0559 -0.0532 -0.0585
 1201ERGO    R417017   5.196   4.453   7.181  0.0103 -0.1370  0.1138
 1201ERGO    R517018   5.297   4.266   7.231 -0.0727 -0.2123  0.0275
 1201ERGO    C117019   5.134   4.347   7.567 -0.1376 -0.3505  0.0298
 1201ERGO    C217020   5.306   4.438   7.820  0.0809 -0.2394 -0.1858
 1202ERGO   ROH17021  16.707  16.984   6.981  0.0323 -0.1062 -0.1324
 1202ERGO    R117022  16.605  16.932   7.240 -0.0145 -0.0484 -0.1383
 1202ERGO    R217023  16.738  17.009   7.469  0.0092 -0.1110 -0.1281
 1202ERGO    R317024  16.501  17.129   7.528  0.0661  0.0136 -0.1516
 1202ERGO    R417025  16.578  16.990   7.775 -0.1698 -0.2604 -0.2294
 1202ERGO    R517026  16.388  16.971   7.669 -0.1277 -0.0273 -0.3493
 1202ERGO    C117027  16.262  17.092   8.008 -0.2207 -0.2305 -0.3104
 1202ERGO    C217028  16.265  17.262   8.300 -0.3427  0.0099 -0.0470
 1203ERGO   ROH17029  10.013  15.508   6.696 -0.1695 -0.4425  0.0746
 1203ERGO    R117030   9.993  15.509   6.979 -0.1230 -0.3376  0.0794
 1203ERGO    R217031  10.102  15.709   7.135 -0.0078 -0.3260 -0.0014
 1203ERGO    R317032   9.849  15.726   7.233  0.0127 -0.1856  0.0244
 1203ERGO    R417033  10.021  15.819   7.452  0.0719 -0.2949  0.0074
 1203ERGO    R517034   9.870  15.662   7.462 -0.0116 -0.2035  0.0153
 1203ERGO    C117035   9.736  15.900   7.729  0.1375 -0.1450  0.0369
 1203ERGO    C217036   9.656  16.077   7.865  0.1045  0.2680  0.0114
 1204ERGO   ROH17037  16.010   3.336   6.025 -0.1008 -0.0869 -0.1371
 1204ERGO    R117038  15.840   3.392   6.244  0.1798 -0.0489  0.0772
 1204ERGO    R217039  15.589   3.278   6.269 -0.0822  0.4968  0.0430
 1204ERGO    R317040  15.684   3.202   6.512 -0.0828 -0.1507 -0.1422
 1204ERGO    R417041  15.392   3.190   6.539 -0.1110  0.5009  0.0242
 1204ERGO    R517042  15.530   3.297   6.669  0.2473 -0.0407  0.1272
 1204ERGO    C117043  15.367   3.066   6.924 -0.1283 -0.1046 -0.1607
 1204ERGO    C217044  15.258   3.049   7.214  0.1122  0.0291  0.3140
 1205ERGO   ROH17045  15.302   7.524   6.261 -0.0315  0.1041  0.1022
 1205ERGO    R117046  15.224   7.523   6.533  0.0630  0.0035  0.1299
 1205ERGO    R217047  15.368   7.392   6.729  0.1467 -0.0461  0.0363
 1205ERGO    R317048  15.365   7.636   6.849  0.1596 -0.0866  0.1197
 1205ERGO    R417049  15.331   7.444   7.069  0.0473 -0.1553  0.0428
 1205ERGO    R517050  15.202   7.614   7.023  0.0981 -0.1123  0.0591
 1205ERGO    C117051  15.307   7.704   7.379  0.0017 -0.2569  0.1249
 1205ERGO    C217052  15.116   7.697   7.743  0.0121 -0.1305  0.2414
 1206ERGO   ROH17053  15.689   9.576   6.049  0.1262 -0.0081 -0.0568
 1206ERGO    R117054  15.744   9.450   6.297 -0.0154  0.1029  0.0315
 1206ERGO    R217055  15.983   9.321   6.348 -0.1709 -0.1512  0.1166
 1206ERGO    R317056  15.989   9.487   6.563  0.0402 -0.0055 -0.0063
 1206ERGO    R417057  16.064   9.225   6.670  0.0166  0.0487  0.1322
 1206ERGO    R517058  15.905   9.355   6.743  0.1190  0.1554  0.1484
 1206ERGO    C117059  16.116   9.325   7.059  0.3238  0.3021  0.0258
 1206ERGO    C217060  16.084   9.335   7.337 -0.1144  0.1316  0.1431
 1207ERGO   ROH17061   1.578   2.804   6.457 -0.0564 -0.1299 -0.0787
 1207ERGO    R117062   1.478   2.741   6.715 -0.0275 -0.1273 -0.0670
 1207ERGO    R217063   1.633   2.759   6.942 -0.0252 -0.0489 -0.0754
 1207ERGO    R317064   1.430   2.917   7.029 -0.0716 -0.1014 -0.0880
 1207ERGO    R417065   1.611   2.895   7.259  0.0680  0.1810 -0.1651
 1207ERGO    R517066   1.397   2.851   7.257  0.0907  0.0524 -0.0174
 1207ERGO    C117067   1.406   3.122   7.526  0.0787  0.2656 -0.2291
 1207ERGO    C217068   1.581   3.194   7.758  0.0680 -0.2515 -0.2300
 1208ERGO   ROH17069   1.505  16.249   6.280  0.0807  0.0082  0.0518
 1208ERGO    R117070   1.495  16.339   6.548  0.1267  0.0294  0.0469
 1208ERGO    R217071   1.299  16.257   6.725  0.1293  0.0775  0.0761
 1208ERGO    R317072   1.513  16.188   6.879  0.1351  0.0482  0.0541
 1208ERGO    R417073   1.286  16.192   7.065  0.1067 -0.2173  0.0211
 1208ERGO    R517074   1.475  16.299   7.087  0.0500 -0.1480  0.1428
 1208ERGO    C117075   1.479  16.089   7.406  0.0989 -0.4162 -0.0316
 1208ERGO    C217076   1.405  15.957   7.693 -0.0325 -0.0531 -0.0233
 1209ERGO   ROH17077   1.706   5.196   6.176  0.0760  0.2945 -0.2759
 1209ERGO    R117078   1.739   5.335   6.420  0.2503  0.0591 -0.1617
 1209ERGO    R217079   1.533   5.372   6.599  0.2846  0.2019 -0.1541
 1209ERGO    R317080   1.708   5.259   6.774  0.1186 -0.1786 -0.2216
 1209ERGO    R417081   1.508   5.392   6.943  0.4452  0.2391 -0.1430
 1209ERGO    R517082   1.724   5.419   6.952  0.5157 -0.2132 -0.2165
 1209ERGO    C117083   1.657   5.298   7.308  0.3830 -0.0965 -0.2000
 1209ERGO    C217084   1.828   5.216   7.618 -0.1088  0.1614  0.0943
 1210ERGO   ROH17085   6.367   1.096   6.747 -0.1210  0.0570 -0.0774
 1210ERGO    R117086   6.216   1.175   6.973 -0.0859 -0.0403 -0.0189
 1210ERGO    R217087   6.227   1.039   7.214 -0.0067 -0.1136 -0.0590
 1210ERGO    R317088   6.287   1.285   7.313 -0.0284 -0.1318 -0.0023
 1210ERGO    R417089   6.169   1.140   7.539  0.0126 -0.1953 -0.0304
 1210ERGO    R517090   6.106   1.334   7.462 -0.0165 -0.1875  0.0255
 1210ERGO    C117091   6.191   1.430   7.821  0.0034 -0.2599  0.0396
 1210ERGO    C217092   6.293   1.516   8.160  0.1340 -0.1805 -0.2932
 1211ERGO   ROH17093  15.748  16.921   6.067 -0.1008  0.4495  0.1553
 1211ERGO    R117094  15.679  16.948   6.340 -0.1123  0.2397  0.1746
 1211ERGO    R217095  15.510  16.771   6.469 -0.0934  0.1229  0.0398
 1211ERGO    R317096  15.718  16.750   6.643 -0.0968  0.0203  0.0327
 1211ERGO    R417097  15.493  16.619   6.779 -0.1988  0.2494  0.0967
 1211ERGO    R517098  15.617  16.780   6.859 -0.0623  0.1816  0.0293
 1211ERGO    C117099  15.678  16.512   7.124 -0.2635  0.2269  0.1231
 1211ERGO    C217100  15.764  16.471   7.390  0.1713 -0.0557  0.0154
 1212ERGO   ROH17101  17.894   1.833   6.484 -0.1041 -0.1443  0.0381
 1212ERGO    R117102  18.046   1.916   6.708 -0.0264  0.0069 -0.0694
 1212ERGO    R217103  18.113   2.180   6.753 -0.2370  0.0710 -0.1320
 1212ERGO    R317104  17.997   2.134   6.994 -0.0321 -0.0214 -0.0481
 1212ERGO    R417105  18.203   2.335   7.048 -0.1845  0.1845 -0.2065
 1212ERGO    R517106  18.178   2.145   7.150  0.0673  0.1659 -0.1705
 1212ERGO    C117107  18.147   2.383   7.447  0.0384  0.1637 -0.1712
 1212ERGO    C217108  18.026   2.504   7.819  0.1798  0.2571 -0.1474
 1213ERGO   ROH17109   1.357  17.391   6.804 -0.1150 -0.1789 -0.0458
 1213ERGO    R117110   1.183  17.331   7.020 -0.0916 -0.1195 -0.0080
 1213ERGO    R217111   1.253  17.159   7.224 -0.1383 -0.2152 -0.0612
 1213ERGO    R317112   1.187  17.371   7.381  0.0441 -0.2027 -0.0020
 1213ERGO    R417113   1.178  17.140   7.561 -0.3209 -0.2583 -0.1050
 1213ERGO    R517114   1.019  17.285   7.529 -0.1262 -0.0562 -0.1168
 1213ERGO    C117115   1.071  17.328   7.905 -0.2560 -0.2717 -0.0748
 1213ERGO    C217116   1.169  17.416   8.227  0.0382  0.1761 -0.0444
 1214ERGO   ROH17117   3.505  10.881   6.443 -0.1606  0.2154  0.2006
 1214ERGO    R117118   3.354  10.755   6.646 -0.0684 -0.0113  0.1355
 1214ERGO    R217119   3.395  10.492   6.722  0.2754  0.0276  0.1429
 1214ERGO    R317120   3.421  10.601   6.969  0.0289  0.0694  0.1504
 1214ERGO    R417121   3.361  10.320   7.020  0.1787  0.0551  0.1462
 1214ERGO    R517122   3.255  10.491   7.102  0.0154 -0.0130  0.0498
 1214ERGO    C117123   3.366  10.322   7.425 -0.1090  0.1104  0.1550
 1214ERGO    C217124   3.213  10.245   7.737 -0.2169 -0.0488 -0.1243
 1215ERGO   ROH17125   1.755   4.141   6.259  0.5950  0.1366  0.1296
 1215ERGO    R117126   1.769   4.293   6.498  0.1661  0.2002  0.1243
 1215ERGO    R217127   1.543   4.372   6.638 -0.0825 -0.2506  0.0160
 1215ERGO    R317128   1.669   4.248   6.844  0.0894  0.0220  0.0776
 1215ERGO    R417129   1.445   4.389   6.968 -0.0368 -0.1601  0.0239
 1215ERGO    R517130   1.654   4.404   7.025 -0.0513  0.1111 -0.0181
 1215ERGO    C117131   1.505   4.283   7.355  0.1512  0.1485  0.0864
 1215ERGO    C217132   1.643   4.128   7.592 -0.4171 -0.1112 -0.0554
 1216ERGO   ROH17133   0.197   4.250   6.497  0.0612  0.0107 -0.0966
 1216ERGO    R117134   0.097   4.350   6.742  0.0558 -0.2210 -0.0012
 1216ERGO    R217135   0.205   4.282   6.987  0.3307 -0.1190 -0.0917
 1216ERGO    R317136   0.224   4.551   7.017 -0.0858 -0.0901 -0.0295
 1216ERGO    R417137   0.227   4.445   7.291  0.4023 -0.1859 -0.0605
 1216ERGO    R517138   0.093   4.598   7.212  0.0500 -0.3767  0.1385
 1216ERGO    C117139   0.257   4.793   7.496  0.0531 -0.1977  0.0162
 1216ERGO    C217140   0.218   4.751   7.835 -0.0932  0.1834  0.2404
 1217ERGO   ROH17141  12.765  16.492   6.420  0.1317 -0.3173  0.0483
 1217ERGO    R117142  12.884  16.580   6.661  0.0697 -0.0832 -0.0009
 1217ERGO    R217143  12.828  16.826   6.774 -0.1143 -0.0445 -0.1419
 1217ERGO    R317144  12.767  16.677   6.992 -0.0082  0.0287 -0.0646
 1217ERGO    R417145  12.712  16.952   7.074 -0.1848  0.0103 -0.1935
 1217ERGO    R517146  12.840  16.809   7.178 -0.0960  0.1541 -0.1318
 1217ERGO    C117147  12.588  16.885   7.454 -0.1264  0.1108 -0.1510
 1217ERGO    C217148  12.463  17.142   7.553  0.1158 -0.1843  0.0262
 1218ERGO   ROH17149   1.884   9.316   6.338 -0.1810 -0.1579  0.0107
 1218ERGO    R117150   1.842   9.160   6.570 -0.1231 -0.1265  0.0438
 1218ERGO    R217151   2.051   9.067   6.726 -0.0801 -0.1068  0.0087
 1218ERGO    R317152   1.914   9.191   6.925 -0.0322 -0.0736  0.0194
 1218ERGO    R417153   2.134   9.053   7.061  0.1394  0.1660 -0.0315
 1218ERGO    R517154   1.922   9.036   7.108  0.1861  0.0533  0.1147
 1218ERGO    C117155   2.054   9.161   7.443  0.3121  0.3562 -0.0448
 1218ERGO    C217156   2.260   8.927   7.753  0.2070  0.1964 -0.1899
 1219ERGO   ROH17157  10.633  10.303   6.017  0.0247  0.0749 -0.0840
 1219ERGO    R117158  10.761  10.432   6.234  0.1240 -0.1819  0.0123
 1219ERGO    R217159  10.625  10.594   6.412  0.2994  0.0379 -0.0558
 1219ERGO    R317160  10.734  10.427   6.597 -0.1091 -0.1861 -0.0023
 1219ERGO    R417161  10.627  10.651   6.753  0.2553  0.0389 -0.0546
 1219ERGO    R517162  10.831  10.574   6.760  0.1115 -0.3677  0.0396
 1219ERGO    C117163  10.730  10.528   7.125 -0.1538 -0.1708 -0.0037
 1219ERGO    C217164  10.835  10.577   7.485  0.1480 -0.0562  0.6230
 1220ERGO   ROH17165   7.624  12.412   6.639  0.1639 -0.1025 -0.0771
 1220ERGO    R117166   7.573  12.514   6.898  0.1515 -0.1306 -0.0694
 1220ERGO    R217167   7.383  12.405   7.066  0.1366 -0.1396 -0.0978
 1220ERGO    R317168   7.592  12.389   7.239  0.1218 -0.1696 -0.0813
 1220ERGO    R417169   7.359  12.436   7.410  0.1161 -0.1096 -0.1010
 1220ERGO    R517170   7.543  12.552   7.408  0.1414 -0.1456 -0.0963
 1220ERGO    C117171   7.541  12.439   7.772  0.0904 -0.1201 -0.0874
 1220ERGO    C217172   7.474  12.394   8.047 -0.1389 -0.0565 -0.1291
 1221ERGO   ROH17173  15.023  14.647   6.205  0.1790 -0.0450  0.0256
 1221ERGO    R117174  15.118  14.687   6.469  0.1236 -0.0679  0.0489
 1221ERGO    R217175  15.183  14.938   6.567  0.1080 -0.0782  0.0819
 1221ERGO    R317176  15.008  14.871   6.764  0.0653 -0.0889  0.0410
 1221ERGO    R417177  15.148  15.107   6.866 -0.1600  0.0849 -0.0378
 1221ERGO    R517178  15.127  14.915   6.967 -0.0607  0.1287  0.0718
 1221ERGO    C117179  14.963  15.142   7.225 -0.3561  0.1698 -0.1458
 1221ERGO    C217180  14.769  15.093   7.447  0.1852 -0.3503 -0.3029
 1222ERGO   ROH17181   4.863   2.167   6.515  0.0865 -0.2645 -0.0479
 1222ERGO    R117182   5.001   2.115   6.757  0.1039 -0.1086 -0.0232
 1222ERGO    R217183   5.122   2.315   6.905 -0.0913  0.0204 -0.0349
 1222ERGO    R317184   4.970   2.212   7.106 -0.0262 -0.0882 -0.0402
 1222ERGO    R417185   5.155   2.396   7.240 -0.1873  0.0749 -0.0382
 1222ERGO    R517186   5.122   2.186   7.289 -0.0204  0.0509 -0.0244
 1222ERGO    C117187   5.031   2.348   7.623 -0.1822  0.0047 -0.0453
 1222ERGO    C217188   5.260   2.515   7.816  0.3777  0.0781 -0.0101
 1223ERGO   ROH17189   7.247   2.364   6.669 -0.1493  0.2066  0.0963
 1223ERGO    R117190   7.143   2.380   6.931 -0.1655  0.1933  0.0929
 1223ERGO    R217191   7.167   2.173   7.113 -0.3569  0.0952  0.0248
 1223ERGO    R317192   7.277   2.366   7.270 -0.2057 -0.0499  0.0980
 1223ERGO    R417193   7.150   2.182   7.458 -0.1847 -0.0999  0.0391
 1223ERGO    R517194   7.119   2.397   7.446 -0.0997 -0.0883  0.1905
 1223ERGO    C117195   7.243   2.369   7.806  0.0576 -0.3497  0.1161
 1223ERGO    C217196   7.152   2.478   8.140  0.0001  0.0723 -0.2020
 1224ERGO   ROH17197   9.227   8.084   5.703  0.2569 -0.1796  0.0538
 1224ERGO    R117198   9.125   8.076   5.967  0.3853  0.0781  0.1142
 1224ERGO    R217199   8.938   7.889   6.049 -0.1253  0.5911  0.1919
 1224ERGO    R317200   9.123   7.839   6.242 -0.1371  0.0240  0.0727
 1224ERGO    R417201   8.867   7.845   6.385 -0.0708  0.3982  0.1793
 1224ERGO    R517202   9.045   7.961   6.433  0.1881 -0.0039  0.2286
 1224ERGO    C117203   8.999   7.772   6.761 -0.0499 -0.2465  0.0602
 1224ERGO    C217204   8.926   7.614   7.112  0.1130 -0.0117 -0.1301
 1225ERGO   ROH17205  14.037  11.412   6.059 -0.2305  0.0157  0.1127
 1225ERGO    R117206  13.905  11.373   6.306 -0.0741 -0.0719  0.1860
 1225ERGO    R217207  14.042  11.329   6.542  0.0876  0.0361  0.1261
 1225ERGO    R317208  13.895  11.541   6.629 -0.0214 -0.0626  0.1794
 1225ERGO    R417209  13.918  11.365   6.863 -0.1080 -0.1824  0.0765
 1225ERGO    R517210  13.734  11.444   6.778 -0.0747 -0.1877  0.0293
 1225ERGO    C117211  13.708  11.585   7.131 -0.3243 -0.4022  0.0977
 1225ERGO    C217212  13.602  11.564   7.443 -0.4741  0.1375 -0.0076
 1226ERGO   ROH17213   5.712  15.330   7.030 -0.0001  0.2825  0.2085
 1226ERGO    R117214   5.702  15.248   7.301 -0.0733  0.1385  0.1631
 1226ERGO    R217215   5.876  15.345   7.492 -0.1164  0.0268  0.2587
 1226ERGO    R317216   5.646  15.408   7.623 -0.1457 -0.0302  0.2357
 1226ERGO    R417217   5.833  15.330   7.835 -0.1974 -0.1441  0.2423
 1226ERGO    R517218   5.634  15.248   7.801 -0.1937 -0.1208  0.1535
 1226ERGO    C117219   5.592  15.380   8.157 -0.2720 -0.2972  0.2110
 1226ERGO    C217220   5.513  15.409   8.510 -0.2191  0.1004 -0.3645
 1227ERGO   ROH17221  17.651   4.134   6.491 -0.2722 -0.2221 -0.1004
 1227ERGO    R117222  17.787   4.047   6.723 -0.1978 -0.2187 -0.1429
 1227ERGO    R217223  17.805   4.200   6.952  0.1864 -0.0601 -0.2728
 1227ERGO    R317224  17.701   3.979   7.070 -0.0101  0.1612 -0.0159
 1227ERGO    R417225  17.870   4.100   7.277  0.0856  0.2587 -0.1500
 1227ERGO    R517226  17.879   3.894   7.206 -0.0875  0.1640  0.0889
 1227ERGO    C117227  17.809   3.834   7.576 -0.1576  0.6521  0.1628
 1227ERGO    C217228  17.803   3.950   7.924  0.0446  0.0297 -0.2216
 1228ERGO   ROH17229  12.082   8.862   6.061  0.4140 -0.1030 -0.0285
 1228ERGO    R117230  11.951   8.856   6.312  0.2552  0.0715 -0.1050
 1228ERGO    R217231  11.980   8.646   6.490 -0.0117  0.1020 -0.0226
 1228ERGO    R317232  12.050   8.844   6.662  0.0335  0.1007 -0.0396
 1228ERGO    R417233  11.841   8.695   6.802 -0.0382  0.1887 -0.0478
 1228ERGO    R517234  11.844   8.910   6.765  0.0404  0.1841 -0.0759
 1228ERGO    C117235  11.826   8.909   7.146 -0.0113  0.2381 -0.0783
 1228ERGO    C217236  11.882   8.956   7.434  0.1125  0.1667  0.0023
 1229ERGO   ROH17237   3.000   4.972   6.445 -0.0288  0.0524 -0.0315
 1229ERGO    R117238   2.875   5.062   6.683 -0.0124 -0.0330  0.0097
 1229ERGO    R217239   2.716   4.898   6.839  0.0222 -0.0971 -0.0222
 1229ERGO    R317240   2.886   4.975   7.036  0.0355 -0.1391 -0.0174
 1229ERGO    R417241   2.655   4.861   7.177 -0.1013  0.1273 -0.0177
 1229ERGO    R517242   2.742   5.058   7.209  0.0577  0.0723 -0.0970
 1229ERGO    C117243   2.779   4.911   7.559 -0.1607  0.2187 -0.0104
 1229ERGO    C217244   2.673   4.861   7.925 -0.1156  0.1241  0.0415
 1230ERGO   ROH17245  10.424   5.293   6.233  0.0376  0.4978  0.0893
 1230ERGO    R117246  10.394   5.173   6.488 -0.1267  0.2733 -0.0316
 1230ERGO    R217247  10.590   5.185   6.682 -0.1498 -0.1002  0.0293
 1230ERGO    R317248  10.387   5.285   6.834 -0.0908 -0.0558  0.0779
 1230ERGO    R417249  10.567   5.156   7.026 -0.1309 -0.1718  0.0242
 1230ERGO    R517250  10.353   5.120   7.004 -0.1426 -0.0780  0.0403
 1230ERGO    C117251  10.364   5.233   7.368 -0.0646 -0.1719  0.0669
 1230ERGO    C217252  10.331   5.298   7.754  0.1496 -0.1593  0.5925
 1231ERGO   ROH17253  10.005   9.918   6.228  0.0411  0.1095 -0.1629
 1231ERGO    R117254   9.988   9.778   6.473  0.3547  0.0489 -0.1704
 1231ERGO    R217255  10.200   9.762   6.651  0.3858  0.5681 -0.1369
 1231ERGO    R317256  10.016   9.859   6.827  0.1036  0.1158 -0.1660
 1231ERGO    R417257  10.214   9.724   6.994  0.2863  0.4230 -0.1487
 1231ERGO    R517258   9.999   9.691   6.995  0.3514 -0.0039 -0.2640
 1231ERGO    C117259  10.050   9.793   7.359 -0.0366 -0.0862 -0.1827
 1231ERGO    C217260  10.176   9.808   7.644  0.2411  0.1749  0.1754
 1232ERGO   ROH17261   9.022   9.181   6.346 -0.1979 -0.1270  0.0454
 1232ERGO    R117262   9.113   9.236   6.609 -0.1839  0.0932 -0.0047
 1232ERGO    R217263   8.941   9.307   6.813 -0.2062 -0.0222  0.0079
 1232ERGO    R317264   9.059   9.098   6.941  0.0798  0.1720  0.0758
 1232ERGO    R417265   8.902   9.234   7.149 -0.2834 -0.0717 -0.0107
 1232ERGO    R517266   9.114   9.184   7.158 -0.1896  0.2845  0.1109
 1232ERGO    C117267   8.990   8.994   7.464 -0.0598  0.0819  0.0421
 1232ERGO    C217268   9.066   8.933   7.778  0.2204 -0.1430 -0.2121
 1233ERGO   ROH17269   4.664   6.286   6.252  0.1216  0.0835 -0.1624
 1233ERGO    R117270   4.706   6.231   6.526 -0.0041  0.0730 -0.1441
 1233ERGO    R217271   4.811   6.417   6.701  0.0268  0.0302 -0.1127
 1233ERGO    R317272   4.586   6.361   6.844 -0.0549  0.1466 -0.1941
 1233ERGO    R417273   4.749   6.527   7.023  0.0281 -0.0648 -0.0798
 1233ERGO    R517274   4.664   6.331   7.068 -0.1394 -0.0157 -0.1877
 1233ERGO    C117275   4.501   6.539   7.344 -0.0478 -0.0110 -0.1370
 1233ERGO    C217276   4.173   6.430   7.566  0.2147  0.3417  0.0323
 1234ERGO   ROH17277   9.387   8.991   6.144  0.2408 -0.1073 -0.0144
 1234ERGO    R117278   9.358   8.841   6.382  0.0817 -0.0615 -0.0023
 1234ERGO    R217279   9.562   8.815   6.567  0.0514 -0.2435  0.0132
 1234ERGO    R317280   9.373   8.906   6.740  0.1266 -0.0417 -0.0089
 1234ERGO    R417281   9.531   8.715   6.896 -0.1778 -0.3055 -0.0257
 1234ERGO    R517282   9.315   8.714   6.871 -0.1723 -0.0034 -0.0842
 1234ERGO    C117283   9.335   8.743   7.250 -0.2407 -0.1521 -0.0691
 1234ERGO    C217284   9.275   8.536   7.584 -0.3730  0.1751  0.1912
 1235ERGO   ROH17285   9.188  17.548   6.504 -0.4817  0.2394  0.1371
 1235ERGO    R117286   9.214  17.328   6.681 -0.3257  0.1406 -0.0052
 1235ERGO    R217287   9.174  17.351   6.954 -0.1659 -0.0275  0.0353
 1235ERGO    R317288   8.998  17.148   6.912 -0.1472 -0.0410  0.0225
 1235ERGO    R417289   9.040  17.150   7.201 -0.0167 -0.1724  0.0007
 1235ERGO    R517290   9.062  16.979   7.068 -0.0458 -0.1040 -0.0885
 1235ERGO    C117291   8.796  16.843   7.306  0.0879 -0.2695 -0.0317
 1235ERGO    C217292   8.775  16.566   7.567  0.1669  0.1012  0.0065
 1236ERGO   ROH17293  14.136  12.405   6.202 -0.0102 -0.3138 -0.0606
 1236ERGO    R117294  14.239  12.296   6.443  0.0548 -0.0202  0.0490
 1236ERGO    R217295  14.317  12.454   6.656 -0.2990  0.2282  0.0070
 1236ERGO    R317296  14.144  12.296   6.794 -0.1152  0.0200  0.0036
 1236ERGO    R417297  14.263  12.471   6.997 -0.2273  0.0664  0.0268
 1236ERGO    R517298  14.255  12.254   7.002 -0.0211  0.0572 -0.0399
 1236ERGO    C117299  14.069  12.333   7.325 -0.0130 -0.2232  0.0352
 1236ERGO    C217300  13.947  12.540   7.477 -0.0003  0.1288 -0.0073
 1237ERGO   ROH17301  16.660   8.581   6.121  0.2802 -0.1322 -0.0447
 1237ERGO    R117302  16.656   8.477   6.384  0.2027 -0.0960 -0.0316
 1237ERGO    R217303  16.885   8.452   6.537  0.1471 -0.0099  0.0638
 1237ERGO    R317304  16.742   8.598   6.717  0.0340 -0.0260 -0.0118
 1237ERGO    R417305  16.870   8.389   6.877  0.1696  0.1284  0.0913
 1237ERGO    R517306  16.658   8.436   6.872  0.1344 -0.0185  0.0543
 1237ERGO    C117307  16.727   8.489   7.243  0.0769  0.1939  0.0363
 1237ERGO    C217308  16.575   8.436   7.556  0.5865  0.3860  0.1225
 1238ERGO   ROH17309  11.372  16.223   6.646 -0.3788 -0.2833  0.0726
 1238ERGO    R117310  11.491  16.213   6.903 -0.0293 -0.4206 -0.0866
 1238ERGO    R217311  11.343  16.238   7.135  0.3409 -0.0244  0.1178
 1238ERGO    R317312  11.464  16.002   7.198 -0.0460 -0.2543  0.0333
 1238ERGO    R417313  11.399  16.125   7.457  0.7517  0.1113  0.0991
 1238ERGO    R517314  11.595  16.053   7.392  0.4800 -0.3793 -0.2654
 1238ERGO    C117315  11.545  15.838   7.704  0.6278 -0.0255  0.0088
 1238ERGO    C217316  11.568  15.756   7.948  0.0122 -0.0290 -0.0241
 1239ERGO   ROH17317   9.992  16.468   6.632 -0.0883 -0.0718 -0.0018
 1239ERGO    R117318   9.949  16.587   6.885 -0.0852 -0.0451 -0.0127
 1239ERGO    R217319  10.100  16.523   7.107 -0.1215 -0.0697  0.0110
 1239ERGO    R317320  10.140  16.792   7.117 -0.0559 -0.0795 -0.0084
 1239ERGO    R417321  10.178  16.700   7.394 -0.2784 -0.0334  0.0314
 1239ERGO    R517322  10.044  16.858   7.327 -0.1851 -0.0117 -0.0923
 1239ERGO    C117323  10.262  17.055   7.570 -0.3081 -0.0214  0.0251
 1239ERGO    C217324  10.318  17.192   7.917 -0.0971  0.4804  0.1464
 1240ERGO   ROH17325   2.322   1.577   6.270 -0.0600 -0.0435 -0.0189
 1240ERGO    R117326   2.363   1.443   6.516  0.2736 -0.0664 -0.0820
 1240ERGO    R217327   2.596   1.468   6.662  0.2275  0.4450 -0.0748
 1240ERGO    R317328   2.426   1.539   6.861  0.0401 -0.0655 -0.0392
 1240ERGO    R417329   2.687   1.511   6.992  0.1127  0.5056 -0.0504
 1240ERGO    R517330   2.501   1.413   7.051  0.3423  0.0188 -0.1007
 1240ERGO    C117331   2.580   1.602   7.373 -0.1301  0.0617 -0.0026
 1240ERGO    C217332   2.756   1.860   7.663  0.1141 -0.1812  0.0836
 1241ERGO   ROH17333   8.527   0.515   6.510 -0.0268  0.1899 -0.0500
 1241ERGO    R117334   8.544   0.452   6.785 -0.1107  0.1519 -0.0535
 1241ERGO    R217335   8.698   0.599   6.962 -0.0682  0.0528 -0.0113
 1241ERGO    R317336   8.465   0.617   7.100 -0.0837  0.1597 -0.0499
 1241ERGO    R417337   8.672   0.607   7.307 -0.1091  0.1950 -0.0169
 1241ERGO    R517338   8.497   0.478   7.292 -0.1380  0.2261  0.0107
 1241ERGO    C117339   8.437   0.629   7.636 -0.1473  0.3781 -0.0564
 1241ERGO    C217340   8.526   0.813   7.954  0.6297 -0.0568  0.1595
 1242ERGO   ROH17341  14.029  13.793   6.151  0.0152 -0.2176  0.0493
 1242ERGO    R117342  14.129  13.738   6.410  0.1080 -0.0869  0.0423
 1242ERGO    R217343  14.369  13.840   6.502 -0.0078  0.2170  0.0193
 1242ERGO    R317344  14.215  13.930   6.706 -0.1059  0.0311  0.0298
 1242ERGO    R417345  14.483  13.904   6.822 -0.0750  0.3032  0.0264
 1242ERGO    R517346  14.299  13.816   6.899  0.0161  0.0979  0.0169
 1242ERGO    C117347  14.404  14.026   7.200 -0.2061  0.1787  0.0404
 1242ERGO    C217348  14.446  14.267   7.407  0.2415  0.3439  0.0899
 1243ERGO   ROH17349  16.248  12.049   6.024  0.1668  0.1587  0.0389
 1243ERGO    R117350  16.122  12.172   6.246 -0.0449  0.1187 -0.0565
 1243ERGO    R217351  15.954  12.035   6.416 -0.0916  0.0506 -0.1543
 1243ERGO    R317352  16.123  12.129   6.607 -0.2652  0.1556 -0.0509
 1243ERGO    R417353  15.916  11.984   6.756 -0.2453 -0.0034 -0.1789
 1243ERGO    R517354  15.979  12.190   6.789 -0.4103  0.0387 -0.1255
 1243ERGO    C117355  16.053  12.044   7.133 -0.4978  0.0638 -0.0961
 1243ERGO    C217356  16.002  12.071   7.431 -0.1119 -0.2398 -0.1288
 1244ERGO   ROH17357  10.727   4.920   6.262 -0.2687 -0.0497 -0.0043
 1244ERGO    R117358  10.730   4.758   6.494  0.1656  0.0262  0.0523
 1244ERGO    R217359  10.908   4.799   6.702  0.0674  0.5820  0.0518
 1244ERGO    R317360  10.681   4.807   6.852  0.0227  0.0246  0.0311
 1244ERGO    R417361  10.896   4.765   7.046  0.0770  0.3691  0.0313
 1244ERGO    R517362  10.717   4.644   7.023  0.3335  0.0050 -0.0556
 1244ERGO    C117363  10.677   4.752   7.386  0.0405 -0.2782 -0.0001
 1244ERGO    C217364  10.706   4.897   7.620  0.4291  0.0095  0.0939
 1245ERGO   ROH17365   4.494   5.341   6.471  0.0283 -0.0881 -0.1172
 1245ERGO    R117366   4.366   5.463   6.692  0.0760 -0.1327 -0.0657
 1245ERGO    R217367   4.184   5.329   6.851  0.0447 -0.1371 -0.1094
 1245ERGO    R317368   4.351   5.408   7.052  0.0760 -0.2618 -0.0842
 1245ERGO    R417369   4.093   5.359   7.183  0.0269 -0.1097 -0.1161
 1245ERGO    R517370   4.212   5.541   7.194  0.1444 -0.1847 -0.0869
 1245ERGO    C117371   4.196   5.451   7.565  0.0459 -0.2108 -0.0963
 1245ERGO    C217372   4.059   5.499   7.863  0.1245  0.0337  0.1839
 1246ERGO   ROH17373   4.481   2.951   6.503 -0.0318 -0.1899 -0.0183
 1246ERGO    R117374   4.416   3.074   6.749  0.0919 -0.0354 -0.0616
 1246ERGO    R217375   4.317   2.932   6.965 -0.0827  0.1444 -0.0223
 1246ERGO    R317376   4.526   3.048   7.095  0.0419 -0.0485 -0.0463
 1246ERGO    R417377   4.351   2.949   7.308 -0.0310  0.1170 -0.0256
 1246ERGO    R517378   4.426   3.153   7.286  0.1583  0.0486 -0.0364
 1246ERGO    C117379   4.566   3.068   7.630  0.1161 -0.0801 -0.0500
 1246ERGO    C217380   4.605   3.256   7.922  0.1120 -0.2480 -0.3360
 1247ERGO   ROH17381  15.024   1.716   6.036  0.4615  0.0205 -0.0882
 1247ERGO    R117382  15.008   1.586   6.287  0.2109 -0.0503 -0.1372
 1247ERGO    R217383  15.218   1.585   6.467  0.0967 -0.2494  0.0006
 1247ERGO    R317384  15.030   1.684   6.637  0.0512 -0.1757 -0.0916
 1247ERGO    R417385  15.230   1.557   6.811 -0.1276 -0.3221  0.0040
 1247ERGO    R517386  15.015   1.519   6.810 -0.1482 -0.1990 -0.1312
 1247ERGO    C117387  15.060   1.634   7.171 -0.3008 -0.2952 -0.0806
 1247ERGO    C217388  14.821   1.613   7.483  0.2986  0.2474  0.0916
 1248ERGO   ROH17389   9.570   4.744   6.444  0.0728  0.1375  0.0614
 1248ERGO    R117390   9.632   4.737   6.720 -0.1148  0.1453  0.1047
 1248ERGO    R217391   9.453   4.650   6.911 -0.1114 -0.2240 -0.0584
 1248ERGO    R317392   9.656   4.483   6.980  0.1233  0.0881  0.0319
 1248ERGO    R417393   9.507   4.525   7.229 -0.2772 -0.3977 -0.0966
 1248ERGO    R517394   9.721   4.555   7.199 -0.2789  0.0292  0.1840
 1248ERGO    C117395   9.729   4.295   7.478 -0.1535 -0.2059 -0.0341
 1248ERGO    C217396   9.703   4.125   7.736  0.1004  0.0813 -0.4226
 1249ERGO   ROH17397   2.853   3.833   6.256 -0.1426  0.2079 -0.1094
 1249ERGO    R117398   2.661   3.813   6.463 -0.1427  0.0766 -0.1209
 1249ERGO    R217399   2.657   3.602   6.642 -0.0616  0.0294 -0.1720
 1249ERGO    R317400   2.666   3.801   6.827 -0.1510 -0.0113 -0.1238
 1249ERGO    R417401   2.683   3.554   6.983  0.2060 -0.0376 -0.2002
 1249ERGO    R517402   2.540   3.716   7.012  0.0546 -0.1929 -0.0654
 1249ERGO    C117403   2.707   3.712   7.356  0.2779 -0.1148 -0.1714
 1249ERGO    C217404   2.575   3.864   7.643  0.1535 -0.1958  0.1600
 1250ERGO   ROH17405  17.105  13.583   6.004  0.2399  0.1786  0.0586
 1250ERGO    R117406  17.055  13.739   6.235  0.0378  0.0732  0.0879
 1250ERGO    R217407  16.800  13.778   6.336 -0.0255 -0.1770  0.0279
 1250ERGO    R317408  16.912  13.683   6.565 -0.0082 -0.1409  0.0342
 1250ERGO    R417409  16.692  13.856   6.654 -0.0562 -0.1854  0.0193
 1250ERGO    R517410  16.900  13.868   6.717 -0.0577 -0.1331  0.0244
 1250ERGO    C117411  16.733  13.812   7.055 -0.0576 -0.1564  0.0203
 1250ERGO    C217412  16.532  13.824   7.335 -0.2518  0.1807  0.0116
 1251ERGO   ROH17413  17.891  14.485   6.197 -0.1420 -0.0585 -0.0249
 1251ERGO    R117414  17.844  14.663   6.412  0.1121  0.0197 -0.0319
 1251ERGO    R217415  17.725  14.582   6.649 -0.1112  0.2219 -0.0753
 1251ERGO    R317416  17.948  14.689   6.760  0.0545 -0.1862  0.0032
 1251ERGO    R417417  17.752  14.684   6.978 -0.1320  0.3983 -0.1264
 1251ERGO    R517418  17.866  14.857   6.910  0.3047  0.1114 -0.1764
 1251ERGO    C117419  17.978  14.843   7.274  0.0115  0.1179 -0.0825
 1251ERGO    C217420  18.114  14.662   7.466 -0.1843 -0.2432  0.4131
 1252ERGO   ROH17421   8.918   3.816   6.875  0.1159 -0.1684  0.0051
 1252ERGO    R117422   9.026   3.747   7.127  0.0186 -0.0883  0.0689
 1252ERGO    R217423   8.875   3.747   7.359 -0.1143 -0.1835 -0.0180
 1252ERGO    R317424   8.966   3.492   7.380  0.0468 -0.1224  0.0417
 1252ERGO    R417425   8.983   3.600   7.652 -0.1038 -0.0734  0.0341
 1252ERGO    R517426   9.144   3.506   7.540 -0.0076  0.0162  0.0931
 1252ERGO    C117427   9.131   3.274   7.843  0.0537  0.0480  0.1205
 1252ERGO    C217428   9.272   3.085   8.134 -0.1052  0.1618 -0.1523
 1253ERGO   ROH17429   3.403  11.380   6.232 -0.0332 -0.0471 -0.1179
 1253ERGO    R117430   3.314  11.389   6.501 -0.0883 -0.0301 -0.1365
 1253ERGO    R217431   3.123  11.217   6.600 -0.0086 -0.1144 -0.1296
 1253ERGO    R317432   3.313  11.164   6.787 -0.0131  0.0406 -0.0799
 1253ERGO    R417433   3.064  11.060   6.903  0.0199 -0.0686 -0.1004
 1253ERGO    R517434   3.202  11.201   6.996 -0.0746  0.0345 -0.1102
 1253ERGO    C117435   3.209  10.920   7.254  0.0324  0.1036 -0.0365
 1253ERGO    C217436   3.085  10.757   7.599  0.1810 -0.0942  0.0172
 1254ERGO   ROH17437   0.514   4.520   6.683 -0.2403 -0.2656 -0.0285
 1254ERGO    R117438   0.664   4.600   6.909 -0.1578 -0.2187 -0.0999
 1254ERGO    R217439   0.656   4.857   7.009 -0.1006 -0.1940 -0.1681
 1254ERGO    R317440   0.592   4.731   7.241 -0.0335 -0.1230 -0.1090
 1254ERGO    R417441   0.700   4.991   7.325 -0.1185 -0.0442 -0.2275
 1254ERGO    R517442   0.766   4.795   7.393 -0.0395  0.0053 -0.1513
 1254ERGO    C117443   0.664   4.950   7.727 -0.0660  0.1099 -0.2066
 1254ERGO    C217444   0.766   5.141   8.044  0.0109 -0.0272  0.1629
 1255ERGO   ROH17445  12.123  11.995   6.248  0.1847  0.0367  0.0502
 1255ERGO    R117446  12.130  11.870   6.502  0.0448  0.0588  0.0670
 1255ERGO    R217447  12.358  11.866   6.659  0.0173 -0.0960  0.1107
 1255ERGO    R317448  12.192  11.974   6.845  0.0627  0.0537  0.0643
 1255ERGO    R417449  12.339  11.767   6.989 -0.2264 -0.1330  0.0868
 1255ERGO    R517450  12.123  11.788   6.979 -0.1973  0.1078  0.0055
 1255ERGO    C117451  12.173  11.810   7.356 -0.3259 -0.0142  0.0291
 1255ERGO    C217452  12.224  11.753   7.776  0.0463 -0.2132  0.2291
 1256ERGO   ROH17453  13.091  13.577   6.093 -0.1624 -0.0526  0.0129
 1256ERGO    R117454  13.133  13.715   6.337 -0.0599 -0.1927  0.0759
 1256ERGO    R217455  12.979  13.931   6.414  0.3357  0.1319 -0.0043
 1256ERGO    R317456  12.940  13.782   6.638 -0.1670  0.1541 -0.0654
 1256ERGO    R417457  12.969  14.056   6.736  0.2758  0.0861  0.0115
 1256ERGO    R517458  13.083  13.883   6.802 -0.1200 -0.1538  0.0891
 1256ERGO    C117459  12.927  13.990   7.134 -0.2312  0.0803 -0.0365
 1256ERGO    C217460  12.988  14.018   7.417  0.0915  0.0541 -0.1036
 1257ERGO   ROH17461  10.353   6.245   5.959  0.0411 -0.1774  0.0482
 1257ERGO    R117462  10.271   6.361   6.204 -0.0299 -0.0998 -0.0094
 1257ERGO    R217463  10.277   6.222   6.443 -0.0301 -0.0057  0.0569
 1257ERGO    R317464  10.424   6.435   6.525 -0.0964  0.0673 -0.0188
 1257ERGO    R417465  10.283   6.346   6.766  0.0322  0.0519  0.0322
 1257ERGO    R517466  10.284   6.548   6.683 -0.0808  0.0318  0.0087
 1257ERGO    C117467  10.425   6.619   7.030  0.0063  0.1538 -0.0533
 1257ERGO    C217468  10.510   6.642   7.352  0.1398 -0.0394 -0.2162
 1258ERGO   ROH17469   7.978   9.075   6.418 -0.0686  0.1596  0.1805
 1258ERGO    R117470   7.892   8.907   6.629 -0.1626  0.1308  0.1203
 1258ERGO    R217471   8.027   8.890   6.871 -0.0926 -0.1318  0.0688
 1258ERGO    R317472   7.782   8.951   6.973  0.0003  0.0594  0.1815
 1258ERGO    R417473   7.952   8.911   7.207  0.0601 -0.1175  0.1023
 1258ERGO    R517474   7.763   8.813   7.167 -0.0380  0.0495  0.1675
 1258ERGO    C117475   7.680   8.980   7.499  0.2362  0.0702  0.2277
 1258ERGO    C217476   7.688   9.070   7.799 -0.2272  0.1835  0.0609
 1259ERGO   ROH17477  13.832   1.670   6.071  0.1879 -0.0504  0.0653
 1259ERGO    R117478  13.810   1.518   6.308  0.0459 -0.0014  0.0870
 1259ERGO    R217479  13.949   1.283   6.348 -0.1345 -0.1169  0.1368
 1259ERGO    R317480  14.032   1.408   6.574 -0.0588 -0.1343  0.1156
 1259ERGO    R417481  14.047   1.121   6.638 -0.1331 -0.1110  0.1375
 1259ERGO    R517482  13.942   1.275   6.752 -0.0595 -0.0827  0.1400
 1259ERGO    C117483  14.183   1.145   7.019 -0.0613 -0.1238  0.1181
 1259ERGO    C217484  14.138   0.879   7.121 -0.0562  0.0036  0.1271
 1260ERGO   ROH17485  15.903  11.675   5.977 -0.2864  0.1422  0.0273
 1260ERGO    R117486  15.894  11.568   6.239 -0.1110  0.0512 -0.0016
 1260ERGO    R217487  16.110  11.439   6.355  0.0155  0.1292 -0.1373
 1260ERGO    R317488  16.071  11.621   6.553  0.0011  0.0476 -0.0650
 1260ERGO    R417489  16.285  11.449   6.652  0.0331  0.0522 -0.1454
 1260ERGO    R517490  16.100  11.497   6.755  0.0371 -0.0184 -0.1140
 1260ERGO    C117491  16.351  11.627   7.011  0.0300 -0.0692 -0.0823
 1260ERGO    C217492  16.350  11.612   7.337  0.0080 -0.0444 -0.1139
 1261ERGO   ROH17493  17.591  16.404   6.558  0.0977 -0.1701  0.0738
 1261ERGO    R117494  17.506  16.246   6.777  0.1267 -0.0971  0.1368
 1261ERGO    R217495  17.611  16.275   7.031  0.0460  0.0962  0.1442
 1261ERGO    R317496  17.349  16.305   7.100  0.0118 -0.0077  0.0672
 1261ERGO    R417497  17.477  16.188   7.337  0.0489  0.2744  0.1984
 1261ERGO    R517498  17.301  16.111   7.233  0.1127  0.0704  0.2268
 1261ERGO    C117499  17.153  16.165   7.581  0.0185  0.2804  0.1577
 1261ERGO    C217500  17.018  16.131   7.945  0.0890  0.0655 -0.3440
 1262ERGO   ROH17501   3.244  12.696   6.034  0.0015  0.1812  0.0914
 1262ERGO    R117502   3.122  12.555   6.247 -0.1544  0.1832  0.0054
 1262ERGO    R217503   3.265  12.393   6.419 -0.3157  0.0020 -0.0277
 1262ERGO    R317504   3.151  12.549   6.610 -0.2412  0.0107  0.0101
 1262ERGO    R417505   3.222  12.302   6.750 -0.1157  0.0484  0.0122
 1262ERGO    R517506   3.026  12.396   6.745 -0.1368  0.0089  0.1049
 1262ERGO    C117507   3.090  12.396   7.121  0.0707  0.0835  0.0709
 1262ERGO    C217508   3.107  12.376   7.428 -0.0609  0.0591 -0.3382
 1263ERGO   ROH17509   5.992  13.910   6.614  0.0640  0.0681 -0.0332
 1263ERGO    R117510   5.956  13.947   6.893 -0.0233 -0.0356 -0.0303
 1263ERGO    R217511   6.015  13.751   7.078  0.0855 -0.0425 -0.0742
 1263ERGO    R317512   6.168  13.946   7.189 -0.0847  0.0431  0.0148
 1263ERGO    R417513   6.130  13.751   7.404  0.1971 -0.1598 -0.1122
 1263ERGO    R517514   6.088  13.964   7.414 -0.0295 -0.2077  0.0585
 1263ERGO    C117515   6.341  13.935   7.697  0.1024 -0.1477 -0.0509
 1263ERGO    C217516   6.414  13.946   7.935 -0.0162  0.0528  0.2228
 1264ERGO   ROH17517   7.357  12.811   6.527 -0.1341 -0.0345 -0.0832
 1264ERGO    R117518   7.372  12.914   6.790  0.0256 -0.0427 -0.0881
 1264ERGO    R217519   7.147  12.967   6.942  0.1082  0.2013 -0.0475
 1264ERGO    R317520   7.271  12.806   7.122 -0.0287  0.0718 -0.0664
 1264ERGO    R417521   7.038  12.909   7.265 -0.0116  0.1562 -0.0956
 1264ERGO    R517522   7.244  12.918   7.332 -0.0225  0.0193 -0.0363
 1264ERGO    C117523   7.090  12.724   7.622 -0.2100  0.0084 -0.1413
 1264ERGO    C217524   6.974  12.664   7.958  0.0717  0.1479  0.0286
 1265ERGO   ROH17525  11.663  11.146   6.270  0.0949  0.1557  0.0066
 1265ERGO    R117526  11.650  10.964   6.486  0.0188  0.1462 -0.0054
 1265ERGO    R217527  11.860  10.926   6.662  0.0122  0.0320 -0.0185
 1265ERGO    R317528  11.670  10.981   6.849  0.0484  0.1120 -0.0059
 1265ERGO    R417529  11.916  10.944   7.003  0.0371 -0.0079 -0.0208
 1265ERGO    R517530  11.727  10.842   7.035 -0.0072  0.0793 -0.0149
 1265ERGO    C117531  11.771  11.006   7.376  0.0856  0.0441 -0.0104
 1265ERGO    C217532  11.818  10.912   7.680 -0.1700 -0.0621  0.0398
 1266ERGO   ROH17533   7.193  16.749   6.759 -0.1156 -0.1813 -0.1625
 1266ERGO    R117534   7.063  16.899   6.961  0.0920 -0.1082 -0.0803
 1266ERGO    R217535   6.788  16.927   6.972  0.1140  0.0657  0.0756
 1266ERGO    R317536   6.821  16.834   7.225  0.1969  0.0320  0.0525
 1266ERGO    R417537   6.650  17.070   7.255  0.1050 -0.0417  0.1258
 1266ERGO    R517538   6.837  17.031   7.360  0.1403  0.0147  0.0855
 1266ERGO    C117539   6.601  17.066   7.657  0.1777 -0.1359  0.1335
 1266ERGO    C217540   6.637  17.071   7.955 -0.0343 -0.0519 -0.0360
 1267ERGO   ROH17541  17.212  12.427   6.108  0.1278 -0.2739  0.2045
 1267ERGO    R117542  17.055  12.478   6.338  0.0657 -0.0412  0.1132
 1267ERGO    R217543  17.002  12.285   6.528 -0.2783  0.0537  0.1173
 1267ERGO    R317544  17.104  12.470   6.699 -0.1388 -0.0457  0.1432
 1267ERGO    R417545  16.937  12.297   6.868 -0.1861 -0.0218  0.1374
 1267ERGO    R517546  16.925  12.514   6.852 -0.0824 -0.0051  0.2035
 1267ERGO    C117547  16.996  12.478   7.225 -0.0014 -0.1591  0.1733
 1267ERGO    C217548  16.951  12.342   7.447  0.6086  0.1180 -0.1927
 1268ERGO   ROH17549   0.176   0.614   6.616 -0.0566 -0.0048  0.0779
 1268ERGO    R117550   0.252   0.566   6.884 -0.0081  0.0600  0.0763
 1268ERGO    R217551   0.293   0.771   7.066 -0.0830  0.1007  0.0498
 1268ERGO    R317552   0.112   0.632   7.214 -0.0062  0.0343  0.0819
 1268ERGO    R417553   0.182   0.864   7.379 -0.0550  0.0529  0.0737
 1268ERGO    R517554   0.190   0.655   7.439  0.0291  0.0550  0.0669
 1268ERGO    C117555  -0.053   0.788   7.701  0.0334 -0.0372  0.1179
 1268ERGO    C217556  -0.282   0.574   7.999 -0.0503  0.4269  0.0033
 1269ERGO   ROH17557   3.849   4.360   6.335  0.0957 -0.2997  0.0303
 1269ERGO    R117558   3.689   4.290   6.558  0.0501 -0.1997  0.0280
 1269ERGO    R217559   3.794   4.246   6.809 -0.0105 -0.0285  0.0788
 1269ERGO    R317560   3.612   4.433   6.883 -0.0704 -0.0235 -0.0744
 1269ERGO    R417561   3.733   4.344   7.135 -0.2199  0.0215  0.0265
 1269ERGO    R517562   3.520   4.349   7.088 -0.1970  0.0017 -0.1142
 1269ERGO    C117563   3.525   4.576   7.394 -0.3982  0.0553 -0.1478
 1269ERGO    C217564   3.581   4.631   7.670  0.0871 -0.1037 -0.0883
 1270ERGO   ROH17565   1.817   8.178   6.604 -0.1612 -0.2858  0.0874
 1270ERGO    R117566   1.933   8.037   6.820  0.1304  0.0051  0.1281
 1270ERGO    R217567   2.112   8.154   6.995 -0.2050  0.4637  0.1768
 1270ERGO    R317568   1.937   8.065   7.183 -0.0479  0.0313  0.1312
 1270ERGO    R417569   2.195   8.086   7.324 -0.0841  0.5658  0.1681
 1270ERGO    R517570   2.065   7.910   7.314  0.2898  0.2696  0.1071
 1270ERGO    C117571   2.078   7.964   7.692  0.1338  0.2193  0.1202
 1270ERGO    C217572   2.333   7.972   7.873  0.0791 -0.4124 -0.0277
 1271ERGO   ROH17573   7.004   9.725   6.361  0.1192 -0.1506  0.1762
 1271ERGO    R117574   7.093   9.781   6.624  0.0695 -0.0661  0.1768
 1271ERGO    R217575   7.015  10.007   6.763 -0.0415 -0.0683  0.1329
 1271ERGO    R317576   6.940   9.826   6.951  0.0132 -0.0726  0.1490
 1271ERGO    R417577   7.007  10.067   7.103 -0.3651  0.0493  0.1069
 1271ERGO    R517578   7.087   9.867   7.135 -0.1752  0.1538  0.2455
 1271ERGO    C117579   6.932   9.932   7.478 -0.5023  0.1139  0.1069
 1271ERGO    C217580   6.959  10.107   7.767 -0.2203 -0.2912  0.2667
 1272ERGO   ROH17581   0.604  15.214   6.346 -0.1751  0.1302  0.1129
 1272ERGO    R117582   0.733  15.306   6.581 -0.1681  0.1568  0.0981
 1272ERGO    R217583   0.594  15.401   6.799 -0.1707 -0.0152  0.1709
 1272ERGO    R317584   0.738  15.213   6.933  0.0168  0.0533  0.0703
 1272ERGO    R417585   0.698  15.429   7.127 -0.1079 -0.0412  0.1539
 1272ERGO    R517586   0.888  15.340   7.069 -0.0485  0.1306  0.0730
 1272ERGO    C117587   0.894  15.269   7.444  0.1047  0.0081  0.0495
 1272ERGO    C217588   0.792  15.275   7.746  0.0590 -0.3538 -0.2140
 1273ERGO   ROH17589  17.253   5.923   6.250 -0.1007  0.0733  0.0049
 1273ERGO    R117590  17.078   6.010   6.456 -0.0736  0.0506  0.0367
 1273ERGO    R217591  16.944   5.833   6.622 -0.0986  0.0316 -0.0071
 1273ERGO    R317592  17.062   5.980   6.818 -0.0625 -0.0448  0.0299
 1273ERGO    R417593  16.828   5.862   6.946 -0.0963 -0.0153 -0.0013
 1273ERGO    R517594  16.880   6.073   6.941 -0.0413 -0.0263  0.0493
 1273ERGO    C117595  16.870   6.017   7.318 -0.0613 -0.1143  0.0369
 1273ERGO    C217596  16.676   5.955   7.523  0.2286  0.0888  0.2985
 1274ERGO   ROH17597  12.168   3.325   6.102 -0.2662  0.0386 -0.0636
 1274ERGO    R117598  12.009   3.482   6.275 -0.1935  0.0045  0.0329
 1274ERGO    R217599  11.737   3.443   6.305 -0.1684 -0.0336  0.1755
 1274ERGO    R317600  11.801   3.424   6.568 -0.0297 -0.0409  0.1433
 1274ERGO    R417601  11.508   3.447   6.564 -0.0419 -0.0628  0.2898
 1274ERGO    R517602  11.647   3.572   6.677  0.0103 -0.0541  0.2268
 1274ERGO    C117603  11.435   3.432   6.962  0.1620 -0.0866  0.3262
 1274ERGO    C217604  11.450   3.354   7.205 -0.0781  0.0123 -0.1835
 1275ERGO   ROH17605  11.334  14.261   6.443 -0.1498 -0.1152 -0.1594
 1275ERGO    R117606  11.334  14.153   6.705 -0.0472 -0.0871 -0.1483
 1275ERGO    R217607  11.567  14.106   6.846 -0.0033  0.1549 -0.1429
 1275ERGO    R317608  11.445  14.259   7.034 -0.1535  0.0562 -0.1564
 1275ERGO    R417609  11.602  14.065   7.188  0.0157  0.1939 -0.1395
 1275ERGO    R517610  11.389  14.106   7.209 -0.0279  0.0066 -0.1543
 1275ERGO    C117611  11.507  14.186   7.563 -0.1141  0.1238 -0.1504
 1275ERGO    C217612  11.672  14.202   7.823  0.3649  0.1671 -0.0054
 1276ERGO   ROH17613  11.301  13.223   6.407  0.0191  0.1428 -0.0483
 1276ERGO    R117614  11.312  13.030   6.614  0.0309  0.1349 -0.0582
 1276ERGO    R217615  11.550  12.939   6.721  0.0298  0.0820 -0.1126
 1276ERGO    R317616  11.437  13.016   6.956  0.1054  0.0890 -0.0896
 1276ERGO    R417617  11.667  12.851   7.034 -0.1017 -0.2341 -0.1485
 1276ERGO    R517618  11.460  12.825   7.098 -0.1370 -0.0164 -0.1896
 1276ERGO    C117619  11.629  12.872   7.436 -0.1073 -0.4116 -0.1478
 1276ERGO    C217620  11.682  12.747   7.678  0.0792  0.0814  0.1993
 1277ERGO   ROH17621   4.643  10.539   6.739  0.0858 -0.2372 -0.0398
 1277ERGO    R117622   4.661  10.542   7.022 -0.0356 -0.0613 -0.0325
 1277ERGO    R217623   4.452  10.466   7.186 -0.0453 -0.1306 -0.0791
 1277ERGO    R317624   4.638  10.299   7.291  0.0417  0.0736  0.0980
 1277ERGO    R417625   4.447  10.345   7.509 -0.2012 -0.0980 -0.0689
 1277ERGO    R517626   4.663  10.374   7.518 -0.2321  0.1286  0.1146
 1277ERGO    C117627   4.618  10.117   7.797 -0.2102  0.1126  0.1034
 1277ERGO    C217628   4.578  10.072   8.063 -0.0582 -0.2132 -0.3854
 1278ERGO   ROH17629   5.043  13.226   6.465 -0.1387  0.1373  0.0517
 1278ERGO    R117630   5.041  13.075   6.704 -0.1159  0.1197  0.0417
 1278ERGO    R217631   5.220  13.120   6.911 -0.0564  0.0664  0.0073
 1278ERGO    R317632   4.993  13.142   7.058 -0.0197  0.1065  0.0566
 1278ERGO    R417633   5.207  13.117   7.256  0.0012 -0.0350  0.0084
 1278ERGO    R517634   5.028  12.995   7.244 -0.0442  0.0386  0.0041
 1278ERGO    C117635   4.987  13.137   7.596  0.0692 -0.0566  0.0552
 1278ERGO    C217636   4.768  13.291   7.800 -0.0761 -0.2166 -0.1845
 1279ERGO   ROH17637  16.959   0.444   6.319  0.2122  0.2806  0.1224
 1279ERGO    R117638  16.845   0.558   6.551  0.3694  0.1848  0.2447
 1279ERGO    R217639  16.603   0.476   6.654  0.2665  0.4046  0.1423
 1279ERGO    R317640  16.747   0.443   6.882  0.2087 -0.0357  0.1281
 1279ERGO    R417641  16.474   0.366   6.956  0.0285  0.3818  0.0377
 1279ERGO    R517642  16.600   0.512   7.057  0.2993  0.0973  0.1718
 1279ERGO    C117643  16.536   0.270   7.345 -0.1643 -0.0449 -0.0366
 1279ERGO    C217644  16.367   0.197   7.662 -0.1975  0.1009 -0.0006
 1280ERGO   ROH17645  12.861   1.672   6.083  0.0189  0.1174 -0.0028
 1280ERGO    R117646  12.792   1.554   6.331  0.0161  0.0601 -0.0299
 1280ERGO    R217647  12.967   1.397   6.475  0.0056 -0.0025 -0.0777
 1280ERGO    R317648  12.910   1.573   6.675  0.0372 -0.0445 -0.0324
 1280ERGO    R417649  13.020   1.338   6.812 -0.0670 -0.1185 -0.0865
 1280ERGO    R517650  12.830   1.435   6.854 -0.0363 -0.0670 -0.0860
 1280ERGO    C117651  12.997   1.469   7.195 -0.0796 -0.2255 -0.0492
 1280ERGO    C217652  12.964   1.380   7.557 -0.3280 -0.2811 -0.3907
 1281ERGO   ROH17653   7.719  13.881   6.583  0.0813  0.3887  0.0134
 1281ERGO    R117654   7.603  13.952   6.831  0.1652  0.1616  0.1203
 1281ERGO    R217655   7.627  13.794   7.057  0.3480  0.0141  0.0014
 1281ERGO    R317656   7.722  14.023   7.167  0.2918 -0.0164  0.1146
 1281ERGO    R417657   7.727  13.828   7.386  0.3743 -0.1326  0.0093
 1281ERGO    R517658   7.633  14.024   7.389  0.3161 -0.1623  0.1257
 1281ERGO    C117659   7.875  14.063   7.681  0.3367 -0.2466  0.1201
 1281ERGO    C217660   7.911  13.935   7.935  0.2217  0.0307  0.1701
 1282ERGO   ROH17661   8.125   5.755   6.114 -0.0318 -0.4019 -0.0881
 1282ERGO    R117662   8.128   5.824   6.388 -0.2784 -0.2677 -0.1177
 1282ERGO    R217663   7.972   5.694   6.575 -0.0195 -0.5727 -0.1091
 1282ERGO    R317664   8.210   5.659   6.702  0.0455  0.0678 -0.0178
 1282ERGO    R417665   8.008   5.563   6.893  0.2119 -0.5729 -0.1335
 1282ERGO    R517666   8.163   5.712   6.931 -0.2158 -0.1266 -0.0190
 1282ERGO    C117667   8.253   5.453   7.197  0.4076  0.0283 -0.0621
 1282ERGO    C217668   8.225   5.432   7.597  0.1009  0.0915 -0.1709
 1283ERGO   ROH17669   5.273   7.452   6.116  0.0211 -0.2668 -0.1052
 1283ERGO    R117670   5.532   7.486   6.227 -0.0187 -0.1209 -0.0538
 1283ERGO    R217671   5.582   7.660   6.435 -0.1364 -0.0077 -0.1128
 1283ERGO    R317672   5.689   7.439   6.552 -0.0860  0.0792  0.0078
 1283ERGO    R417673   5.739   7.656   6.743 -0.2663  0.1527 -0.0431
 1283ERGO    R517674   5.887   7.519   6.660 -0.1713  0.1959  0.0698
 1283ERGO    C117675   5.930   7.446   7.032 -0.2946  0.3278  0.1107
 1283ERGO    C217676   5.842   7.369   7.349  0.1469 -0.4854  0.1006
 1284ERGO   ROH17677  16.196   5.773   6.358  0.0886  0.0903 -0.1297
 1284ERGO    R117678  16.262   5.690   6.621  0.0876  0.0579 -0.1393
 1284ERGO    R217679  16.422   5.841   6.789  0.0077  0.0837 -0.0852
 1284ERGO    R317680  16.211   5.818   6.958 -0.0043 -0.0358 -0.1172
 1284ERGO    R417681  16.445   5.773   7.127 -0.0048  0.0389 -0.0937
 1284ERGO    R517682  16.273   5.642   7.108  0.0541 -0.0336 -0.1378
 1284ERGO    C117683  16.260   5.711   7.482 -0.0237 -0.0994 -0.1288
 1284ERGO    C217684  16.254   5.859   7.773  0.3073  0.2935  0.1451
 1285ERGO   ROH17685  10.977   8.688   6.037 -0.0829  0.0936 -0.0511
 1285ERGO    R117686  10.962   8.620   6.311 -0.0214  0.0908 -0.0490
 1285ERGO    R217687  10.799   8.419   6.406 -0.1258  0.2041  0.0042
 1285ERGO    R317688  11.030   8.327   6.515 -0.1483  0.0317 -0.0886
 1285ERGO    R417689  10.823   8.254   6.709 -0.1039  0.4347  0.1302
 1285ERGO    R517690  11.006   8.366   6.749  0.0616  0.2660 -0.0986
 1285ERGO    C117691  11.054   8.072   6.988 -0.1123  0.4074  0.1165
 1285ERGO    C217692  11.093   7.937   7.332  0.3888 -0.1195  0.0288
 1286ERGO   ROH17693   0.591  13.516   6.077 -0.0913 -0.0126 -0.1087
 1286ERGO    R117694   0.702  13.558   6.334 -0.1108  0.0181 -0.1052
 1286ERGO    R217695   0.645  13.782   6.486 -0.1527  0.0171 -0.1199
 1286ERGO    R317696   0.578  13.598   6.673 -0.1338  0.0170 -0.1133
 1286ERGO    R417697   0.637  13.840   6.826 -0.0227 -0.0090 -0.1119
 1286ERGO    R517698   0.724  13.643   6.857 -0.0595 -0.0337 -0.1588
 1286ERGO    C117699   0.569  13.701   7.201  0.0708 -0.0243 -0.1011
 1286ERGO    C217700   0.732  13.690   7.548  0.3066  0.0129  0.3222
 1287ERGO   ROH17701  13.119   4.602   6.589  0.0364 -0.0435  0.0257
 1287ERGO    R117702  13.170   4.470   6.835  0.2074 -0.0047  0.0110
 1287ERGO    R217703  13.415   4.482   6.961  0.1619  0.3885  0.0629
 1287ERGO    R317704  13.266   4.567   7.172 -0.0293  0.0955  0.0529
 1287ERGO    R417705  13.488   4.419   7.294  0.1468  0.3362  0.0569
 1287ERGO    R517706  13.275   4.386   7.329  0.1691  0.0287 -0.0255
 1287ERGO    C117707  13.389   4.462   7.685 -0.0412  0.0306  0.0441
 1287ERGO    C217708  13.313   4.440   8.077  0.1871  0.2323  0.3137
 1288ERGO   ROH17709   8.068  16.293   6.648  0.0019 -0.0450  0.0967
 1288ERGO    R117710   8.059  16.232   6.924  0.0047 -0.2703  0.0497
 1288ERGO    R217711   7.989  16.419   7.116  0.3748 -0.3110  0.2402
 1288ERGO    R317712   7.807  16.230   7.186  0.0886 -0.0838  0.1323
 1288ERGO    R417713   7.789  16.431   7.398  0.2537 -0.0976  0.1482
 1288ERGO    R517714   7.823  16.217   7.425 -0.0410 -0.1436  0.1346
 1288ERGO    C117715   7.503  16.259   7.628 -0.0855  0.2401 -0.0066
 1288ERGO    C217716   7.338  16.457   7.895  0.1732  0.0517 -0.3931
 1289ERGO   ROH17717   1.112   0.308   6.195 -0.1371  0.0392 -0.1037
 1289ERGO    R117718   1.216   0.296   6.458  0.0084 -0.2043 -0.1674
 1289ERGO    R217719   1.108   0.441   6.668  0.3828 -0.0579 -0.0587
 1289ERGO    R317720   1.094   0.197   6.787  0.0293 -0.0723 -0.1212
 1289ERGO    R417721   1.118   0.387   7.009  0.2970 -0.1727 -0.0749
 1289ERGO    R517722   1.244   0.213   6.973  0.0461 -0.3432 -0.1147
 1289ERGO    C117723   1.110   0.126   7.319 -0.0848 -0.2530 -0.1430
 1289ERGO    C217724   1.315   0.169   7.589  0.1409  0.2193  0.1433
 1290ERGO   ROH17725   8.629  12.525   6.586  0.3405  0.1611 -0.0140
 1290ERGO    R117726   8.667  12.602   6.855  0.2740  0.1666 -0.0053
 1290ERGO    R217727   8.470  12.576   7.047  0.2044  0.2279 -0.0650
 1290ERGO    R317728   8.662  12.438   7.180  0.1275  0.1849  0.0018
 1290ERGO    R417729   8.558  12.626   7.378  0.0778  0.1838 -0.0246
 1290ERGO    R517730   8.766  12.600   7.321  0.0962  0.1546  0.0587
 1290ERGO    C117731   8.790  12.525   7.694 -0.0681  0.1178  0.0616
 1290ERGO    C217732   8.896  12.432   7.937  0.0655  0.2249 -0.2002
 1291ERGO   ROH17733  12.282  16.245   6.456 -0.0734 -0.4155 -0.0241
 1291ERGO    R117734  12.376  16.435   6.644  0.0718 -0.3909 -0.1201
 1291ERGO    R217735  12.208  16.616   6.768  0.2103 -0.1985 -0.2125
 1291ERGO    R317736  12.316  16.511   6.995  0.1282 -0.1658 -0.1574
 1291ERGO    R417737  12.139  16.725   7.089  0.0832 -0.1555 -0.2539
 1291ERGO    R517738  12.350  16.701   7.138  0.0677 -0.1431 -0.1704
 1291ERGO    C117739  12.200  16.689   7.488 -0.0679 -0.0999 -0.2262
 1291ERGO    C217740  12.127  16.817   7.726 -0.0735 -0.0148  0.2563
 1292ERGO   ROH17741   8.029  17.303   6.607 -0.2033 -0.1452  0.0920
 1292ERGO    R117742   7.897  17.323   6.857 -0.1732 -0.0841  0.1030
 1292ERGO    R217743   7.996  17.206   7.087 -0.1348 -0.0122  0.1246
 1292ERGO    R317744   7.974  17.458   7.186 -0.1404  0.0153  0.0540
 1292ERGO    R417745   8.045  17.295   7.418  0.3158  0.1619  0.0183
 1292ERGO    R517746   7.875  17.430   7.402  0.2068  0.0466  0.2202
 1292ERGO    C117747   8.053  17.583   7.703  0.5730  0.2892 -0.1098
 1292ERGO    C217748   7.943  17.481   8.063 -0.1261  0.1447  0.1026
 1293ERGO   ROH17749   7.271  17.821   6.837  0.0720  0.1187 -0.0163
 1293ERGO    R117750   7.256  17.971   7.077  0.1729  0.0823  0.0128
 1293ERGO    R217751   7.132  17.876   7.305 -0.0614  0.1951 -0.0665
 1293ERGO    R317752   7.371  17.934   7.420 -0.0287 -0.1617  0.0571
 1293ERGO    R417753   7.198  17.856   7.644 -0.3472  0.3405  0.0014
 1293ERGO    R517754   7.314  18.040   7.627  0.0150  0.1170 -0.0690
 1293ERGO    C117755   7.461  17.899   7.949 -0.4830  0.0900  0.1570
 1293ERGO    C217756   7.382  17.722   8.164  0.0112 -0.2643  0.3210
 1294ERGO   ROH17757  10.882  13.476   6.330 -0.0218  0.2834  0.1598
 1294ERGO    R117758  10.873  13.439   6.610 -0.0573  0.0684  0.1319
 1294ERGO    R217759  10.890  13.189   6.729  0.0953 -0.0098 -0.0496
 1294ERGO    R317760  11.094  13.306   6.866 -0.0165  0.0360  0.0795
 1294ERGO    R417761  11.005  13.085   7.037  0.1207 -0.1645 -0.1098
 1294ERGO    R517762  11.025  13.294   7.095 -0.0475 -0.1952  0.0593
 1294ERGO    C117763  11.263  13.134   7.346  0.0305 -0.2116 -0.0237
 1294ERGO    C217764  11.267  13.067   7.729  0.0725  0.1681  0.1407
 1295ERGO   ROH17765   7.310   0.776   6.697  0.1352  0.0007 -0.0158
 1295ERGO    R117766   7.200   0.731   6.954  0.2223 -0.1441 -0.0006
 1295ERGO    R217767   7.351   0.744   7.185  0.2247  0.1301 -0.0054
 1295ERGO    R317768   7.159   0.922   7.261 -0.0599 -0.1608 -0.0275
 1295ERGO    R417769   7.291   0.842   7.511  0.2109  0.2449 -0.0431
 1295ERGO    R517770   7.077   0.834   7.469  0.2012 -0.1695  0.0701
 1295ERGO    C117771   7.076   1.065   7.773 -0.0643  0.0386 -0.0858
 1295ERGO    C217772   7.027   1.134   8.176 -0.0413  0.0196 -0.0768
 1296ERGO   ROH17773   5.316  11.299   6.417  0.0451  0.0458  0.1149
 1296ERGO    R117774   5.303  11.467   6.645 -0.0833  0.0232  0.1252
 1296ERGO    R217775   5.095  11.457   6.826 -0.0227 -0.2249  0.1827
 1296ERGO    R317776   5.296  11.422   7.006  0.0699 -0.0023  0.1265
 1296ERGO    R417777   5.051  11.434   7.168  0.1074 -0.1701  0.2037
 1296ERGO    R517778   5.231  11.556   7.194  0.0140 -0.0052  0.1113
 1296ERGO    C117779   5.214  11.388   7.537  0.2700  0.0707  0.1630
 1296ERGO    C217780   5.174  11.231   7.839  0.0264 -0.1737 -0.2274
 1297ERGO   ROH17781  13.942   4.052   6.147 -0.3194  0.0012 -0.0078
 1297ERGO    R117782  13.788   3.894   6.325 -0.1491 -0.0381  0.1052
 1297ERGO    R217783  13.856   3.633   6.388 -0.0376 -0.0183  0.0532
 1297ERGO    R317784  13.843   3.726   6.643  0.1256 -0.0286  0.0670
 1297ERGO    R417785  13.739   3.453   6.659 -0.0374  0.0266  0.0841
 1297ERGO    R517786  13.640   3.633   6.731  0.1004  0.0859  0.1409
 1297ERGO    C117787  13.659   3.435   7.056  0.1159  0.0431  0.1151
 1297ERGO    C217788  13.620   3.500   7.397  0.0780  0.0088 -0.0452
 1298ERGO   ROH17789   9.909  12.335   6.445  0.0458 -0.2001  0.0537
 1298ERGO    R117790  10.051  12.297   6.687  0.0656 -0.0485  0.0665
 1298ERGO    R217791  10.126  12.508   6.850 -0.0712  0.0415  0.0148
 1298ERGO    R317792   9.994  12.366   7.040  0.0155  0.0056  0.0485
 1298ERGO    R417793  10.200  12.514   7.187  0.0585  0.0105 -0.0127
 1298ERGO    R517794  10.166  12.299   7.194  0.0824  0.0051 -0.0247
 1298ERGO    C117795  10.120  12.383   7.563  0.2153 -0.0414  0.0030
 1298ERGO    C217796  10.172  12.529   7.801  0.1298  0.2944 -0.3255
 1299ERGO   ROH17797  15.070  10.472   5.845  0.1924 -0.1182  0.0569
 1299ERGO    R117798  15.009  10.388   6.108 -0.0527 -0.0414  0.0283
 1299ERGO    R217799  15.202  10.294   6.282 -0.2649 -0.3389  0.1153
 1299ERGO    R317800  15.103  10.488   6.445 -0.0527 -0.1924  0.0729
 1299ERGO    R417801  15.258  10.314   6.623 -0.1641 -0.2637  0.0943
 1299ERGO    R517802  15.051  10.374   6.649 -0.1037 -0.0707  0.1264
 1299ERGO    C117803  15.198  10.508   6.974  0.0938 -0.0825  0.0423
 1299ERGO    C217804  15.264  10.598   7.339  0.1063  0.1974 -0.0712
 1300ERGO   ROH17805   7.164  10.667   6.106  0.1653  0.1920 -0.0050
 1300ERGO    R117806   7.220  10.726   6.377  0.1286  0.0954  0.0248
 1300ERGO    R217807   7.165  10.973   6.490  0.1217  0.0615  0.1047
 1300ERGO    R317808   7.029  10.823   6.671  0.0882  0.0006  0.0288
 1300ERGO    R417809   7.094  11.070   6.813  0.0377 -0.0455  0.1186
 1300ERGO    R517810   7.138  10.867   6.879  0.0327 -0.0586  0.0672
 1300ERGO    C117811   6.925  10.986   7.172 -0.0425 -0.1651  0.0554
 1300ERGO    C217812   6.862  11.216   7.329  0.1262  0.0312  0.0621
 1301ERGO   ROH17813   0.110   4.793   6.535 -0.0358 -0.0953  0.0733
 1301ERGO    R117814   0.225   4.962   6.730 -0.0010 -0.0965  0.0533
 1301ERGO    R217815   0.077   5.146   6.874  0.0415 -0.0353  0.0152
 1301ERGO    R317816   0.186   5.019   7.088 -0.0050 -0.0294  0.0430
 1301ERGO    R417817   0.062   5.260   7.200 -0.1721 -0.1041  0.0317
 1301ERGO    R517818   0.269   5.196   7.226 -0.1527 -0.0160  0.1196
 1301ERGO    C117819   0.156   5.207   7.590 -0.3400 -0.1386  0.0675
 1301ERGO    C217820   0.198   5.280   7.936  0.0183  0.1499 -0.3037
 1302ERGO   ROH17821   3.572   1.426   6.895 -0.0401  0.3702 -0.0319
 1302ERGO    R117822   3.501   1.281   7.128 -0.0828  0.3362 -0.0668
 1302ERGO    R217823   3.689   1.160   7.291 -0.1260  0.1741 -0.1419
 1302ERGO    R317824   3.567   1.306   7.485 -0.0048  0.1799 -0.0678
 1302ERGO    R417825   3.702   1.091   7.630 -0.3120 -0.1135 -0.1892
 1302ERGO    R517826   3.492   1.145   7.644 -0.2576  0.1404 -0.2170
 1302ERGO    C117827   3.595   1.189   8.009 -0.3065 -0.2755 -0.1472
 1302ERGO    C217828   3.790   1.154   8.249  0.2078  0.3674  0.1261
 1303ERGO   ROH17829   3.569  14.019   6.199  0.1659 -0.0243  0.0565
 1303ERGO    R117830   3.535  13.920   6.462 -0.0244 -0.0067  0.0400
 1303ERGO    R217831   3.745  13.894   6.639 -0.0942 -0.3048  0.0849
 1303ERGO    R317832   3.586  14.045   6.800  0.0686 -0.1056  0.0628
 1303ERGO    R417833   3.789  13.934   6.980 -0.0283 -0.2670  0.0721
 1303ERGO    R517834   3.573  13.921   7.004 -0.0407 -0.0443  0.0931
 1303ERGO    C117835   3.666  14.099   7.329  0.1629 -0.0581  0.0439
 1303ERGO    C217836   3.750  14.121   7.651  0.4066  0.3020  0.1442
 1304ERGO   ROH17837   6.800   2.310   6.588 -0.3207 -0.2093 -0.0027
 1304ERGO    R117838   6.645   2.288   6.824 -0.2100 -0.1706  0.0762
 1304ERGO    R217839   6.705   2.110   7.026 -0.0863 -0.1082  0.1040
 1304ERGO    R317840   6.698   2.333   7.181 -0.0490 -0.0619  0.0375
 1304ERGO    R417841   6.732   2.111   7.370  0.3375  0.0379  0.0751
 1304ERGO    R517842   6.577   2.265   7.377  0.2413 -0.0725  0.2118
 1304ERGO    C117843   6.741   2.322   7.717  0.6193  0.1665 -0.0041
 1304ERGO    C217844   6.670   2.391   8.113 -0.0671 -0.3565  0.3921
 1305ERGO   ROH17845   9.613  10.163   6.389 -0.0725 -0.2147 -0.0877
 1305ERGO    R117846   9.702  10.129   6.655 -0.0296 -0.2305 -0.1045
 1305ERGO    R217847   9.620  10.293   6.861  0.1345 -0.1391 -0.1129
 1305ERGO    R317848   9.550  10.058   6.978  0.0018 -0.0714 -0.0531
 1305ERGO    R417849   9.578  10.246   7.201 -0.1637  0.0403 -0.1209
 1305ERGO    R517850   9.676  10.052   7.181 -0.1714  0.0142  0.0610
 1305ERGO    C117851   9.488   9.998   7.509 -0.4621  0.2083 -0.0694
 1305ERGO    C217852   9.406   9.989   7.910  0.0676  0.2540  0.0029
 1306ERGO   ROH17853  11.852  16.162   6.321  0.2029 -0.1493  0.0261
 1306ERGO    R117854  11.809  16.210   6.597  0.0837 -0.1976  0.0165
 1306ERGO    R217855  11.864  16.020   6.791  0.2753 -0.1306  0.0303
 1306ERGO    R317856  12.013  16.220   6.899  0.0078  0.0577  0.0613
 1306ERGO    R417857  11.943  16.049   7.126  0.4255 -0.2066  0.0020
 1306ERGO    R517858  11.910  16.264   7.110  0.0551 -0.2451  0.1513
 1306ERGO    C117859  12.129  16.253   7.422  0.2616 -0.0743  0.0146
 1306ERGO    C217860  12.033  16.047   7.736  0.1096  0.4882  0.3178
 1307ERGO   ROH17861   5.805  14.417   6.734 -0.1012  0.0531 -0.1092
 1307ERGO    R117862   5.691  14.328   6.978 -0.0651  0.0479 -0.0947
 1307ERGO    R217863   5.840  14.291   7.207 -0.0379  0.0780 -0.1090
 1307ERGO    R317864   5.655  14.458   7.316 -0.0503  0.0569 -0.0964
 1307ERGO    R417865   5.766  14.312   7.544  0.0436  0.1326 -0.0935
 1307ERGO    R517866   5.555  14.330   7.492  0.0254  0.0705 -0.0430
 1307ERGO    C117867   5.548  14.480   7.842  0.0794  0.1445 -0.0727
 1307ERGO    C217868   5.308  14.418   8.125  0.1811  0.0556  0.2648
 1308ERGO   ROH17869  16.199   8.398   6.146  0.2476 -0.0361 -0.0531
 1308ERGO    R117870  16.094   8.392   6.408  0.1453  0.1597 -0.0867
 1308ERGO    R217871  16.113   8.170   6.572 -0.2820  0.1283 -0.0570
 1308ERGO    R317872  16.225   8.347   6.745 -0.0368 -0.0381 -0.0423
 1308ERGO    R417873  16.083   8.155   6.916 -0.1649  0.0677 -0.0498
 1308ERGO    R517874  16.062   8.372   6.918  0.0597  0.0838  0.0243
 1308ERGO    C117875  16.171   8.313   7.278  0.1333 -0.1239 -0.0318
 1308ERGO    C217876  16.133   8.197   7.455  0.0090  0.2507 -0.2142
 1309ERGO   ROH17877  13.515  14.713   6.268  0.2707 -0.1305  0.1442
 1309ERGO    R117878  13.595  14.669   6.536  0.0373 -0.1798  0.2070
 1309ERGO    R217879  13.642  14.875   6.714  0.1345 -0.2065  0.2042
 1309ERGO    R317880  13.462  14.741   6.867 -0.1163  0.0076  0.1086
 1309ERGO    R417881  13.602  14.917   7.055  0.1603 -0.3029  0.2200
 1309ERGO    R517882  13.577  14.701   7.073 -0.1996 -0.2846  0.1097
 1309ERGO    C117883  13.411  14.815   7.397 -0.0602 -0.1580  0.1395
 1309ERGO    C217884  13.402  15.061   7.661  0.0484  0.0387  0.0080
 1310ERGO   ROH17885   4.396  11.588   6.268 -0.2176 -0.0835  0.0877
 1310ERGO    R117886   4.299  11.431   6.482  0.1868 -0.2298  0.1729
 1310ERGO    R217887   4.439  11.397   6.718  0.1826  0.4767  0.2927
 1310ERGO    R317888   4.208  11.486   6.831 -0.2165 -0.1983  0.0699
 1310ERGO    R417889   4.342  11.333   7.043  0.4058  0.7157  0.4099
 1310ERGO    R517890   4.138  11.305   6.972  0.4860 -0.2436  0.4153
 1310ERGO    C117891   4.069  11.380   7.339  0.1611  0.2210  0.2689
 1310ERGO    C217892   4.004  11.309   7.558 -0.0015  0.5159  0.1522
 1311ERGO   ROH17893  10.154  17.913   6.300 -0.0271  0.0227 -0.1705
 1311ERGO    R117894  10.220  17.835   6.563 -0.1338 -0.0915 -0.1785
 1311ERGO    R217895  10.282  18.017   6.761  0.0525 -0.1930 -0.1525
 1311ERGO    R317896  10.085  17.888   6.897 -0.0983  0.0047 -0.1771
 1311ERGO    R417897  10.233  18.036   7.103  0.0433 -0.1420 -0.1553
 1311ERGO    R517898  10.188  17.823   7.103 -0.1781 -0.1051 -0.1648
 1311ERGO    C117899  10.019  17.927   7.429 -0.1037  0.0732 -0.1800
 1311ERGO    C217900  10.035  17.915   7.797 -0.0635  0.0536  0.0103
 1312ERGO   ROH17901  11.377  15.238   6.479 -0.1630 -0.0511 -0.1470
 1312ERGO    R117902  11.173  15.171   6.664 -0.0925 -0.0344 -0.0614
 1312ERGO    R217903  11.227  15.103   6.926  0.0105 -0.0329 -0.0783
 1312ERGO    R317904  11.050  15.302   6.981  0.0471 -0.0191 -0.0137
 1312ERGO    R417905  11.061  15.143   7.227  0.2861  0.1083  0.0568
 1312ERGO    R517906  10.882  15.197   7.116  0.1788  0.0384  0.1967
 1312ERGO    C117907  10.799  15.354   7.453  0.4808  0.2034  0.1962
 1312ERGO    C217908  10.625  15.325   7.761  0.1096  0.2260  0.3059
 1313ERGO   ROH17909  17.122   4.989   6.246  0.1190 -0.1653  0.1112
 1313ERGO    R117910  17.093   4.873   6.502  0.2474 -0.0196  0.1936
 1313ERGO    R217911  17.266   4.927   6.710  0.1261  0.4123  0.1952
 1313ERGO    R317912  17.038   4.993   6.842 -0.0103  0.1568  0.0926
 1313ERGO    R417913  17.240   4.967   7.053 -0.0782  0.3720  0.1850
 1313ERGO    R517914  17.047   4.866   7.044  0.0349  0.1590  0.0913
 1313ERGO    C117915  17.009   5.053   7.375 -0.3252  0.1087  0.0827
 1313ERGO    C217916  16.909   5.028   7.563  0.2828  0.1155 -0.4126
 1314ERGO   ROH17917   2.139  18.038   6.565  0.3949  0.3233 -0.1384
 1314ERGO    R117918   2.037  18.226   6.750  0.0828  0.1641 -0.1409
 1314ERGO    R217919   1.810  18.180   6.900  0.1553 -0.2117 -0.1343
 1314ERGO    R317920   1.974  18.237   7.108  0.0702  0.0669 -0.1405
 1314ERGO    R417921   1.713  18.183   7.232  0.1177 -0.1684 -0.1459
 1314ERGO    R517922   1.836  18.361   7.260 -0.0839 -0.0175 -0.2115
 1314ERGO    C117923   1.812  18.239   7.621  0.0159  0.1184 -0.1584
 1314ERGO    C217924   1.874  18.088   7.993 -0.5518 -0.0612  0.1302
 1315ERGO   ROH17925   6.003  14.833   6.891 -0.0384  0.0361 -0.0896
 1315ERGO    R117926   6.024  14.752   7.161 -0.0312  0.0462 -0.0867
 1315ERGO    R217927   6.091  14.927   7.365  0.0120  0.0469 -0.0988
 1315ERGO    R317928   5.860  14.836   7.476  0.0048  0.0887 -0.0802
 1315ERGO    R417929   6.020  14.929   7.703  0.1213 -0.1357 -0.0732
 1315ERGO    R517930   5.929  14.733   7.680  0.0194 -0.0754 -0.1688
 1315ERGO    C117931   5.762  14.845   8.004  0.1781 -0.2027 -0.0408
 1315ERGO    C217932   5.777  14.918   8.304 -0.0319 -0.0543  0.0165
 1316ERGO   ROH17933   1.245   6.099   6.345  0.1926 -0.0144 -0.0015
 1316ERGO    R117934   1.333   6.232   6.579  0.0825  0.0540  0.0015
 1316ERGO    R217935   1.167   6.390   6.733  0.0138  0.1052 -0.1303
 1316ERGO    R317936   1.250   6.226   6.933 -0.0890  0.1668 -0.0348
 1316ERGO    R417937   1.178   6.476   7.067  0.1471  0.3285 -0.1896
 1316ERGO    R517938   1.368   6.371   7.084  0.0642  0.1744 -0.1551
 1316ERGO    C117939   1.263   6.373   7.450  0.1282  0.5164 -0.1344
 1316ERGO    C217940   1.354   6.337   7.700  0.0221  0.0392  0.0577
 1317ERGO   ROH17941   6.843   9.428   6.017 -0.0349  0.1669 -0.0156
 1317ERGO    R117942   6.748   9.356   6.273 -0.0108  0.0536 -0.0379
 1317ERGO    R217943   6.912   9.251   6.469  0.0238  0.0435 -0.0720
 1317ERGO    R317944   6.812   9.456   6.617 -0.0419 -0.0356 -0.0060
 1317ERGO    R417945   6.903   9.259   6.815 -0.0742 -0.1137 -0.0700
 1317ERGO    R517946   6.704   9.349   6.802 -0.0810 -0.1323 -0.0844
 1317ERGO    C117947   6.804   9.456   7.154 -0.1930 -0.2794 -0.0068
 1317ERGO    C217948   6.796   9.443   7.424 -0.0209 -0.0552  0.1155
 1318ERGO   ROH17949  12.439  13.289   5.969 -0.2033  0.0760  0.0472
 1318ERGO    R117950  12.471  13.248   6.247 -0.1973 -0.0193  0.0349
 1318ERGO    R217951  12.580  13.440   6.415 -0.0100 -0.1433  0.0755
 1318ERGO    R317952  12.349  13.404   6.553 -0.0270  0.0126  0.0839
 1318ERGO    R417953  12.555  13.413   6.759 -0.0082 -0.3220  0.0611
 1318ERGO    R517954  12.407  13.257   6.732 -0.1656 -0.1478 -0.0109
 1318ERGO    C117955  12.324  13.364   7.088 -0.0231 -0.2795  0.0605
 1318ERGO    C217956  12.300  13.407   7.483  0.1338 -0.2574 -0.0771
 1319ERGO   ROH17957   6.502   5.116   8.359  0.2162  0.0792 -0.0036
 1319ERGO    R117958   6.326   5.323   8.438  0.2565  0.1024  0.0299
 1319ERGO    R217959   6.340   5.579   8.335  0.2644  0.1034  0.0200
 1319ERGO    R317960   6.078   5.535   8.277  0.2494  0.1263  0.0753
 1319ERGO    R417961   6.126   5.815   8.203  0.3278  0.0335 -0.2099
 1319ERGO    R517962   5.969   5.741   8.336  0.3130  0.2170 -0.1293
 1319ERGO    C117963   5.755   5.912   8.071  0.3505  0.0144 -0.2920
 1319ERGO    C217964   5.563   6.180   7.868 -0.0988 -0.2569 -0.1423
 1320ERGO   ROH17965  15.039  11.857   5.808 -0.1869  0.3024  0.0192
 1320ERGO    R117966  15.026  11.869   6.090 -0.0507  0.2188  0.0315
 1320ERGO    R217967  14.826  11.745   6.235 -0.0499  0.2663  0.0891
 1320ERGO    R317968  15.036  11.631   6.365 -0.0393  0.1225 -0.0545
 1320ERGO    R417969  14.842  11.691   6.576  0.2210  0.3950  0.0982
 1320ERGO    R517970  15.051  11.751   6.572  0.2709  0.1913 -0.1193
 1320ERGO    C117971  15.048  11.552   6.897  0.3888  0.3351 -0.0313
 1320ERGO    C217972  15.270  11.612   7.166  0.1220  0.0436  0.0005
 1321ERGO   ROH17973  13.944  12.841   6.114  0.1521  0.0283 -0.0009
 1321ERGO    R117974  13.983  12.953   6.371  0.1145 -0.0683  0.0485
 1321ERGO    R217975  13.970  13.225   6.418  0.3656 -0.0590  0.1009
 1321ERGO    R317976  13.787  13.152   6.605  0.1745  0.0803 -0.0291
 1321ERGO    R417977  13.953  13.353   6.738  0.2831 -0.1190  0.1203
 1321ERGO    R517978  13.909  13.153   6.811  0.0393 -0.0877  0.0485
 1321ERGO    C117979  13.771  13.359   7.100  0.0556 -0.0230  0.0095
 1321ERGO    C217980  13.668  13.446   7.496 -0.2738  0.4288 -0.2147
 1322ERGO   ROH17981   6.705   4.198   6.394  0.1777  0.0474 -0.0439
 1322ERGO    R117982   6.678   4.172   6.675 -0.0451  0.0192 -0.0671
 1322ERGO    R217983   6.894   4.178   6.847 -0.1564 -0.2529  0.0838
 1322ERGO    R317984   6.753   4.376   6.967 -0.0245 -0.1209  0.0266
 1322ERGO    R417985   6.898   4.245   7.186 -0.1005 -0.1463  0.0633
 1322ERGO    R517986   6.683   4.281   7.176 -0.0794 -0.0102  0.0603
 1322ERGO    C117987   6.767   4.471   7.496  0.0557  0.0396 -0.0024
 1322ERGO    C217988   6.930   4.539   7.819  0.0193  0.1911  0.2266
 1323ERGO   ROH17989  16.380   6.508   6.290 -0.1025  0.1250 -0.0976
 1323ERGO    R117990  16.315   6.692   6.495  0.0719  0.1244 -0.0414
 1323ERGO    R217991  16.160   6.623   6.714  0.1090  0.1733 -0.0070
 1323ERGO    R317992  16.372   6.720   6.854  0.2080  0.0301 -0.0531
 1323ERGO    R417993  16.160   6.684   7.054  0.1846  0.2512 -0.0199
 1323ERGO    R517994  16.274   6.867   7.016  0.3382  0.1543 -0.0769
 1323ERGO    C117995  16.359   6.811   7.383  0.3217  0.1622 -0.0706
 1323ERGO    C217996  16.429   6.865   7.720  0.0905 -0.1819  0.2235
 1324ERGO   ROH17997  14.330   8.244   6.449 -0.0582  0.1750 -0.1467
 1324ERGO    R117998  14.118   8.361   6.596 -0.2350 -0.1053 -0.1688
 1324ERGO    R217999  13.918   8.212   6.714  0.2203 -0.4257  0.2358
 1324ERGO    R318000  13.994   8.347   6.938  0.0859  0.1299 -0.0377
 1324ERGO    R418001  13.712   8.279   6.984  0.3251 -0.6885  0.3844
 1324ERGO    R518002  13.802   8.477   6.997 -0.2613 -0.3735 -0.0030
 1324ERGO    C118003  13.664   8.444   7.351  0.2600 -0.3198  0.2141
 1324ERGO    C218004  13.463   8.569   7.720  0.0685  0.1728 -0.0592
 1325ERGO   ROH18005  15.151   0.283   8.190  0.1807  0.0546 -0.1210
 1325ERGO    R118006  15.236   0.493   8.020  0.2306  0.0494 -0.1020
 1325ERGO    R218007  15.110   0.738   8.013  0.1203 -0.0127 -0.2753
 1325ERGO    R318008  15.361   0.832   8.061  0.0364  0.1206 -0.0817
 1325ERGO    R418009  15.188   1.069   8.077 -0.0810  0.0738 -0.4633
 1325ERGO    R518010  15.366   1.045   7.953  0.0663  0.0354 -0.2566
 1325ERGO    C118011  15.469   1.349   8.159 -0.2770  0.2492 -0.3910
 1325ERGO    C218012  15.432   1.651   8.159  0.0628 -0.0304 -0.0438
 1326ERGO   ROH18013  13.622   9.106   5.747 -0.1590 -0.1353  0.1113
 1326ERGO    R118014  13.497   9.167   5.994 -0.1183 -0.0597  0.1154
 1326ERGO    R218015  13.562   9.036   6.230 -0.1908 -0.1033  0.1200
 1326ERGO    R318016  13.602   9.289   6.320 -0.0316 -0.1254  0.1103
 1326ERGO    R418017  13.521   9.139   6.557 -0.3006 -0.0131  0.0775
 1326ERGO    R518018  13.431   9.323   6.483 -0.0974  0.0484  0.0001
 1326ERGO    C118019  13.534   9.436   6.832 -0.2151  0.0186  0.0435
 1326ERGO    C218020  13.639   9.429   7.134  0.3961 -0.3358 -0.2456
 1327ERGO   ROH18021  15.004   3.300   6.091 -0.1063  0.0227 -0.0970
 1327ERGO    R118022  15.021   3.372   6.364 -0.0425  0.0674 -0.1132
 1327ERGO    R218023  14.797   3.403   6.524  0.0054 -0.1079 -0.0159
 1327ERGO    R318024  14.926   3.225   6.683  0.2321  0.0218 -0.0490
 1327ERGO    R418025  14.682   3.292   6.830  0.0139 -0.4860 -0.1446
 1327ERGO    R518026  14.886   3.303   6.906 -0.0386 -0.1692 -0.0223
 1327ERGO    C118027  14.736   3.059   7.158  0.2316 -0.5846 -0.2507
 1327ERGO    C218028  14.797   2.941   7.507  0.1159  0.0321  0.2922
 1328ERGO   ROH18029   5.459  10.048   6.462 -0.1732 -0.2838  0.0478
 1328ERGO    R118030   5.481   9.933   6.720  0.0436 -0.1189  0.1071
 1328ERGO    R218031   5.595  10.067   6.933  0.0243  0.1073 -0.0149
 1328ERGO    R318032   5.359  10.009   7.054  0.1249 -0.0322  0.1159
 1328ERGO    R418033   5.564   9.914   7.242  0.2724 -0.0680 -0.0741
 1328ERGO    R518034   5.397   9.798   7.162  0.2589 -0.0749 -0.0210
 1328ERGO    C118035   5.324   9.771   7.535  0.5113 -0.3012  0.0142
 1328ERGO    C218036   5.300   9.785   7.942  0.1155  0.3849  0.0790
 1329ERGO   ROH18037   6.560   3.137   6.481 -0.0229 -0.3112  0.1153
 1329ERGO    R118038   6.646   3.196   6.744  0.0306 -0.2124  0.0762
 1329ERGO    R218039   6.486   3.329   6.927  0.0789 -0.1177  0.0497
 1329ERGO    R318040   6.539   3.112   7.082  0.0801 -0.0599  0.1307
 1329ERGO    R418041   6.469   3.324   7.272 -0.1420 -0.0500  0.0415
 1329ERGO    R518042   6.650   3.203   7.274 -0.0852  0.0338  0.1842
 1329ERGO    C118043   6.509   3.119   7.619 -0.2695  0.0436  0.1128
 1329ERGO    C218044   6.511   3.122   7.860 -0.0273 -0.0110  0.1352
 1330ERGO   ROH18045   9.061  11.587   6.444  0.3220  0.0083 -0.2034
 1330ERGO    R118046   9.250  11.672   6.636  0.2439  0.0360 -0.1401
 1330ERGO    R218047   9.178  11.757   6.889  0.1493 -0.0151 -0.1560
 1330ERGO    R318048   9.356  11.568   6.968  0.1812  0.0265 -0.1214
 1330ERGO    R418049   9.336  11.752   7.196 -0.1239 -0.1255 -0.0125
 1330ERGO    R518050   9.519  11.689   7.095  0.0056  0.0380  0.1061
 1330ERGO    C118051   9.595  11.571   7.450 -0.2531 -0.1505  0.1036
 1330ERGO    C218052   9.893  11.462   7.827  0.1589  0.2507  0.0055
 1331ERGO   ROH18053   8.473  15.931   6.725  0.1113  0.1548  0.1715
 1331ERGO    R118054   8.621  15.827   6.943  0.1552  0.1769  0.1523
 1331ERGO    R218055   8.803  15.979   7.084  0.0732  0.2351  0.1945
 1331ERGO    R318056   8.654  15.900   7.298  0.1052  0.1092  0.1715
 1331ERGO    R418057   8.850  16.089   7.408  0.0849  0.0927  0.2422
 1331ERGO    R518058   8.812  15.886   7.478  0.1254  0.0519  0.1506
 1331ERGO    C118059   8.738  16.080   7.798  0.1217 -0.1084  0.2485
 1331ERGO    C218060   8.835  16.318   8.065  0.1631  0.1926  0.1644
 1332ERGO   ROH18061   4.356  10.122   6.365 -0.1288 -0.0707 -0.0599
 1332ERGO    R118062   4.406  10.112   6.643  0.0443 -0.0222 -0.0880
 1332ERGO    R218063   4.203  10.095   6.830  0.1493  0.1965  0.0500
 1332ERGO    R318064   4.344   9.879   6.915  0.0342  0.1106  0.0254
 1332ERGO    R418065   4.241  10.002   7.161  0.1297  0.1633  0.0428
 1332ERGO    R518066   4.449   9.952   7.118  0.0987  0.0443  0.0179
 1332ERGO    C118067   4.396   9.745   7.433  0.0101  0.0633  0.0157
 1332ERGO    C218068   4.360   9.666   7.751  0.0722 -0.1319 -0.0886
 1333ERGO   ROH18069  17.106   7.278   6.259 -0.1859  0.1532  0.0547
 1333ERGO    R118070  17.274   7.291   6.486 -0.1349 -0.2056  0.0421
 1333ERGO    R218071  17.244   7.483   6.683  0.3130 -0.1085  0.0221
 1333ERGO    R318072  17.232   7.266   6.847 -0.1691 -0.0755  0.0483
 1333ERGO    R418073  17.281   7.494   7.026  0.3156 -0.1449  0.0237
 1333ERGO    R518074  17.399   7.310   7.014 -0.0752 -0.4122  0.0536
 1333ERGO    C118075  17.293   7.297   7.380 -0.1355 -0.1351  0.0492
 1333ERGO    C218076  17.278   7.260   7.726  0.1687  0.2804  0.1736
 1334ERGO   ROH18077   2.982   0.458   6.674  0.0796  0.0672  0.0588
 1334ERGO    R118078   2.940   0.386   6.944  0.0722 -0.1217  0.0080
 1334ERGO    R218079   3.091   0.193   7.072  0.2112 -0.0573 -0.0623
 1334ERGO    R318080   3.133   0.391   7.252 -0.0145 -0.1200  0.0637
 1334ERGO    R418081   3.255   0.153   7.373  0.3755 -0.0437 -0.1482
 1334ERGO    R518082   3.107   0.285   7.465  0.2110 -0.3179 -0.0003
 1334ERGO    C118083   3.390   0.317   7.719  0.2594 -0.0945 -0.0799
 1334ERGO    C218084   3.423   0.347   8.102 -0.3350 -0.0670 -0.3822
 1335ERGO   ROH18085   5.282  14.423   6.872 -0.0817  0.1064 -0.1364
 1335ERGO    R118086   5.290  14.362   7.148 -0.0488  0.0294 -0.1551
 1335ERGO    R218087   5.063  14.358   7.307 -0.0303 -0.0431 -0.1385
 1335ERGO    R318088   5.149  14.108   7.367  0.0046 -0.0501 -0.2103
 1335ERGO    R418089   4.990  14.190   7.599  0.0542 -0.1006 -0.1490
 1335ERGO    R518090   5.194  14.115   7.602  0.0652 -0.0878 -0.2170
 1335ERGO    C118091   5.028  13.856   7.826  0.1362 -0.1405 -0.2226
 1335ERGO    C218092   5.123  13.623   8.094  0.4123 -0.2270 -0.1060
 1336ERGO   ROH18093  11.297  12.315   6.009  0.1103  0.0139 -0.0414
 1336ERGO    R118094  11.117  12.231   6.211  0.0619 -0.0261 -0.1006
 1336ERGO    R218095  11.161  12.005   6.365  0.0821  0.0058 -0.0601
 1336ERGO    R318096  11.131  12.179   6.571 -0.0574  0.0176 -0.0892
 1336ERGO    R418097  11.117  11.914   6.695  0.1127  0.0247 -0.0506
 1336ERGO    R518098  10.970  12.074   6.715 -0.0002 -0.0716 -0.0892
 1336ERGO    C118099  11.063  12.024   7.081 -0.0004  0.0467 -0.0724
 1336ERGO    C218100  11.034  12.141   7.370  0.0326 -0.1539  0.2831
 1337ERGO   ROH18101   7.193   6.732   7.475  0.1176  0.0741 -0.1106
 1337ERGO    R118102   7.316   6.941   7.620  0.0499  0.1491 -0.1588
 1337ERGO    R218103   7.256   7.207   7.577 -0.1432  0.1159 -0.1209
 1337ERGO    R318104   7.208   7.206   7.845 -0.0205  0.0697 -0.0993
 1337ERGO    R418105   7.260   7.487   7.780 -0.1137  0.0890 -0.0854
 1337ERGO    R518106   7.360   7.369   7.933 -0.0175  0.0914 -0.1472
 1337ERGO    C118107   7.218   7.650   8.149  0.0186  0.0299 -0.0444
 1337ERGO    C218108   7.241   7.951   8.300  0.1968  0.0108 -0.2046
 1338ERGO   ROH18109  15.096   0.190   6.197 -0.1267  0.0742  0.0789
 1338ERGO    R118110  15.001   0.101   6.448 -0.0317 -0.0593  0.0686
 1338ERGO    R218111  15.077  -0.141   6.559  0.2082 -0.0073  0.0270
 1338ERGO    R318112  15.148   0.015   6.770  0.0663  0.0294  0.0478
 1338ERGO    R418113  15.026  -0.222   6.891  0.1084 -0.0062  0.0122
 1338ERGO    R518114  14.971  -0.015   6.928  0.0166 -0.0269 -0.0199
 1338ERGO    C118115  15.063  -0.123   7.283 -0.0831  0.0291  0.0231
 1338ERGO    C218116  15.125  -0.098   7.606  0.0900  0.4457  0.0346
 1339ERGO   ROH18117  10.986   9.125   6.291  0.1569 -0.2188 -0.0058
 1339ERGO    R118118  10.978   9.047   6.563  0.1184 -0.1350  0.0178
 1339ERGO    R218119  11.047   9.217   6.769  0.0519 -0.0576 -0.0202
 1339ERGO    R318120  10.801   9.152   6.863  0.0440 -0.0685 -0.0500
 1339ERGO    R418121  10.971   9.162   7.101  0.0487 -0.2452 -0.0515
 1339ERGO    R518122  10.844   8.996   7.039  0.0175 -0.1822 -0.1460
 1339ERGO    C118123  10.695   9.068   7.383  0.0394 -0.3647 -0.0978
 1339ERGO    C218124  10.537   9.199   7.630 -0.1813  0.0962 -0.2070
 1340ERGO   ROH18125  12.307  17.367   6.343 -0.3062 -0.0709  0.0744
 1340ERGO    R118126  12.174  17.564   6.497 -0.2480 -0.0237  0.0656
 1340ERGO    R218127  12.203  17.583   6.771 -0.2186 -0.0001  0.0631
 1340ERGO    R318128  12.271  17.840   6.714 -0.1644 -0.0229  0.0263
 1340ERGO    R418129  12.128  17.854   6.971  0.0541  0.0189  0.1433
 1340ERGO    R518130  12.083  17.968   6.790 -0.0504  0.0476  0.1899
 1340ERGO    C118131  12.148  18.254   7.034  0.2638  0.0087  0.1555
 1340ERGO    C218132  12.032  18.382   7.286 -0.0779  0.0040 -0.2077
 1341ERGO   ROH18133   6.890  15.845   6.940 -0.3029 -0.1024  0.0821
 1341ERGO    R118134   6.918  15.942   7.204 -0.2741 -0.1083  0.0801
 1341ERGO    R218135   6.914  15.777   7.425 -0.1604 -0.1212  0.0674
 1341ERGO    R318136   7.152  15.897   7.479 -0.1906 -0.0378  0.0228
 1341ERGO    R418137   7.053  15.806   7.740 -0.0021 -0.2911  0.0161
 1341ERGO    R518138   7.116  16.008   7.688 -0.1363 -0.2139  0.1315
 1341ERGO    C118139   7.357  15.935   7.975  0.0618 -0.3118 -0.0556
 1341ERGO    C218140   7.537  16.016   8.327  0.2534 -0.3125 -0.0405
 1342ERGO   ROH18141  11.397   1.893   5.995 -0.2600  0.1300  0.0385
 1342ERGO    R118142  11.527   1.906   6.246 -0.1151 -0.0035 -0.0284
 1342ERGO    R218143  11.450   2.081   6.445  0.1137  0.0173  0.0451
 1342ERGO    R318144  11.435   1.855   6.594  0.0363  0.0012  0.0128
 1342ERGO    R418145  11.379   2.072   6.783 -0.0167 -0.0187  0.0175
 1342ERGO    R518146  11.530   1.916   6.805 -0.0397 -0.0337  0.0567
 1342ERGO    C118147  11.324   1.853   7.120 -0.1654 -0.0547 -0.0290
 1342ERGO    C218148  11.171   1.941   7.525  0.0247 -0.2511  0.1258
 1343ERGO   ROH18149   6.189   6.022   6.356 -0.0154 -0.0568 -0.1296
 1343ERGO    R118150   6.099   6.120   6.605 -0.0653 -0.0004 -0.1694
 1343ERGO    R218151   5.834   6.180   6.655 -0.0857 -0.0539 -0.2147
 1343ERGO    R318152   5.868   6.010   6.864 -0.0618  0.0221 -0.1566
 1343ERGO    R418153   5.637   6.176   6.939 -0.0933  0.0083 -0.2190
 1343ERGO    R518154   5.817   6.143   7.057 -0.0904  0.0792 -0.2027
 1343ERGO    C118155   5.554   6.014   7.301 -0.0754  0.1159 -0.1670
 1343ERGO    C218156   5.567   5.806   7.547 -0.1389 -0.1502 -0.2386
 1344ERGO   ROH18157  17.046  10.172   6.207 -0.2169 -0.0083 -0.1707
 1344ERGO    R118158  17.164  10.209   6.462 -0.0615 -0.0599 -0.2334
 1344ERGO    R218159  17.146  10.447   6.601  0.0743 -0.0657 -0.1980
 1344ERGO    R318160  17.049  10.287   6.798  0.1469 -0.0633 -0.1605
 1344ERGO    R418161  17.146  10.526   6.938 -0.1733  0.1092 -0.2369
 1344ERGO    R518162  17.200  10.320   6.981  0.0228  0.1903 -0.1019
 1344ERGO    C118163  17.054  10.422   7.319 -0.2489  0.2135 -0.2244
 1344ERGO    C218164  17.071  10.507   7.728  0.0638  0.5286  0.0048
 1345ERGO   ROH18165   3.904   6.927   6.371 -0.2967  0.1732 -0.0502
 1345ERGO    R118166   3.723   6.935   6.588 -0.2729  0.1204 -0.0276
 1345ERGO    R218167   3.517   6.752   6.617 -0.1704  0.0095  0.0409
 1345ERGO    R318168   3.628   6.714   6.861 -0.1125  0.1267  0.0328
 1345ERGO    R418169   3.349   6.636   6.895 -0.0543 -0.0443  0.0886
 1345ERGO    R518170   3.458   6.780   7.016 -0.1300  0.0467  0.0445
 1345ERGO    C118171   3.356   6.532   7.287  0.0678  0.0344  0.1088
 1345ERGO    C218172   3.375   6.191   7.422  0.0208 -0.1074 -0.0078
 1346ERGO   ROH18173   4.773  15.745   6.799  0.2098  0.2491  0.0092
 1346ERGO    R118174   4.675  15.890   7.022  0.0474  0.0685  0.0584
 1346ERGO    R218175   4.440  15.823   7.151  0.0668 -0.1757 -0.0235
 1346ERGO    R318176   4.600  15.820   7.371  0.0233 -0.1577  0.0084
 1346ERGO    R418177   4.329  15.839   7.478  0.0111 -0.0893 -0.0464
 1346ERGO    R518178   4.495  15.971   7.524  0.0226 -0.1101 -0.0421
 1346ERGO    C118179   4.414  15.845   7.874 -0.0621 -0.0220 -0.0299
 1346ERGO    C218180   4.366  15.964   8.239  0.1750 -0.0723  0.0647
 1347ERGO   ROH18181   7.194  14.004   6.563  0.3215  0.1164 -0.0706
 1347ERGO    R118182   7.090  14.012   6.826  0.2784  0.2422 -0.0905
 1347ERGO    R218183   7.134  13.810   7.009 -0.1298  0.1105 -0.1274
 1347ERGO    R318184   7.227  14.014   7.164  0.2160 -0.0905 -0.0603
 1347ERGO    R418185   7.203  13.787   7.347 -0.2851 -0.0864 -0.1079
 1347ERGO    R518186   7.116  13.985   7.374  0.0859  0.0834 -0.1030
 1347ERGO    C118187   7.330  13.964   7.689 -0.0509 -0.3899 -0.0335
 1347ERGO    C218188   7.413  13.975   8.026 -0.0034  0.0603  0.0311
 1348ERGO   ROH18189  13.875  10.444   6.061 -0.0729  0.1005  0.1034
 1348ERGO    R118190  13.928  10.526   6.327 -0.0171  0.1811  0.0701
 1348ERGO    R218191  13.868  10.369   6.546 -0.1806  0.3343  0.1522
 1348ERGO    R318192  14.130  10.407   6.605 -0.1463  0.1213  0.1348
 1348ERGO    R418193  14.008  10.323   6.858 -0.1779  0.2393  0.1358
 1348ERGO    R518194  14.128  10.502   6.825 -0.0394  0.1295  0.1223
 1348ERGO    C118195  14.337  10.333   7.096 -0.1441 -0.0160  0.1098
 1348ERGO    C218196  14.480  10.153   7.358  0.0208 -0.0395 -0.2014
 1349W        W18197   4.292  17.379   1.404  0.3142 -0.2309  0.1973
 1350W        W18198   0.738  13.436  12.251  0.0142  0.0726 -0.0581
 1351W        W18199   2.838   0.660  11.006 -0.2115  0.0316 -0.1103
 1352W        W18200  13.171   5.520   1.682  0.0037  0.2163  0.1076
 1353W        W18201  15.915   1.031   4.667 -0.0635 -0.0187 -0.0517
 1354W        W18202   7.158   1.604  10.787  0.0198  0.1556  0.0537
 1355W        W18203   2.431  11.572  12.888  0.0984 -0.0099 -0.2370
 1356W        W18204  16.454   1.871  16.205 -0.2131 -0.0335 -0.0180
 1357W        W18205   7.675  11.648  10.170 -0.2169 -0.2692  0.0277
 1358W        W18206  11.448  17.828  13.299  0.3249 -0.1605  0.1539
 1359W        W18207   3.698  14.730   2.705  0.2502  0.2054 -0.0758
 1360W        W18208   9.159   0.043  12.683 -0.0288 -0.2535  0.1060
 1361W        W18209   6.283  16.634   3.356 -0.2377  0.0540 -0.0807
 1362W        W18210   5.891   1.153  13.251  0.0382  0.0293  0.0295
 1363W        W18211  14.317   7.349  15.974 -0.2954  0.4502 -0.2063
 1364W        W18212  14.928   9.254  13.703 -0.0473  0.0412  0.0980
 1365W        W18213  10.684   8.345   3.109  0.0166 -0.1176  0.0980
 1366W        W18214   8.369   4.990   2.543  0.0293 -0.0643 -0.2599
 1367W        W18215   8.238   1.518   0.143 -0.3079 -0.0492  0.5435
 1368W        W18216   4.670   0.911  14.340 -0.3050  0.0576 -0.0432
 1369W        W18217  16.632   1.928  14.516 -0.1819 -0.2504  0.0192
 1370W        W18218   9.327   0.403  14.078  0.1340 -0.2053 -0.0530
 1371W        W18219   4.966   9.559  14.667 -0.0444  0.3495  0.0226
 1372W        W18220   6.475   9.238   5.058  0.0944  0.1978 -0.0851
 1373W        W18221   4.288  17.073  13.457 -0.0320 -0.0083 -0.1391
 1374W        W18222   4.699  14.708  11.897  0.2076  0.0600  0.0157
 1375W        W18223   7.923  10.083  11.037 -0.0072  0.2062  0.0877
 1376W        W18224  12.944   3.375  13.769 -0.1224 -0.1268 -0.2341
 1377W        W18225  14.307  16.556   3.579 -0.0149 -0.0325  0.1313
 1378W        W18226   2.150   0.444   5.227 -0.2266 -0.1192  0.0839
 1379W        W18227   3.023   3.304   4.574 -0.0833 -0.0782  0.0896
 1380W        W18228  11.724   5.326  15.525 -0.2155 -0.0885 -0.0854
 1381W        W18229   5.250   1.168  15.055 -0.0265 -0.4033  0.1752
 1382W        W18230  16.033   5.871  12.770 -0.0818  0.1574 -0.3525
 1383W        W18231   1.871  12.285  12.774  0.0469  0.0735  0.1141
 1384W        W18232   0.943  15.567  11.287  0.0192  0.1390 -0.0201
 1385W        W18233   5.922   1.769  13.291  0.1764  0.2941  0.0190
 1386W        W18234  17.266  12.428   5.207 -0.3117  0.0393 -0.2834
 1387W        W18235   1.683  17.981   2.515 -0.1192 -0.1329 -0.2333
 1388W        W18236   2.693   7.702   6.039 -0.1151 -0.0933 -0.0124
 1389W        W18237   0.849  13.871  12.583 -0.3374 -0.0965 -0.2339
 1390W        W18238   6.250   0.108   2.752 -0.0012 -0.0250  0.2303
 1391W        W18239  14.477   7.761  11.246  0.1878  0.0531  0.0403
 1392W        W18240   2.916  15.209  14.216 -0.0357 -0.1967 -0.4490
 1393W        W18241  17.041  13.600   2.320 -0.0582  0.0448  0.0414
 1394W        W18242   3.758   6.594  11.712 -0.3086  0.0442  0.2309
 1395W        W18243   9.338   4.226  12.386 -0.1730  0.0849 -0.2282
 1396W        W18244  11.173   2.101   3.554 -0.2711  0.1586 -0.0569
 1397W        W18245  15.577   4.049   0.617  0.0505  0.1436  0.1268
 1398W        W18246  10.864   7.415   3.102  0.0079  0.0444  0.0079
 1399W        W18247   5.093  16.278   4.548  0.2181  0.0410 -0.1331
 1400W        W18248   2.005  17.547   2.515  0.0962 -0.2181  0.1688
 1401W        W18249  15.230   9.383  14.607 -0.2490  0.0803  0.0552
 1402W        W18250  16.059   1.911   4.183  0.4206 -0.0905 -0.0494
 1403W        W18251   6.644  10.349  11.159  0.0848 -0.1737  0.0730
 1404W        W18252  17.997  12.672  15.469 -0.2584 -0.0151  0.1784
 1405W        W18253  17.038  16.758   5.102 -0.0549 -0.0369  0.0865
 1406W        W18254  17.469   6.007  15.150  0.1546 -0.1133 -0.0056
 1407W        W18255  12.280   9.368   4.343  0.0175 -0.0196 -0.3040
 1408W        W18256  11.435   9.353  12.900  0.1466  0.0354  0.1697
 1409W        W18257  14.035   6.925   0.772  0.1519 -0.0283 -0.0467
 1410W        W18258  14.632   9.267   1.508 -0.0497  0.3280  0.2347
 1411W        W18259   7.298   7.633   0.730  0.1949  0.1386 -0.2701
 1412W        W18260   1.941   7.615   3.222 -0.0587  0.1646  0.1626
 1413W        W18261  14.422   3.683   4.697  0.2389 -0.0634 -0.1720
 1414W        W18262  14.283   1.259  13.865 -0.1417  0.2001 -0.0246
 1415W        W18263   0.378   4.818   0.920  0.0189  0.1389  0.0961
 1416W        W18264  13.904   5.842  13.271  0.0237  0.0294  0.1202
 1417W        W18265   2.548   8.007   1.717  0.0758  0.0091  0.3488
 1418W        W18266   1.681  14.148  13.812  0.2557 -0.0571 -0.0490
 1419W        W18267   3.010  15.508  12.360 -0.1620  0.2959 -0.0057
 1420W        W18268   5.672  15.759  14.579 -0.0823 -0.0032  0.3438
 1421W        W18269   0.437   9.501  11.231 -0.0469  0.1538  0.0419
 1422W        W18270   8.297   6.551  12.834  0.0270  0.0628  0.1190
 1423W        W18271  11.728  17.268   0.475  0.1732 -0.1686  0.1039
 1424W        W18272   0.831   5.793  13.488  0.2803  0.2069  0.1376
 1425W        W18273   1.856   2.486   4.382  0.1648  0.2869 -0.1088
 1426W        W18274   0.258   3.343   2.394  0.0847 -0.0496  0.0800
 1427W        W18275  17.129   5.873   2.022  0.1144  0.2950 -0.0909
 1428W        W18276   9.031   2.790  12.025 -0.0376  0.0018 -0.1435
 1429W        W18277   4.153   7.297   3.020 -0.0902  0.0166 -0.3034
 1430W        W18278   2.664  10.673  11.523  0.0348 -0.1181 -0.1120
 1431W        W18279   4.537  15.445   0.298  0.0958 -0.4245  0.0760
 1432W        W18280  11.409  15.353   3.402 -0.0389 -0.0949  0.3066
 1433W        W18281  12.955   3.774  13.081 -0.0055 -0.0733 -0.0868
 1434W        W18282  13.316  11.243   3.096 -0.2146 -0.0571  0.2753
 1435W        W18283  15.159   3.572   2.188 -0.3747 -0.1157  0.0694
 1436W        W18284   9.468   8.456  15.413  0.0176  0.3260  0.0319
 1437W        W18285  13.998   8.238  11.833 -0.2697  0.0714  0.0800
 1438W        W18286  15.108  16.006  14.956 -0.0622  0.1307 -0.1307
 1439W        W18287   2.669   5.458  14.452 -0.0932 -0.1900 -0.1791
 1440W        W18288  16.703   3.040  12.007  0.1377 -0.4264 -0.1092
 1441W        W18289  16.403   2.848  15.414  0.0663  0.1936  0.0482
 1442W        W18290   8.115   7.905   4.478  0.0110 -0.1810  0.0534
 1443W        W18291  13.762   0.490  14.915 -0.4115  0.1192  0.1283
 1444W        W18292  15.535  11.139  11.397  0.1843  0.3501 -0.2283
 1445W        W18293   0.931   2.589   0.474  0.1798  0.0116  0.2166
 1446W        W18294   8.361  15.779  14.032 -0.2742 -0.1264 -0.0234
 1447W        W18295  16.479   8.267  11.264 -0.0906  0.0461  0.0692
 1448W        W18296  11.332  12.980   1.368 -0.0761  0.3718 -0.1314
 1449W        W18297  16.623   8.374   2.647  0.2578 -0.0147 -0.2563
 1450W        W18298  13.506  17.626   0.856 -0.2591  0.0439  0.0353
 1451W        W18299  15.245   8.694  13.037 -0.0475 -0.0898 -0.0530
 1452W        W18300  13.195  10.856   0.774 -0.1335  0.2179 -0.0297
 1453W        W18301  12.096  17.542  10.967 -0.0758  0.4530  0.1641
 1454W        W18302  10.861  10.691   4.196 -0.0260  0.0310 -0.0655
 1455W        W18303   1.963  15.197  13.513  0.0923  0.1736  0.1019
 1456W        W18304   6.261   0.565  13.870  0.2009 -0.1909 -0.2006
 1457W        W18305   0.123   9.959  14.193 -0.1354  0.0660 -0.1074
 1458W        W18306  15.063  15.707  11.354  0.0266  0.2100 -0.0396
 1459W        W18307   1.313  10.061   3.611 -0.0881 -0.0415  0.1631
 1460W        W18308   6.415   9.061  15.632  0.3603  0.0463 -0.1095
 1461W        W18309   4.320  14.298   1.631 -0.0040  0.1157  0.1785
 1462W        W18310   9.406   1.932   3.391 -0.3541 -0.3171 -0.2822
 1463W        W18311  11.125  16.795  14.916 -0.1946 -0.2953 -0.0345
 1464W        W18312   0.464  15.181   2.104  0.1425  0.2125 -0.0622
 1465W        W18313   0.026   9.667  13.715  0.3677  0.2546 -0.0685
 1466W        W18314  16.803   7.277  12.488  0.0967 -0.0536 -0.0256
 1467W        W18315  13.545   6.568   3.806  0.2402  0.0185  0.1236
 1468W        W18316  10.867  15.959  14.402 -0.2965 -0.0037  0.1920
 1469W        W18317  10.702  17.426   3.303 -0.2833 -0.3273  0.3980
 1470W        W18318  11.856   2.282   4.307 -0.1018  0.0169 -0.0445
 1471W        W18319  13.495  14.640   0.439  0.1244 -0.0878 -0.0907
 1472W        W18320   9.877   5.510  15.504  0.0742  0.2492 -0.1490
 1473W        W18321  12.481  13.964   4.199  0.0098  0.1495  0.2758
 1474W        W18322  17.010   5.435  13.508  0.0190 -0.1472  0.2750
 1475W        W18323  13.093  13.901   2.607  0.1203 -0.2397  0.4282
 1476W        W18324  16.435  16.567   0.477 -0.3019  0.1767 -0.1754
 1477W        W18325  13.562  12.267  13.342 -0.0393 -0.0088  0.0777
 1478W        W18326  13.254   2.430   4.180  0.1734  0.1152 -0.3209
 1479W        W18327  10.478   8.620  15.446 -0.3425 -0.0578  0.3078
 1480W        W18328  11.766   6.742   3.927 -0.1864  0.1071 -0.0285
 1481W        W18329   1.469   4.613   3.203 -0.0965  0.2066  0.0059
 1482W        W18330  14.849   8.474   1.993  0.2378 -0.3424 -0.0550
 1483W        W18331  11.865   5.819   4.911 -0.1200  0.1638 -0.1148
 1484W        W18332   5.698   0.893   3.244  0.1729 -0.2025  0.0816
 1485W        W18333  16.277  15.015  14.932 -0.1210  0.3527  0.0405
 1486W        W18334  17.315  13.945   4.415 -0.0485  0.0011 -0.2037
 1487W        W18335   6.002   5.650  13.549 -0.1920  0.3101  0.0430
 1488W        W18336   2.910  15.168  13.201 -0.1230 -0.0402 -0.1163
 1489W        W18337  11.053  10.055  15.829 -0.1028 -0.0502  0.4141
 1490W        W18338  11.650   9.270  13.533  0.0518 -0.1375 -0.0948
 1491W        W18339   9.415  17.553  14.445  0.0784  0.0480 -0.0945
 1492W        W18340  16.251  17.282  13.944  0.3873 -0.0301 -0.0719
 1493W        W18341   3.824  16.129   3.182 -0.0071 -0.3678 -0.1164
 1494W        W18342   0.952  13.695  11.769 -0.2132 -0.0228  0.1475
 1495W        W18343   8.256   2.775  13.519 -0.3846  0.0300  0.1606
 1496W        W18344   3.243   8.567   3.313  0.2442  0.2038  0.1419
 1497W        W18345  17.019  14.638  14.543 -0.0226  0.1756 -0.1514
 1498W        W18346   5.382   7.923   0.734 -0.0554  0.3092  0.0016
 1499W        W18347   5.407  10.683  10.458  0.4680 -0.2855  0.2936
 1500W        W18348   1.412  13.729  15.113 -0.0762 -0.2430 -0.3110
 1501W        W18349   0.648   7.549  15.532 -0.1805 -0.3412  0.3982
 1502W        W18350   0.447  14.741   5.454 -0.0320 -0.2145  0.1656
 1503W        W18351   4.354  16.909  11.978  0.0153 -0.0297  0.0300
 1504W        W18352   5.449  11.418  14.637  0.0196  0.1280  0.0901
 1505W        W18353  10.744   1.240   1.813 -0.3177 -0.2671 -0.0789
 1506W        W18354  13.114   1.396  11.363  0.1868  0.0905 -0.0066
 1507W        W18355   7.444   4.743  16.180 -0.0090  0.3704 -0.1151
 1508W        W18356   5.101   0.978  13.553 -0.1530 -0.0822 -0.0452
 1509W        W18357  14.114  12.024  13.286 -0.0512  0.1263 -0.1175
 1510W        W18358  10.670   1.044  15.946 -0.0704 -0.0899 -0.0615
 1511W        W18359  15.216   4.639  14.658  0.0777 -0.1123  0.4720
 1512W        W18360   3.580   9.679  13.069 -0.0540  0.0212  0.2551
 1513W        W18361   0.348  10.033   4.157 -0.2241 -0.1056  0.0036
 1514W        W18362   6.156  16.550   5.085  0.0985  0.2962 -0.1355
 1515W        W18363  12.326   1.741   3.702 -0.1740  0.1185  0.0779
 1516W        W18364  12.556   6.769  11.473 -0.1520 -0.1864 -0.2447
 1517W        W18365   4.996  12.653  11.229  0.1828 -0.0345 -0.1147
 1518W        W18366  16.501   3.891   3.196 -0.1349 -0.1398  0.1341
 1519W        W18367  13.922  14.227  15.752 -0.2152 -0.2898 -0.1887
 1520W        W18368  16.244  17.041   0.647  0.2057  0.0612  0.0308
 1521W        W18369   9.486  15.804  13.220 -0.1606  0.0711 -0.1984
 1522W        W18370   0.878   2.299   5.796 -0.0414 -0.2214  0.1582
 1523W        W18371   8.952   8.219  12.362 -0.1863  0.1476 -0.1052
 1524W        W18372  11.792   8.192   3.867  0.0393  0.0070  0.1218
 1525W        W18373   9.664  10.545   2.342 -0.0954  0.2245 -0.0823
 1526W        W18374  15.207   8.008  15.004 -0.0071  0.0761  0.2629
 1527W        W18375  13.750   3.067   2.591  0.0732  0.1332  0.1567
 1528W        W18376   2.131  13.697   3.489 -0.0177  0.2286  0.0237
 1529W        W18377  15.813  10.785  13.612 -0.0802  0.3988 -0.1126
 1530W        W18378   2.919   7.874   4.957  0.2450  0.0120  0.1109
 1531W        W18379   4.007  15.796   5.566  0.0903 -0.1202  0.2864
 1532W        W18380   2.827   7.608   0.792 -0.2000  0.1268 -0.0987
 1533W        W18381   4.388   0.798   5.331 -0.2569 -0.0057 -0.0576
 1534W        W18382   4.792   2.127   2.152 -0.0991 -0.0464 -0.3506
 1535W        W18383  17.202   8.858  12.404  0.0418  0.0840  0.3128
 1536W        W18384  13.538   1.879   5.146  0.0496 -0.0086  0.0099
 1537W        W18385   9.715  15.574   6.283 -0.0144 -0.0848  0.2522
 1538W        W18386   6.308  14.385   3.458  0.0983 -0.2471  0.3529
 1539W        W18387  12.441   3.277   2.889 -0.0009 -0.1214 -0.0443
 1540W        W18388   0.579   0.720   3.136  0.1199  0.1642 -0.2962
 1541W        W18389   0.697  16.396   1.140 -0.0301 -0.1978 -0.0715
 1542W        W18390  12.602   2.534   2.012  0.1111  0.1977 -0.1262
 1543W        W18391   7.141   1.459   4.131  0.2411 -0.0431  0.0768
 1544W        W18392  17.973  17.806   3.340 -0.0731  0.0228 -0.1027
 1545W        W18393  13.315  15.437   2.764 -0.2177 -0.2982  0.1713
 1546W        W18394   0.016   9.953  12.405 -0.0902 -0.0736  0.0273
 1547W        W18395   7.757   5.583  11.675  0.2329 -0.0225 -0.2793
 1548W        W18396  12.162   9.692  16.106  0.2648  0.1051 -0.1547
 1549W        W18397   4.830  12.255  11.532 -0.0231 -0.2442  0.3484
 1550W        W18398   2.679  12.317  12.212  0.1313  0.0833  0.4537
 1551W        W18399   3.624   5.593  11.313  0.1576 -0.2633 -0.1090
 1552W        W18400   2.778  12.229  13.495 -0.2055 -0.1512  0.1573
 1553W        W18401   6.586   0.193   1.520 -0.0440 -0.1493  0.0758
 1554W        W18402   5.104  17.035   2.097 -0.0821  0.0499 -0.2219
 1555W        W18403  15.113  15.082  11.965 -0.3553  0.0422  0.4167
 1556W        W18404  11.058  14.234   3.472  0.4123 -0.1717  0.0401
 1557W        W18405   6.183  10.933  12.686  0.1630  0.1599 -0.3312
 1558W        W18406  17.915   8.596   5.856 -0.2427 -0.2243  0.0168
 1559W        W18407   4.713   6.967  13.196  0.2937 -0.0200  0.1493
 1560W        W18408   5.040   4.424  14.997 -0.0978  0.2517  0.1043
 1561W        W18409   8.583   6.862  16.227  0.2176  0.0764 -0.0370
 1562W        W18410   9.229  12.488  16.225 -0.0197  0.1864  0.0200
 1563W        W18411  16.690   8.394  15.948 -0.1374  0.0761 -0.2353
 1564W        W18412  10.042   2.626   4.663 -0.2139  0.0312 -0.2835
 1565W        W18413  15.966  16.829  11.693 -0.1861  0.3619  0.0231
 1566W        W18414  14.952   4.941   1.201 -0.1017 -0.0073  0.3570
 1567W        W18415   9.939   1.459  14.430 -0.2069 -0.0197  0.4661
 1568W        W18416   1.411  12.837  13.355 -0.0321  0.0154 -0.1928
 1569W        W18417   9.848   7.095  10.521 -0.0397  0.0451  0.1417
 1570W        W18418  11.926   9.365   2.550  0.0753 -0.4395 -0.2115
 1571W        W18419  17.622  18.032  13.585 -0.0359  0.4109  0.0087
 1572W        W18420   8.462  10.131  15.915  0.0977 -0.0681  0.0020
 1573W        W18421  16.824  13.582   3.170 -0.0548  0.3605  0.0688
 1574W        W18422  11.719   2.915   1.522  0.1603  0.0600  0.1302
 1575W        W18423   1.046  14.389  15.720  0.2969  0.2865  0.2318
 1576W        W18424   5.725   6.727   0.994  0.0800 -0.0661  0.1670
 1577W        W18425   0.211  12.614  11.716  0.2013  0.2489  0.3163
 1578W        W18426   6.908  16.794   6.325 -0.3147  0.1612 -0.2476
 1579W        W18427   0.529   8.303  12.196 -0.0356 -0.2413 -0.0770
 1580W        W18428  14.170  13.010  12.966  0.1864  0.1355  0.0874
 1581W        W18429   6.305   7.153   1.628 -0.1478  0.2670 -0.2045
 1582W        W18430  17.584   7.447   0.473 -0.3730  0.3092  0.2465
 1583W        W18431  17.235  14.923  15.549 -0.0741 -0.2423 -0.1920
 1584W        W18432   8.325   1.528  11.335  0.0805  0.0398 -0.2571
 1585W        W18433  14.883   9.465   3.968 -0.3275 -0.0905 -0.1501
 1586W        W18434   2.117   6.930  11.491 -0.2408 -0.1783  0.2154
 1587W        W18435   8.926   6.729   0.697 -0.0870 -0.1067 -0.0447
 1588W        W18436   8.122   9.471  15.485 -0.2077  0.2682 -0.2480
 1589W        W18437   2.123   3.526  14.424 -0.4898  0.0302 -0.0399
 1590W        W18438   0.874  12.317  15.316 -0.0287 -0.0110 -0.1696
 1591W        W18439   4.540   3.991  15.320  0.0579 -0.3464 -0.1002
 1592W        W18440  17.501  15.041   5.510 -0.1789  0.1043  0.4621
 1593W        W18441   8.321  11.925  14.468  0.1132  0.2694 -0.0724
 1594W        W18442   3.448   8.965  16.060 -0.0794  0.0391  0.0776
 1595W        W18443  10.719   2.134   3.412 -0.2183  0.0798  0.3217
 1596W        W18444  17.925  17.396   4.360 -0.1458 -0.0289 -0.4887
 1597W        W18445   5.687   8.057   4.588 -0.1028 -0.1511  0.0632
 1598W        W18446   5.365   9.579   2.820 -0.2344 -0.0316 -0.5113
 1599W        W18447   7.818   1.934   5.177 -0.1303  0.2235 -0.1804
 1600W        W18448  13.366  10.111  12.031  0.0925 -0.1309 -0.0459
 1601W        W18449  14.411   3.264   1.577  0.0044 -0.0871 -0.0907
 1602W        W18450  18.043   0.740   1.174  0.3229 -0.2948  0.0184
 1603W        W18451  11.598  15.673   3.999 -0.0849  0.1278  0.0152
 1604W        W18452   6.213  16.451  11.516  0.0309  0.0329 -0.1868
 1605W        W18453  14.259   3.884  15.044 -0.1246  0.1269  0.0570
 1606W        W18454   5.144   1.191   2.966  0.0075 -0.0818 -0.0969
 1607W        W18455  10.553  14.872  14.258  0.0539 -0.1977  0.1851
 1608W        W18456  14.940   8.500  11.076 -0.3116  0.3275 -0.2672
 1609W        W18457   9.408   9.791   3.939 -0.1915  0.2510  0.0359
 1610W        W18458   3.981   4.963  11.838 -0.0931  0.2883 -0.2127
 1611W        W18459   8.543   5.073  12.684  0.1330 -0.1255  0.1972
 1612W        W18460  11.286  10.697   2.007 -0.2639 -0.2172  0.0478
 1613W        W18461   7.072   3.006   0.315  0.0011 -0.0006 -0.3155
 1614W        W18462  11.442   9.311  15.571 -0.0424 -0.4469 -0.0986
 1615W        W18463  13.233   2.724   0.681  0.3279  0.1491  0.0494
 1616W        W18464  13.835  13.724   5.152 -0.2031 -0.2265 -0.1773
 1617W        W18465  11.521  17.432  14.196  0.1635 -0.2990 -0.2065
 1618W        W18466   6.199  17.209   0.744  0.3463  0.1430 -0.2200
 1619W        W18467  10.274  15.689   4.348 -0.2321 -0.1117 -0.0105
 1620W        W18468  15.748  17.138  12.138  0.1490 -0.0315  0.0036
 1621W        W18469   7.217  16.404   1.885  0.0536 -0.2259 -0.1637
 1622W        W18470   6.327  14.238   0.509 -0.1156  0.1229 -0.1450
 1623W        W18471   1.244   9.851  15.080 -0.5080 -0.2544  0.2702
 1624W        W18472  16.694  16.977  10.399 -0.0974 -0.1414 -0.1473
 1625W        W18473   7.170  15.429  12.945 -0.0163  0.3767 -0.1503
 1626W        W18474  13.580   8.918  11.195 -0.2450 -0.2063  0.3222
 1627W        W18475  14.101  16.089   3.630 -0.0411  0.1824 -0.2101
 1628W        W18476   7.897  16.984   4.648  0.2252 -0.0936  0.0646
 1629W        W18477   7.575   9.836   0.689 -0.2092 -0.0416 -0.0943
 1630W        W18478  11.871  14.282   1.129 -0.1561  0.0305 -0.1802
 1631W        W18479  17.892  10.714   0.054 -0.0930 -0.0309 -0.1826
 1632W        W18480   1.431  15.250  14.259  0.1213  0.0213 -0.2902
 1633W        W18481  10.597  10.735  15.186 -0.0195 -0.1520 -0.0955
 1634W        W18482   5.297  16.858  13.618  0.0918  0.1371 -0.0901
 1635W        W18483   0.724  15.562   2.805  0.1474 -0.0668 -0.1519
 1636W        W18484  16.776  13.200   2.208 -0.2561  0.0981  0.0665
 1637W        W18485  13.090   4.985  13.037  0.0525 -0.3266 -0.1494
 1638W        W18486  11.660   7.562   0.833  0.0875 -0.1405 -0.1131
 1639W        W18487   6.988   6.540   0.928  0.0309  0.1968  0.1209
 1640W        W18488  16.646  15.018   1.624 -0.1338 -0.1390  0.1464
 1641W        W18489  10.036   7.376  13.858 -0.0886 -0.0103 -0.2452
 1642W        W18490   9.168   0.698  12.673 -0.2178  0.0280  0.2738
 1643W        W18491   0.361   4.799  12.198 -0.0460  0.4093  0.0328
 1644W        W18492   5.934  17.048   2.057  0.1334  0.1457 -0.0193
 1645W        W18493  16.243   6.649  11.579  0.1156 -0.0974  0.1683
 1646W        W18494   6.537   5.856  10.975 -0.1623  0.1319 -0.0411
 1647W        W18495  12.725  13.403  13.424  0.1721  0.2630 -0.0028
 1648W        W18496  12.465  11.781  15.040  0.0233  0.3852  0.1737
 1649W        W18497   9.779  17.636   3.410 -0.0868  0.0742  0.0112
 1650W        W18498   5.860   9.401  14.434  0.0619 -0.0664  0.0005
 1651W        W18499   6.637   1.432  14.805 -0.0642  0.1201  0.0117
 1652W        W18500  13.569  16.457   3.893 -0.0122  0.3794  0.0071
 1653W        W18501   7.910  17.845   3.482  0.0895 -0.0587 -0.2499
 1654W        W18502   7.688   6.183   4.820  0.1451  0.1210  0.1003
 1655W        W18503   7.772  14.102  15.538  0.1960  0.1756 -0.0904
 1656W        W18504   8.751  15.924  14.304 -0.0956  0.0940 -0.0226
 1657W        W18505  12.598  11.414  14.607  0.2157 -0.0719 -0.2258
 1658W        W18506  12.741   4.089   2.543  0.1324 -0.1637 -0.2097
 1659W        W18507  10.902  16.893   2.663  0.4190 -0.0120 -0.3422
 1660W        W18508   2.139   4.833  14.426  0.2475  0.0237 -0.0863
 1661W        W18509  16.843  12.770  13.081  0.2942  0.2943  0.0892
 1662W        W18510   9.789  15.959   5.965  0.2324 -0.0388  0.0099
 1663W        W18511  12.186  11.110   4.376  0.3556 -0.3907 -0.3297
 1664W        W18512  10.431   3.882  16.057  0.0030  0.2255  0.0818
 1665W        W18513  14.221   2.343   4.637  0.2610 -0.1665 -0.0286
 1666W        W18514  12.886  16.383  13.151  0.4440 -0.3020  0.0205
 1667W        W18515   9.378  15.076   1.799  0.0703  0.0966  0.2547
 1668W        W18516   1.823   2.430  15.895 -0.0478 -0.0119 -0.2919
 1669W        W18517  12.610  18.037  16.182 -0.0832  0.0539 -0.1796
 1670W        W18518   6.917   4.457  13.201 -0.2364 -0.0180  0.0156
 1671W        W18519  17.856   8.984   0.886  0.1242  0.0695 -0.1548
 1672W        W18520  11.509   5.577  15.170 -0.0810 -0.2058  0.0058
 1673W        W18521   8.833   4.423  11.032  0.1144  0.3475 -0.1407
 1674W        W18522  14.313  11.542   1.263  0.2343 -0.0306  0.0438
 1675W        W18523   3.769   0.762  12.927 -0.2570 -0.0117  0.1908
 1676W        W18524   9.766  11.249   1.104 -0.0603 -0.1572  0.0048
 1677W        W18525  13.406   8.150   3.288 -0.2310 -0.3951 -0.0896
 1678W        W18526   2.306  11.672   5.898  0.3096 -0.0147 -0.1301
 1679W        W18527  11.652   7.146   1.787 -0.2667  0.2138  0.1656
 1680W        W18528   6.652   1.831   5.589 -0.2493  0.0784  0.0885
 1681W        W18529   4.595  10.118   3.209  0.4244  0.0085 -0.1063
 1682W        W18530   4.236  17.687  11.588 -0.0677 -0.0512  0.0279
 1683W        W18531   2.725   8.716   3.254 -0.1535 -0.0311 -0.1755
 1684W        W18532   4.078   8.441   5.229 -0.2623  0.1545  0.0507
 1685W        W18533   7.533   9.309   2.581  0.2541 -0.0456 -0.3275
 1686W        W18534  12.662   8.775   2.866 -0.0251  0.2518 -0.2904
 1687W        W18535   3.240   9.682   4.891  0.0089  0.2811 -0.0045
 1688W        W18536   0.129   8.162   5.845  0.0050  0.2910 -0.0930
 1689W        W18537   1.231   3.137   3.959 -0.0252  0.1876 -0.1286
 1690W        W18538  13.019   3.373   3.631  0.0360 -0.2073 -0.2975
 1691W        W18539   5.708  13.767  13.147 -0.2890  0.1511 -0.1925
 1692W        W18540  15.572   8.379   2.863  0.0793 -0.0350 -0.0365
 1693W        W18541  14.221  13.231  11.837  0.1050 -0.2347  0.0145
 1694W        W18542   8.871  16.676   3.985 -0.2663 -0.0681 -0.2100
 1695W        W18543  16.933  10.845  16.022 -0.1385  0.2786 -0.0361
 1696W        W18544   2.541  11.209   1.275  0.1514 -0.0974 -0.1299
 1697W        W18545  17.108  12.314  12.916  0.0180  0.0043 -0.0994
 1698W        W18546  12.354  15.599  12.881 -0.0160 -0.1432 -0.1230
 1699W        W18547   9.236   3.252  11.944  0.0582 -0.1007 -0.0481
 1700W        W18548   2.120  14.825   2.375  0.0316  0.2147  0.0295
 1701W        W18549   2.106  13.866  15.991  0.2354  0.0183  0.0399
 1702W        W18550   0.645   8.994   4.316  0.1931 -0.1883  0.1699
 1703W        W18551   8.871  17.637  12.920 -0.1552 -0.2582 -0.3478
 1704W        W18552  14.312  15.600   3.295  0.0429  0.2273  0.0744
 1705W        W18553   6.717  17.145   5.326  0.2637  0.0238 -0.0186
 1706W        W18554  16.836   3.344  12.384  0.0113  0.2139 -0.1045
 1707W        W18555  10.035   7.858   1.900 -0.2245  0.0085 -0.1249
 1708W        W18556   5.812   2.001   3.935 -0.1931 -0.0882 -0.0655
 1709W        W18557  12.445   1.353   0.354 -0.1359  0.1725 -0.4555
 1710W        W18558   0.686   8.400  14.678  0.1206  0.0093 -0.0148
 1711W        W18559   2.752   6.025  11.358 -0.0837  0.1762  0.1527
 1712W        W18560   9.895  17.256  10.965  0.2909  0.2003  0.1036
 1713W        W18561  14.627  16.958  13.230  0.0996  0.0362  0.0196
 1714W        W18562   9.236   5.966  15.721 -0.2266  0.5090 -0.2567
 1715W        W18563   0.659   3.805  14.682 -0.2910  0.0694 -0.1270
 1716W        W18564  14.346  13.806   3.263 -0.0007 -0.4334  0.2251
 1717W        W18565  15.548   0.418   4.243 -0.2910  0.0783 -0.1288
 1718W        W18566  16.226   4.788   1.250 -0.0523  0.1446 -0.2368
 1719W        W18567  13.215  14.113   3.657  0.0032 -0.2266  0.0058
 1720W        W18568   0.447   2.760   2.461 -0.0818 -0.0444  0.0463
 1721W        W18569  10.344   9.217   0.788 -0.0143 -0.3004 -0.1075
 1722W        W18570   4.607   0.928   1.598 -0.0812 -0.1036  0.1177
 1723W        W18571  13.725   9.490   5.472 -0.0717  0.0019  0.0651
 1724W        W18572  18.021   7.526  11.884  0.0468  0.0380  0.0548
 1725W        W18573  14.282   5.364  11.794  0.0477 -0.1311 -0.0146
 1726W        W18574   4.597  13.076  10.412  0.1502  0.0780 -0.2266
 1727W        W18575   8.970  16.047  13.891  0.1303 -0.2046  0.3160
 1728W        W18576   7.363   3.210  14.392 -0.1985  0.1386 -0.2619
 1729W        W18577   2.637  15.660   5.237 -0.2473  0.1108  0.0488
 1730W        W18578   6.259   7.171  11.376  0.2166  0.1360 -0.1725
 1731W        W18579   0.322   7.509   4.141  0.0810 -0.2999  0.1327
 1732W        W18580   6.464   4.540   3.564 -0.0078 -0.3506 -0.1403
 1733W        W18581   9.428  15.983  13.746 -0.0642  0.3405 -0.0830
 1734W        W18582   3.698  16.168  12.761  0.0479 -0.0257 -0.1785
 1735W        W18583  12.232   4.196   3.824  0.0293  0.0803  0.2802
 1736W        W18584   4.347  15.229   4.262 -0.0057 -0.0068 -0.1321
 1737W        W18585   6.624   2.670   5.224  0.0037 -0.1022 -0.1471
 1738W        W18586   3.954  13.301   5.660 -0.0515  0.2427 -0.1041
 1739W        W18587   6.029   9.333   4.804  0.0737  0.1836  0.1106
 1740W        W18588   9.313   5.735   5.323  0.2337 -0.0968 -0.4876
 1741W        W18589   9.211   4.214   0.566  0.1138 -0.0909 -0.3081
 1742W        W18590   5.454   4.389   0.490  0.0279 -0.0837 -0.0738
 1743W        W18591   1.857   1.069  14.340  0.0477  0.1818 -0.0997
 1744W        W18592  11.657  10.339  11.046 -0.0536 -0.1224 -0.0125
 1745W        W18593  10.380  15.698   3.541  0.1368 -0.0809 -0.1581
 1746W        W18594   0.953  16.114   4.215  0.0692 -0.1688  0.0274
 1747W        W18595  17.132  11.983   0.374  0.0759 -0.1286  0.0686
 1748W        W18596  11.067   8.529   5.204 -0.0760 -0.1153 -0.1997
 1749W        W18597   3.406  10.471  11.874  0.0213 -0.0452  0.0463
 1750W        W18598   5.570  17.733  12.521  0.1273  0.0491 -0.0607
 1751W        W18599  10.739  13.508   1.288 -0.1683 -0.0220  0.3151
 1752W        W18600  13.933   1.745  15.956  0.0732 -0.0701 -0.4172
 1753W        W18601  16.926   8.881   1.147 -0.0693 -0.1086  0.1594
 1754W        W18602   3.450  16.518   3.299 -0.2385  0.2570 -0.1333
 1755W        W18603  12.501  12.786  15.841  0.2121 -0.1240  0.0371
 1756W        W18604  13.656  17.564   1.598 -0.1904 -0.0266  0.2461
 1757W        W18605   3.802   1.696   6.388  0.2862  0.3169  0.0760
 1758W        W18606   3.382   1.274   0.350 -0.2071 -0.0209 -0.2302
 1759W        W18607   8.682   2.018   0.212 -0.0087 -0.0167 -0.1129
 1760W        W18608   0.882  11.570  15.194  0.1878  0.2869 -0.2428
 1761W        W18609  15.811   4.124  11.091  0.0562 -0.1510 -0.1587
 1762W        W18610   0.968   3.612  12.689  0.2108 -0.2881  0.2224
 1763W        W18611  14.292   9.820   2.266 -0.0772  0.1306  0.0538
 1764W        W18612  17.579   3.809   1.144  0.0319  0.0494  0.2524
 1765W        W18613   9.106  18.013  14.319  0.3185 -0.2645 -0.1308
 1766W        W18614   7.543   8.711  15.772  0.1699 -0.0688  0.2714
 1767W        W18615   0.318   4.127   1.477  0.2602  0.2008 -0.1628
 1768W        W18616  14.654   0.882   0.846 -0.1025 -0.3060 -0.1255
 1769W        W18617   4.663   9.855   3.944  0.0196  0.0015 -0.1456
 1770W        W18618  13.801   5.236  15.967  0.2258 -0.0935 -0.1566
 1771W        W18619   1.297  14.892   0.678  0.3494 -0.1683  0.1579
 1772W        W18620   5.017   8.266  11.545 -0.0302 -0.1101  0.0939
 1773W        W18621  15.263   9.387   0.541  0.0331  0.2480  0.0019
 1774W        W18622  13.381  11.861  12.976  0.0252  0.2099 -0.2440
 1775W        W18623   2.884  18.016   4.938  0.5197 -0.2551 -0.0568
 1776W        W18624   8.827  15.779   4.410 -0.1508 -0.3002  0.0887
 1777W        W18625   4.178   8.073  11.703 -0.2708 -0.0834 -0.3565
 1778W        W18626  10.676  10.944   1.630  0.3838  0.0735  0.3201
 1779W        W18627  16.914  13.001   3.004 -0.1119  0.3586 -0.2031
 1780W        W18628  11.048   3.921   1.338 -0.3522 -0.1471  0.1523
 1781W        W18629   3.929   3.407  10.901  0.3310 -0.1430  0.3633
 1782W        W18630   0.115   1.061  13.478 -0.1627 -0.0040  0.0550
 1783W        W18631   5.026  13.350   4.251 -0.3428  0.1452  0.1671
 1784W        W18632   2.230  16.790  15.051 -0.1592 -0.0709  0.2049
 1785W        W18633  12.551   4.149  11.627 -0.1034  0.0827  0.0224
 1786W        W18634   2.803  11.434  16.059  0.2388  0.0112  0.0494
 1787W        W18635   9.814   5.718   5.221  0.0213 -0.3698 -0.1206
 1788W        W18636   4.574  13.481   0.467  0.1245  0.1019  0.0278
 1789W        W18637   5.561  10.944   5.247  0.1729 -0.0335 -0.0780
 1790W        W18638  15.032   1.272   2.841  0.2361  0.0778 -0.0359
 1791W        W18639  12.391  17.977   2.015  0.0369  0.2763 -0.1677
 1792W        W18640   8.230   6.495   2.280  0.2358 -0.2120  0.2299
 1793W        W18641   8.350   9.118  14.216 -0.0658  0.0105  0.0180
 1794W        W18642  16.426   5.469   5.266  0.1442  0.0301 -0.1570
 1795W        W18643  15.271  11.511  11.784 -0.0409 -0.1627 -0.3614
 1796W        W18644  10.323   3.129  10.671  0.0224 -0.1053  0.0383
 1797W        W18645   2.125  15.059  15.093  0.2273 -0.3064  0.1321
 1798W        W18646   0.496  12.476  10.875 -0.1268  0.2889 -0.0242
 1799W        W18647   5.458   5.925   1.523 -0.2479 -0.1919 -0.3531
 1800W        W18648   9.182   5.133   1.910  0.1076  0.1110 -0.2045
 1801W        W18649   2.678  16.200  13.321  0.0396  0.0935  0.3078
 1802W        W18650   5.200   6.149  11.370 -0.2237  0.1224  0.2605
 1803W        W18651  14.715   4.289   1.551  0.2511 -0.0676 -0.2051
 1804W        W18652   0.609  16.366   2.549  0.0190 -0.0778  0.1058
 1805W        W18653   0.370  15.052  14.923 -0.0216 -0.0291  0.2630
 1806W        W18654   9.237   6.735  11.257  0.3255 -0.0196 -0.0782
 1807W        W18655  17.538   7.671  11.889 -0.0932  0.1946  0.1928
 1808W        W18656  17.905   1.050  16.129  0.0972 -0.3777 -0.0061
 1809W        W18657   1.632   1.163  10.535 -0.1714  0.1788  0.0881
 1810W        W18658   3.314  17.373   5.230 -0.0914 -0.0569  0.1194
 1811W        W18659   3.722  11.312  14.133  0.1139 -0.2241 -0.0499
 1812W        W18660   7.763  12.339  10.904  0.2138  0.2930  0.1090
 1813W        W18661   9.731  14.938   1.438 -0.1576  0.4417 -0.0218
 1814W        W18662  14.713  15.765   2.253  0.1402 -0.1314 -0.4725
 1815W        W18663   9.378   4.106   0.118  0.1202 -0.1733 -0.2540
 1816W        W18664   1.177  14.867  12.188  0.1375 -0.0629 -0.1154
 1817W        W18665  11.474  13.986  13.143 -0.2972  0.1835 -0.0454
 1818W        W18666   3.627  12.061   1.389 -0.0152  0.2942  0.0402
 1819W        W18667  11.552  16.037  13.855 -0.2139 -0.0997  0.2177
 1820W        W18668  15.158  16.260   0.607  0.2918 -0.0282  0.0255
 1821W        W18669  17.411   5.288   5.054 -0.2121  0.1684  0.0708
 1822W        W18670  13.525  17.075  13.635  0.0895 -0.0697  0.0037
 1823W        W18671   6.330  14.621   0.845 -0.1319  0.0743  0.1754
 1824W        W18672   7.941   9.497  15.982  0.0302 -0.0069  0.0896
 1825W        W18673   3.104   4.756   5.205 -0.0845  0.2589  0.3447
 1826W        W18674  12.243  10.784   3.922 -0.7227 -0.2012  0.0370
 1827W        W18675  12.811   9.793  14.297 -0.1866 -0.1035  0.4126
 1828W        W18676  16.757   2.844   0.614  0.1021  0.0053  0.1818
 1829W        W18677  10.860  18.038  13.892  0.0720 -0.1818 -0.2215
 1830W        W18678   8.113  16.497   3.623 -0.2436 -0.2159 -0.1687
 1831W        W18679   0.411   5.994   2.387  0.0063 -0.0676  0.0111
 1832W        W18680   5.825   2.255   5.177 -0.0179  0.2919  0.0841
 1833W        W18681   6.210   3.750   3.683  0.3072  0.1425  0.3169
 1834W        W18682  17.871  13.638   4.667  0.0479  0.1631 -0.0888
 1835W        W18683   8.905   0.972  11.745  0.0373 -0.3948  0.0847
 1836W        W18684  13.878  15.712  12.423 -0.0519 -0.2305 -0.2834
 1837W        W18685   4.733   6.463  11.330  0.1594  0.0048 -0.0623
 1838W        W18686   9.718   2.399   5.891 -0.1685 -0.1699 -0.2423
 1839W        W18687  14.024   2.277  12.576 -0.0818  0.4543  0.0290
 1840W        W18688   1.054   9.309  11.084 -0.2857 -0.1095  0.0156
 1841W        W18689  13.793  10.407  12.482  0.0048 -0.2868 -0.1268
 1842W        W18690   8.881   0.242   5.352 -0.1077  0.1777  0.0148
 1843W        W18691  13.071   5.419   3.101  0.1712  0.0475 -0.1825
 1844W        W18692  12.010  12.869   4.427  0.1423  0.0553  0.1550
 1845W        W18693  16.266   6.160  13.115  0.1126 -0.1319  0.1073
 1846W        W18694  17.318   9.726   4.785 -0.0685 -0.1218  0.2598
 1847W        W18695   2.175   7.952   2.920 -0.1522  0.1763 -0.1370
 1848W        W18696  15.411  11.923   1.976  0.2665  0.1533 -0.0839
 1849W        W18697  13.495  12.659  15.101  0.2364  0.0227  0.2265
 1850W        W18698   4.363  15.034  11.951 -0.2513  0.0078  0.0850
 1851W        W18699   3.798   1.195  16.173  0.0481 -0.0227  0.0852
 1852W        W18700   8.292   3.273  15.472  0.2491 -0.0285  0.1613
 1853W        W18701   2.315  17.807  11.970 -0.0809 -0.1215 -0.0493
 1854W        W18702   1.574   4.220  14.826  0.0831 -0.1098 -0.1652
 1855W        W18703  14.666   7.349  11.916 -0.0306  0.0218  0.2034
 1856W        W18704  10.382  15.864  13.369 -0.0402 -0.0000 -0.0453
 1857W        W18705  10.868  12.653   2.020 -0.0811  0.3716 -0.0006
 1858W        W18706  14.278  11.703  15.496  0.2165 -0.1115  0.1289
 1859W        W18707  10.561   9.836  12.759  0.0796 -0.5592  0.1153
 1860W        W18708   5.323  10.940   4.786  0.0800  0.1198  0.0923
 1861W        W18709  11.268   5.600  10.772  0.1175  0.1150  0.0319
 1862W        W18710   9.864   2.029   3.694  0.0088  0.0897  0.2932
 1863W        W18711   1.843  12.870   4.979 -0.0483  0.1801 -0.1256
 1864W        W18712   7.820   8.182  12.171 -0.2019 -0.0740  0.1543
 1865W        W18713   9.439   2.745  11.730  0.6362  0.1243 -0.0829
 1866W        W18714  12.863  16.146   4.232  0.0668  0.1351  0.1849
 1867W        W18715   8.680  11.695   0.383  0.2134 -0.0124  0.0146
 1868W        W18716   2.207   9.230   1.477 -0.2696 -0.1459  0.4318
 1869W        W18717  13.995   8.483   2.722  0.0111 -0.1236 -0.3478
 1870W        W18718   0.146   6.966   2.027 -0.1437 -0.2493 -0.1341
 1871W        W18719   6.900   3.369  15.943  0.0549 -0.2524 -0.2761
 1872W        W18720  13.067  15.452   1.566 -0.1973 -0.2918  0.1705
 1873W        W18721  11.429  11.965  15.753  0.2406  0.2001 -0.2202
 1874W        W18722  11.469   8.391   0.254 -0.1549  0.0874 -0.3302
 1875W        W18723  12.956  12.611   2.217  0.2835  0.0733  0.0541
 1876W        W18724  12.268   7.081  12.151  0.1047  0.0734  0.0428
 1877W        W18725  11.831  16.163  11.667  0.3873  0.1039  0.0809
 1878W        W18726   9.457   5.070  16.263 -0.3259 -0.0562 -0.2906
 1879W        W18727   4.976  13.283  11.278 -0.0500  0.1968  0.0384
 1880W        W18728   8.529   9.159   3.577 -0.0582  0.2307 -0.1043
 1881W        W18729  16.960  14.983   2.676  0.0321 -0.0944  0.0923
 1882W        W18730  12.323  11.171  11.845  0.0756  0.0453 -0.3068
 1883W        W18731   7.827  12.224   3.574 -0.1709 -0.4235 -0.2725
 1884W        W18732  13.287   5.638   2.161  0.1853  0.1213 -0.0390
 1885W        W18733   7.643  13.988   1.038  0.1414  0.2738  0.2639
 1886W        W18734  11.599  10.647   4.407 -0.1415 -0.0357 -0.2544
 1887W        W18735   7.419   5.796  15.483  0.0249 -0.1856  0.0662
 1888W        W18736   7.597  10.446   1.527  0.1018 -0.1429  0.2296
 1889W        W18737   8.355   6.519   4.270  0.0199  0.1284 -0.0972
 1890W        W18738   1.627   1.368   2.503 -0.3626  0.0327  0.2248
 1891W        W18739   6.336   8.940  13.321  0.0257  0.1697  0.0894
 1892W        W18740   4.244   5.216   1.741 -0.0655 -0.0517 -0.1223
 1893W        W18741   5.893   7.227  15.253 -0.1651  0.1053  0.2264
 1894W        W18742   2.216  15.211  15.896  0.1089 -0.1367  0.2056
 1895W        W18743   9.098   8.964  13.092  0.0937  0.1261  0.0807
 1896W        W18744   6.098   1.086   3.475 -0.3805  0.0851  0.1823
 1897W        W18745   3.858   2.892   4.429 -0.3674 -0.2987 -0.1488
 1898W        W18746  12.208   3.399  15.330 -0.1085 -0.3147 -0.0964
 1899W        W18747  13.676  14.701  12.689  0.1579  0.1759 -0.0910
 1900W        W18748   1.554  17.545  12.576  0.3018 -0.1750  0.2444
 1901W        W18749   2.708   7.357   4.963 -0.0283 -0.2906 -0.1917
 1902W        W18750  16.094   4.358  16.059 -0.1766  0.1284 -0.1796
 1903W        W18751   0.977   8.409   4.077  0.2040  0.2845  0.0143
 1904W        W18752  10.790  15.373   0.080  0.3271  0.1125 -0.1136
 1905W        W18753   3.596   3.960   5.655  0.0068  0.0050 -0.4422
 1906W        W18754  11.206  14.877  15.128  0.1729 -0.1035  0.2755
 1907W        W18755   4.509  16.849   5.408  0.0138  0.1056 -0.3473
 1908W        W18756   1.377   7.687  14.959 -0.0165 -0.0152  0.0672
 1909W        W18757   8.908   2.758   1.760  0.0057  0.2316  0.0473
 1910W        W18758   1.747   5.344  13.550  0.2211 -0.0386  0.0908
 1911W        W18759  14.346   4.763   4.768 -0.0026  0.4821  0.1539
 1912W        W18760   4.428   1.736  13.609 -0.4042 -0.1666  0.3202
 1913W        W18761   7.941  11.665  15.414  0.1249  0.3340 -0.1070
 1914W        W18762  18.019  12.122   1.691 -0.0428  0.2459  0.1861
 1915W        W18763  10.207  15.607   1.272  0.4741 -0.2098 -0.0489
 1916W        W18764  10.965   3.725   4.680  0.1190 -0.1817 -0.1699
 1917W        W18765  17.536   6.427  15.572 -0.1469 -0.1625 -0.3178
 1918W        W18766   3.215   0.293  10.710 -0.0260  0.1742 -0.0599
 1919W        W18767  18.042  12.388   0.113  0.1718  0.0015 -0.1826
 1920W        W18768  13.538   6.086  14.345  0.3360  0.1994  0.1699
 1921W        W18769   6.484   5.652  13.305 -0.0083 -0.0646  0.1041
 1922W        W18770   9.098   6.234  16.199  0.0378 -0.2460  0.0990
 1923W        W18771  15.484  14.994  14.437  0.1656  0.0022 -0.0878
 1924W        W18772   0.925   9.188  16.197 -0.1461 -0.0856  0.0711
 1925W        W18773  10.065   8.364   1.900  0.1821 -0.0506 -0.2532
 1926W        W18774   8.881  15.767  10.938  0.2571 -0.2600 -0.1949
 1927W        W18775  13.864   4.321  11.095  0.0565  0.1607 -0.1224
 1928W        W18776   0.554   9.246   1.333  0.1362  0.1453  0.1920
 1929W        W18777   2.241  12.958   3.952 -0.0828 -0.1915 -0.0597
 1930W        W18778  16.128   5.931   4.836  0.0511  0.1877 -0.0457
 1931W        W18779   0.133  16.743  11.987 -0.2911  0.2550  0.2111
 1932W        W18780   0.145   9.246  10.833  0.1704 -0.3043 -0.0078
 1933W        W18781   2.592  17.757   1.179 -0.0582  0.0674  0.1366
 1934W        W18782  13.725   9.084  15.973 -0.0149  0.1357 -0.3030
 1935W        W18783   0.866  12.524   2.869 -0.0453 -0.3759  0.3141
 1936W        W18784   5.496  12.447   0.206  0.0731 -0.3037 -0.3138
 1937W        W18785   8.924  17.596   5.627  0.2878  0.0575 -0.1342
 1938W        W18786   1.965   2.807   1.771 -0.1088  0.0383  0.0936
 1939W        W18787  17.145  13.431  12.434  0.2521  0.0055 -0.2098
 1940W        W18788  11.682   6.693  11.428  0.2058 -0.2054 -0.1316
 1941W        W18789   5.783   7.089   0.156  0.0924  0.2634  0.1995
 1942W        W18790  14.802  11.929   4.539  0.1389 -0.1695 -0.3074
 1943W        W18791   5.577   2.105  12.445 -0.1564 -0.0695  0.1841
 1944W        W18792   8.586   0.803  12.469  0.0659 -0.1511  0.1659
 1945W        W18793  16.691   3.283  14.093  0.0419 -0.0257  0.0360
 1946W        W18794  14.739   3.608   5.117 -0.0701  0.0060  0.0534
 1947W        W18795   9.575   8.783   1.384  0.0677  0.2437  0.0989
 1948W        W18796   9.257   2.869  15.606  0.2180 -0.0568 -0.2597
 1949W        W18797   0.426   8.734  11.907 -0.0559 -0.1696  0.1193
 1950W        W18798   8.637   2.382   2.487  0.0523 -0.1161 -0.0358
 1951W        W18799  11.457   5.541  16.026  0.1529  0.1217 -0.2864
 1952W        W18800  17.353  13.557   4.712  0.0808 -0.1623  0.1627
 1953W        W18801   4.412  14.020   1.149  0.0026 -0.2306 -0.0124
 1954W        W18802  16.110   7.093   1.654 -0.0572 -0.2189  0.0137
 1955W        W18803   6.477  10.723   4.078 -0.0652  0.2423  0.2233
 1956W        W18804   4.127  14.930   3.383  0.2393 -0.2226 -0.3733
 1957W        W18805   1.086  11.478   2.017  0.0703 -0.2402 -0.0403
 1958W        W18806  17.411   0.315  14.392 -0.2464 -0.3219 -0.3367
 1959W        W18807  17.866   1.718  14.608 -0.1242 -0.1277 -0.1966
 1960W        W18808  11.108   5.548  13.394 -0.0332 -0.1113 -0.3734
 1961W        W18809   4.518   1.336  13.932  0.0458 -0.0138 -0.0328
 1962W        W18810  16.239   0.567   0.954 -0.2153  0.1295 -0.2588
 1963W        W18811   3.142  10.161   3.297 -0.0350 -0.1940 -0.0877
 1964W        W18812   8.939  14.303  15.253  0.0692  0.3226 -0.0095
 1965W        W18813  14.947   9.855   3.084  0.1158  0.2018  0.0420
 1966W        W18814  13.537  14.744  13.961 -0.0993  0.1197 -0.1539
 1967W        W18815  13.732   0.153  12.438 -0.0572 -0.2663  0.1936
 1968W        W18816   9.905   5.091  13.996  0.2332  0.3100  0.2166
 1969W        W18817  17.599   1.385   1.411 -0.3520  0.3534  0.1000
 1970W        W18818  11.920   3.961   5.223 -0.0098  0.0506  0.0551
 1971W        W18819  14.551  16.664   4.608  0.2201 -0.0458 -0.0517
 1972W        W18820   2.769  11.038   0.146  0.1972 -0.0337 -0.2080
 1973W        W18821  16.571   0.546  14.130  0.3136 -0.0373  0.1769
 1974W        W18822   1.279  10.648   1.821 -0.3767 -0.3521 -0.4289
 1975W        W18823  15.207  12.224  13.458 -0.1143  0.1869  0.2027
 1976W        W18824  14.559  14.684  11.700  0.1248 -0.0364 -0.0042
 1977W        W18825  14.607  10.170   2.343 -0.0539 -0.0834  0.0971
 1978W        W18826   0.710   3.744   1.584 -0.5942  0.1436 -0.1300
 1979W        W18827   0.321  17.615   2.893  0.0377  0.0969 -0.1096
 1980W        W18828  10.467  12.185  14.780 -0.2925 -0.4136 -0.1032
 1981W        W18829   9.217   8.669   0.479 -0.2553 -0.0766  0.0988
 1982W        W18830  15.089   4.887   3.439  0.3467  0.1429 -0.2089
 1983W        W18831   6.397   9.419  12.893  0.0415  0.1367 -0.1900
 1984W        W18832   5.870   3.180  14.823 -0.2941  0.1669  0.0364
 1985W        W18833   6.152   4.472  15.813 -0.3615 -0.0312  0.1850
 1986W        W18834  16.892  12.809   1.168  0.0466  0.0958 -0.0496
 1987W        W18835  15.681   0.508   3.785  0.1429 -0.1032 -0.0745
 1988W        W18836   1.263   6.415   1.331  0.1461 -0.1831 -0.3946
 1989W        W18837   1.868   0.005   0.635  0.0700 -0.2396 -0.1205
 1990W        W18838   1.906   9.774   4.356  0.0024 -0.2335 -0.0298
 1991W        W18839   3.088  14.314   4.563 -0.0261  0.2114 -0.2122
 1992W        W18840  11.265   2.722   1.826  0.2901  0.0406  0.0835
 1993W        W18841  11.300   3.693   0.311 -0.0259 -0.0380  0.1821
 1994W        W18842   8.461  15.386   4.673  0.0663 -0.0002  0.2191
 1995W        W18843  17.072  11.189  12.589 -0.1676 -0.2187  0.0323
 1996W        W18844   5.536   4.889  15.333 -0.1342 -0.2176 -0.2378
 1997W        W18845   3.208   5.244  11.542 -0.0410 -0.3387  0.0037
 1998W        W18846  12.608   2.126  13.347  0.0773 -0.3910  0.0469
 1999W        W18847   8.312   7.788   3.517  0.0689 -0.3643 -0.0863
 2000W        W18848  12.097   8.187  11.784  0.0793 -0.1690 -0.4496
 2001W        W18849  14.264   4.069   2.758  0.3642  0.0612  0.0526
 2002W        W18850   1.168   1.271   0.186  0.1478  0.2308 -0.3966
 2003W        W18851   3.100   2.679  12.105 -0.1201 -0.0737 -0.2113
 2004W        W18852   7.693  16.358  16.066  0.0794  0.2121  0.0248
 2005W        W18853   7.086   6.205   1.962 -0.4237 -0.0836 -0.1607
 2006W        W18854  12.521   5.912  12.488  0.1700  0.1750  0.2283
 2007W        W18855   0.832   5.389  13.993 -0.0551  0.0783  0.0393
 2008W        W18856   9.816  10.807  11.253  0.0794 -0.2174  0.2101
 2009W        W18857  14.150  12.510  13.171  0.2793  0.0857 -0.1312
 2010W        W18858   7.763   8.986  13.110  0.1900 -0.2731 -0.0399
 2011W        W18859   8.145   2.314  12.201 -0.0738  0.0709 -0.0936
 2012W        W18860   1.353  12.064  14.678  0.1342  0.2242 -0.3010
 2013W        W18861  15.523  11.055  13.307  0.3238  0.0568  0.1100
 2014W        W18862   6.758   3.807   1.989 -0.1728  0.2040 -0.0431
 2015W        W18863  13.585   1.371  12.597  0.5708  0.0962 -0.0765
 2016W        W18864  14.007   0.033  15.118  0.2604 -0.2453 -0.0222
 2017W        W18865   1.555   1.607  13.776 -0.0973  0.0189 -0.1207
 2018W        W18866   0.662   6.509  15.352 -0.1028  0.0604  0.1858
 2019W        W18867  12.332  10.565  13.858  0.1333  0.2302  0.0814
 2020W        W18868   7.568   0.773   0.358 -0.0418 -0.0910 -0.0151
 2021W        W18869   8.085  14.924   5.046 -0.1772  0.1571  0.3929
 2022W        W18870   9.237   7.883   2.224  0.1172  0.1838  0.1132
 2023W        W18871  13.110  11.167   0.339 -0.0590  0.2910 -0.0543
 2024W        W18872  15.505   9.174  12.967  0.1125 -0.0381  0.3579
 2025W        W18873   9.242   8.345  11.909  0.2197  0.2800  0.1580
 2026W        W18874  14.014  16.348   4.022  0.1873 -0.1980  0.1036
 2027W        W18875   0.422   2.531   5.570 -0.2135 -0.3094  0.2699
 2028W        W18876   4.188  12.832  16.194  0.0331  0.2294 -0.0204
 2029W        W18877  11.983   1.564   3.225 -0.1040  0.3474 -0.0104
 2030W        W18878  12.768  14.366   5.483 -0.3311 -0.0427 -0.1403
 2031W        W18879  11.030   0.841  12.392 -0.2763 -0.3289 -0.1327
 2032W        W18880  11.145   6.770   3.821 -0.0173  0.0396  0.1884
 2033W        W18881  14.466   7.646   0.826 -0.0239  0.0238  0.1349
 2034W        W18882  10.003   9.091   2.508  0.1574 -0.3244  0.1081
 2035W        W18883  13.817  12.969   3.745  0.1555  0.1553 -0.0865
 2036W        W18884  17.303  12.793  12.841 -0.1993 -0.2879  0.0539
 2037W        W18885   8.752   9.147   0.242 -0.0016 -0.0661  0.0264
 2038W        W18886  13.421   2.412   2.259  0.0983 -0.0212 -0.3096
 2039W        W18887   5.666  14.185  16.189  0.1576  0.2033 -0.0945
 2040W        W18888   0.718   8.789   3.825 -0.0205  0.2234 -0.0105
 2041W        W18889  11.021  14.536   1.559  0.1878 -0.3011  0.1730
 2042W        W18890  16.726  17.490  13.061  0.0058  0.1598 -0.1343
 2043W        W18891   8.450  12.378  15.776  0.2890  0.1560 -0.0156
 2044W        W18892   2.400  11.769  13.914 -0.0597 -0.2755  0.1648
 2045W        W18893  14.381  13.120  14.811 -0.2408 -0.0909 -0.1222
 2046W        W18894  14.642  16.092   3.516 -0.4140 -0.1465  0.0711
 2047W        W18895  12.484   8.942  14.817 -0.1200  0.0701 -0.1049
 2048W        W18896  17.065   0.353   0.838 -0.1257 -0.1343  0.2194
 2049W        W18897  16.128  16.580   4.864 -0.2422  0.2411 -0.1278
 2050W        W18898   7.029  15.979   3.534 -0.0296  0.2581 -0.2371
 2051W        W18899  10.155   4.353   1.204  0.0175  0.3156  0.0405
 2052W        W18900   4.258   8.143   2.685 -0.1344 -0.0106 -0.1275
 2053W        W18901   9.555  13.630  13.861 -0.0514  0.0018 -0.1787
 2054W        W18902   5.031  12.125  13.411  0.1501 -0.2164 -0.1217
 2055W        W18903   4.471   3.158  11.492  0.0528  0.3123 -0.3873
 2056W        W18904   4.189   8.175  11.162  0.0592 -0.0838  0.1642
 2057W        W18905  15.753   5.393  14.585 -0.1826  0.0891  0.0097
 2058W        W18906   0.800   1.511  15.787  0.1250  0.0535 -0.1310
 2059W        W18907   0.519   5.565   1.673 -0.2942  0.3550  0.2903
 2060W        W18908  17.037   2.675  14.409  0.0191 -0.1051 -0.0590
 2061W        W18909   0.704  16.545  14.021 -0.0971  0.1033 -0.0762
 2062W        W18910  10.386   6.459  11.858 -0.1028  0.6241 -0.1771
 2063W        W18911   3.829  11.058   5.008 -0.0405  0.0850 -0.0763
 2064W        W18912  12.267  12.970  15.382  0.1679 -0.0874 -0.3721
 2065W        W18913   5.964   1.383   1.073  0.0265  0.1997  0.1537
 2066W        W18914  14.741   2.621   0.611 -0.2677 -0.3738 -0.1435
 2067W        W18915   2.327   0.738   0.998  0.2447 -0.2564  0.1072
 2068W        W18916   1.297   7.579  12.477 -0.2247  0.1557  0.0461
 2069W        W18917   8.474  16.924   1.623 -0.0849 -0.3269 -0.0447
 2070W        W18918   4.088  14.922   2.840 -0.2147 -0.0979 -0.4049
 2071W        W18919   4.011   6.927   4.578 -0.0107  0.1001 -0.0566
 2072W        W18920   8.156  12.261   4.608  0.1628  0.1377  0.1972
 2073W        W18921   1.135   3.757  11.835  0.2174 -0.0981  0.3930
 2074W        W18922  11.491  16.933  15.267 -0.0405 -0.2248  0.2820
 2075W        W18923   4.288   6.223  14.050 -0.2563  0.3453  0.2367
 2076W        W18924  17.099  12.389   1.572  0.0543  0.0908 -0.1142
 2077W        W18925  10.140  13.654   1.340  0.1144  0.1600  0.1332
 2078W        W18926  17.625  16.136   0.493 -0.1717  0.1067  0.1896
 2079W        W18927   3.295   1.752   5.004  0.0506  0.1853  0.1732
 2080W        W18928  14.379   6.614  15.296  0.1947  0.1709 -0.0141
 2081W        W18929  12.660   8.686  15.320 -0.1441 -0.1224  0.0560
 2082W        W18930   4.056  14.667  13.332  0.0809 -0.0784 -0.2841
 2083W        W18931  18.041  16.658   2.164 -0.0962 -0.0181 -0.1962
 2084W        W18932   4.706  13.872   1.888  0.0865 -0.0527  0.3514
 2085W        W18933   5.429   7.664   5.227 -0.3298  0.2641  0.1399
 2086W        W18934  16.473   6.068   3.824  0.2085  0.3199  0.4310
 2087W        W18935  17.156  12.821   2.626 -0.1326  0.0786  0.0017
 2088W        W18936  16.180   4.004  14.722 -0.2180 -0.0704 -0.1671
 2089W        W18937  15.029   5.005  13.838 -0.2259 -0.0959  0.1662
 2090W        W18938  15.428   4.905  15.975 -0.0108 -0.2205  0.2197
 2091W        W18939  13.347  17.264   1.791 -0.0426  0.3362  0.0117
 2092W        W18940  17.476   4.914  12.571 -0.0058  0.0320 -0.0770
 2093W        W18941  12.870  17.059  16.248  0.0953  0.2257 -0.1068
 2094W        W18942   9.271   9.146  15.202  0.0766  0.1970 -0.1956
 2095W        W18943   6.429   9.487   1.639  0.0673 -0.1204  0.0141
 2096W        W18944   6.540   2.638   6.291  0.2420  0.3221  0.1362
 2097W        W18945   0.971   9.958   3.195 -0.1559 -0.4436 -0.0788
 2098W        W18946   0.981  17.689  16.259 -0.0647  0.0172  0.0712
 2099W        W18947  15.658  10.644   1.923  0.0243  0.1651 -0.1042
 2100W        W18948   9.337   9.995   3.386  0.1909  0.1068  0.1482
 2101W        W18949  16.650   5.581  12.580  0.0816  0.0889  0.3819
 2102W        W18950   8.886  11.193  13.480  0.1638  0.2366  0.1975
 2103W        W18951  10.646   1.409  14.969  0.1467  0.1636 -0.0529
 2104W        W18952   3.818  13.745   1.274  0.0835 -0.2157  0.0474
 2105W        W18953  12.526  17.365  13.581  0.1139  0.1198  0.1637
 2106W        W18954  13.396   4.626  13.777 -0.3185  0.1861 -0.0961
 2107W        W18955  16.591   1.113  15.127  0.2203 -0.0826 -0.1451
 2108W        W18956  14.315   3.637  12.605  0.1528  0.1969  0.1586
 2109W        W18957  10.551  11.848  11.657 -0.3152 -0.2349  0.0980
 2110W        W18958   1.690  10.418   2.094  0.0748  0.1118  0.1998
 2111W        W18959   6.500   7.124  14.687  0.0030 -0.0587 -0.2523
 2112W        W18960  12.483   3.240  14.000  0.0602 -0.1839 -0.1475
 2113W        W18961  16.067   1.693  13.510  0.0918 -0.2040 -0.0894
 2114W        W18962   9.718   4.295  11.283  0.0563  0.0132  0.2047
 2115W        W18963   1.531   4.776  12.803  0.1881 -0.1495  0.0425
 2116W        W18964  16.024   9.053   3.747  0.0247 -0.1698 -0.0809
 2117W        W18965  16.635   0.748   0.685  0.2330  0.2187  0.0024
 2118W        W18966  10.202   5.703   3.483  0.2220 -0.0246 -0.1935
 2119W        W18967  14.812   8.122   0.745  0.2740 -0.2406  0.3145
 2120W        W18968   7.810   3.971   4.284 -0.2785  0.1643  0.1155
 2121W        W18969  10.402   7.623   0.709  0.1714  0.1586 -0.1710
 2122W        W18970  13.045  11.352   5.740  0.2474  0.1266  0.0113
 2123W        W18971  13.012  15.838   2.602 -0.2697  0.0211  0.0881
 2124W        W18972   4.730   3.570  13.569  0.2774  0.0248  0.3093
 2125W        W18973  10.456   4.145  14.575  0.0190 -0.1028  0.3447
 2126W        W18974  14.018   6.393  12.283 -0.0665  0.1661  0.0418
 2127W        W18975   6.975  13.861  12.075  0.1966  0.0101  0.1620
 2128W        W18976  10.617   9.270   4.897  0.1710  0.0366 -0.0022
 2129W        W18977   4.341   6.368   4.220 -0.0439  0.0119 -0.0962
 2130W        W18978  12.118   7.251  14.317  0.0629  0.3998 -0.0903
 2131W        W18979  16.634   0.445  16.242  0.1714 -0.2325  0.1228
 2132W        W18980   4.811   7.929  12.399 -0.0896 -0.3348 -0.0259
 2133W        W18981  14.043   3.649  13.554  0.0180  0.1165  0.0594
 2134W        W18982   0.330   2.953   5.074 -0.0942 -0.5508  0.0685
 2135W        W18983   9.056   2.127  11.517 -0.2117  0.1179  0.1434
 2136W        W18984   3.973   8.557   2.814  0.2900  0.1158  0.1786
 2137W        W18985  17.062   8.300   2.890  0.1278  0.1499 -0.1926
 2138W        W18986  17.902   7.126  12.181  0.1380 -0.0018 -0.1024
 2139W        W18987   1.700  15.612   4.270  0.1867 -0.1880 -0.0004
 2140W        W18988   8.479   6.183  13.193 -0.1579 -0.1967 -0.1247
 2141W        W18989   5.335   9.676  13.476 -0.0574  0.2581 -0.1967
 2142W        W18990   9.784  11.636  15.245 -0.4820  0.1006  0.0592
 2143W        W18991   1.548  17.731   3.749 -0.1547 -0.1578 -0.1121
 2144W        W18992   8.556  13.735  15.400 -0.2102 -0.1469 -0.2897
 2145W        W18993  12.474   7.819  15.166  0.0911 -0.0750  0.2365
 2146W        W18994  16.976   8.891  11.176 -0.3598 -0.0185 -0.0010
 2147W        W18995   0.512  17.306   2.521 -0.0250  0.1367 -0.2064
 2148W        W18996   4.977  13.548  14.753  0.1843 -0.3163  0.0488
 2149W        W18997  14.045  17.846   0.142  0.0059  0.0336 -0.2040
 2150W        W18998   0.528  14.711  14.539  0.1530 -0.0696 -0.1130
 2151W        W18999  17.668  12.317  13.483  0.0814  0.1129  0.5157
 2152W        W19000  14.014  13.399   3.488  0.1294 -0.1471 -0.0783
 2153W        W19001   8.863   7.262  12.005  0.0670  0.1074  0.2757
 2154W        W19002   5.685   9.942  11.753  0.0947 -0.0409 -0.0611
 2155W        W19003   1.876  16.437   0.969 -0.0746 -0.2955  0.0585
 2156W        W19004  10.944   7.454  11.656 -0.2740  0.1813  0.1467
 2157W        W19005  16.756   6.685   0.535  0.0042  0.0751  0.2220
 2158W        W19006   6.132   1.030   2.983  0.0105  0.0993  0.4298
 2159W        W19007  14.398  15.408   4.803  0.1534 -0.0782 -0.0071
 2160W        W19008  14.019   7.118  14.652  0.0739  0.0164 -0.0353
 2161W        W19009  11.440   8.749  15.293  0.2006  0.0051 -0.0485
 2162W        W19010  14.157  14.780  11.027  0.1883  0.0938  0.0523
 2163W        W19011  16.637  13.184   0.942 -0.2200  0.2480  0.1598
 2164W        W19012  15.103   9.278  16.248 -0.2118 -0.1262 -0.2183
 2165W        W19013   1.270  13.731  11.292 -0.1910  0.2165 -0.1367
 2166W        W19014   7.403  15.257   2.644 -0.2304  0.1142 -0.2343
 2167W        W19015   6.087   1.393   4.862  0.0260 -0.1030  0.2595
 2168W        W19016  14.242  12.957  13.572  0.1187  0.0291  0.1453
 2169W        W19017  17.243  16.951   0.316 -0.2796 -0.0617  0.3585
 2170W        W19018  13.349  12.304  14.803  0.0344 -0.2307 -0.1191
 2171W        W19019   0.118  16.679   0.033  0.0586  0.3961  0.0274
 2172W        W19020   5.904   4.583   4.208  0.3376 -0.2305 -0.1275
 2173W        W19021  14.440   1.996   1.766 -0.3664  0.0460 -0.1910
 2174W        W19022  10.122   0.030  11.819  0.0025 -0.3153  0.3194
 2175W        W19023  16.896   0.003  16.170 -0.2127 -0.3708  0.0852
 2176W        W19024   9.236   7.190   1.280 -0.0095 -0.1468 -0.2348
 2177W        W19025   3.896   9.770   1.903  0.1570  0.3362  0.0827
 2178W        W19026   5.784  14.384  12.811 -0.0013  0.0734 -0.2520
 2179W        W19027   7.820   2.976  12.275  0.1700  0.0193 -0.0007
 2180W        W19028   2.329  15.648   1.774 -0.1706 -0.0169  0.1973
 2181W        W19029   0.751  17.734   5.161 -0.0767 -0.0441  0.1079
 2182W        W19030   2.970  10.379  10.659  0.1653  0.6720 -0.0538
 2183W        W19031   8.883   1.903  13.474  0.0298 -0.1988  0.1445
 2184W        W19032   4.816   5.509   3.687  0.1143 -0.2093 -0.1318
 2185W        W19033   7.414  17.805   4.310 -0.3194 -0.4846  0.0411
 2186W        W19034   9.072  15.845   2.131 -0.1535  0.1088 -0.0814
 2187W        W19035  10.669   6.572  11.424 -0.1028  0.1197  0.1186
 2188W        W19036   4.566  10.924   0.915 -0.0052  0.3466 -0.1230
 2189W        W19037  17.669  14.912   0.053  0.4381 -0.0397  0.1325
 2190W        W19038   7.448  11.462  11.300  0.3054 -0.2617  0.0558
 2191W        W19039  17.312   6.680   1.044  0.1742  0.3010  0.0086
 2192W        W19040  14.865  11.491   3.685  0.0622 -0.1781  0.0346
 2193W        W19041   6.627   0.646   5.966 -0.1195 -0.1613 -0.0351
 2194W        W19042   5.886   0.087  11.763 -0.0732 -0.0345  0.5026
 2195W        W19043  15.677   4.779  12.386 -0.2235  0.2260  0.1845
 2196W        W19044   6.940   0.635  14.518  0.0446 -0.3663  0.2937
 2197W        W19045   4.314  16.655   2.383 -0.0860 -0.2078 -0.1528
 2198W        W19046   5.906  14.999  12.692  0.1109  0.0157 -0.1072
 2199W        W19047   4.098   9.463   0.006  0.2110 -0.0050 -0.2699
 2200W        W19048   0.204   1.431  14.756 -0.2367  0.0386  0.1618
 2201W        W19049  15.134  15.949  12.733 -0.0618 -0.0088  0.0243
 2202W        W19050  11.266  15.916  15.126 -0.0664 -0.0469  0.1099
 2203W        W19051  12.864   2.476  14.531  0.1261 -0.3457  0.2806
 2204W        W19052  17.279   5.598   3.267 -0.0081  0.1410  0.2867
 2205W        W19053   8.647  16.392  11.360  0.0767  0.1276  0.0336
 2206W        W19054  12.589  16.806  11.915 -0.0395 -0.0043  0.2956
 2207W        W19055   7.327   0.256  13.235 -0.1321 -0.0380  0.0634
 2208W        W19056   6.231   5.551  12.599  0.0176  0.1381  0.1626
 2209W        W19057   6.892   0.368   1.888  0.3248  0.1158  0.0183
 2210W        W19058  13.250  10.110  15.176 -0.0531 -0.3114 -0.1466
 2211W        W19059  13.578   0.904   3.036  0.0976 -0.0830  0.2523
 2212W        W19060  14.666   5.345  13.753  0.2012  0.2505  0.1960
 2213W        W19061  15.219  14.810   2.314  0.2123 -0.2884  0.2019
 2214W        W19062   2.116   6.365   4.426 -0.0526 -0.0392  0.1616
 2215W        W19063   0.556   8.411   1.940  0.0395 -0.0350 -0.3271
 2216W        W19064   1.010   8.379  13.738  0.0014  0.1462 -0.2718
 2217W        W19065   0.912   6.230  12.485  0.1313 -0.3734 -0.0724
 2218W        W19066  17.812  13.096  14.089  0.1337  0.0965 -0.2116
 2219W        W19067   7.178   2.321   4.582 -0.0782  0.1970  0.2497
 2220W        W19068   2.452  17.420   3.729 -0.1224  0.1314 -0.2138
 2221W        W19069   9.331   8.627  10.745 -0.1714  0.2872  0.1097
 2222W        W19070   6.282   6.579  13.868  0.1775  0.0707 -0.2416
 2223W        W19071  15.555  13.958   1.346  0.1586 -0.0353 -0.0277
 2224W        W19072   2.768  17.064   3.760  0.3388 -0.0202 -0.0035
 2225W        W19073   6.043  10.421  15.634  0.2314  0.0806  0.1688
 2226W        W19074   7.425   8.527  14.744 -0.5009 -0.2829 -0.3638
 2227W        W19075   6.164   9.025  14.690 -0.0140  0.1295  0.0189
 2228W        W19076   0.403  15.242  13.428  0.3172 -0.0147 -0.2264
 2229W        W19077  16.006  13.835  11.902 -0.0521  0.2413  0.3435
 2230W        W19078   7.929   0.056  11.206 -0.2083 -0.3522  0.1029
 2231W        W19079   0.081   8.921  14.424  0.0427  0.1310  0.1768
 2232W        W19080   0.278   5.864   2.896  0.4244  0.0979 -0.0749
 2233W        W19081  12.443  17.318   1.874 -0.1189  0.0620 -0.1402
 2234W        W19082  11.196   5.732   0.147  0.0672 -0.1682 -0.1259
 2235W        W19083   2.596   2.109   3.268  0.1374 -0.1796  0.1421
 2236W        W19084   6.981  14.002   1.520  0.0656  0.0407  0.1071
 2237W        W19085   3.957   8.117  15.203  0.1012 -0.0642  0.2049
 2238W        W19086  14.119   5.277   0.300 -0.0328 -0.0551 -0.0045
 2239W        W19087   4.821  13.805  14.307 -0.0725  0.3641  0.2446
 2240W        W19088  12.346  12.634   2.990 -0.1203 -0.1829 -0.0749
 2241W        W19089   0.565  10.045  14.430 -0.0308  0.0050 -0.2921
 2242W        W19090   8.451   3.919  15.068 -0.0877 -0.0859  0.0459
 2243W        W19091  12.487   5.206  14.595  0.0512  0.0270 -0.2390
 2244W        W19092  11.240  15.760   4.836  0.0904 -0.0136  0.1414
 2245W        W19093   6.615   9.640  13.319  0.3659  0.0362 -0.2189
 2246W        W19094   0.152  17.822  14.551  0.3547 -0.2830  0.2482
 2247W        W19095  17.055   7.953   3.412  0.0543  0.1070  0.0188
 2248W        W19096   5.335   9.690   5.051 -0.0852  0.0901 -0.0796
 2249W        W19097  15.142  17.456  12.700 -0.0894 -0.0394  0.3064
 2250W        W19098   6.278  17.734   2.177 -0.2337 -0.0957  0.0667
 2251W        W19099   9.105   9.467  12.902  0.2064  0.1344  0.2519
 2252W        W19100  11.537   2.305   2.010 -0.1221  0.0943 -0.2393
 2253W        W19101  15.664   1.801   4.423 -0.3358  0.0357 -0.0276
 2254W        W19102  16.038  12.225  14.553  0.1243 -0.1010  0.4354
 2255W        W19103  13.342   9.790  14.074 -0.0808 -0.0497  0.0581
 2256W        W19104  11.953  12.363   4.317 -0.0879 -0.0165  0.0307
 2257W        W19105  17.988   1.080   1.583 -0.1949  0.1747 -0.0024
 2258W        W19106   5.229   9.944  15.408 -0.0051  0.0566 -0.1851
 2259W        W19107   1.540   8.170  11.666 -0.2211 -0.0218  0.2218
 2260W        W19108  14.518   3.141  11.008 -0.0629 -0.0760 -0.0191
 2261W        W19109   6.307   9.731   5.033 -0.1120  0.0569 -0.0311
 2262W        W19110  15.202   5.238   1.896  0.0991 -0.1497  0.0444
 2263W        W19111   7.255  14.377  12.877  0.2307 -0.0355  0.0587
 2264W        W19112   1.265  16.305   2.843 -0.1132  0.2860  0.2018
 2265W        W19113   3.414  16.991   4.482 -0.5013  0.1204  0.3273
 2266W        W19114  13.325   3.431  14.913 -0.1218  0.0954 -0.0353
 2267W        W19115   7.311   2.548   3.576  0.1081 -0.1347  0.0532
 2268W        W19116   5.302  13.869   1.439  0.2174 -0.0365  0.2784
 2269W        W19117   4.056   3.872   3.491  0.0672  0.3952 -0.0804
 2270W        W19118  13.938   4.389   2.488 -0.0489  0.2086  0.1544
 2271W        W19119  16.144  16.034   3.521  0.1211  0.0281 -0.2009
 2272W        W19120   6.625   5.255   5.951 -0.4562  0.1331  0.1769
 2273W        W19121   4.313   5.375   3.854 -0.1355  0.1804  0.1420
 2274W        W19122  12.081   3.011   4.444  0.0565  0.0311 -0.0976
 2275W        W19123  14.829  10.758   2.805 -0.0684  0.1295 -0.1077
 2276W        W19124   4.021  10.441   0.856 -0.1479 -0.2098  0.0338
 2277W        W19125   7.299   7.035  16.091  0.3497 -0.0747  0.0012
 2278W        W19126   5.307   7.112  14.635  0.4234 -0.0982 -0.1389
 2279W        W19127   6.542   8.461  14.828  0.1125  0.4501  0.0463
 2280W        W19128  15.696   9.521  14.800  0.0635 -0.1557 -0.0446
 2281W        W19129  12.115  15.389   1.676  0.1315  0.1837  0.2365
 2282W        W19130  17.369  15.698   2.604 -0.0680 -0.3296 -0.0214
 2283W        W19131  16.573   5.757  16.194  0.0373 -0.0913 -0.1201
 2284W        W19132   5.792  10.871  11.970 -0.0084  0.1558 -0.0996
 2285W        W19133  10.458   5.501   2.040 -0.0287 -0.1548  0.2185
 2286W        W19134  15.151   3.779   3.588  0.1994 -0.4803 -0.1307
 2287W        W19135   9.354   5.571  12.424  0.1645 -0.2924  0.2471
 2288W        W19136   6.410   7.672   2.834 -0.0722 -0.0248  0.0231
 2289W        W19137   7.567   8.877   4.728  0.0157 -0.0925  0.0022
 2290W        W19138  15.079   4.738  11.818  0.3607 -0.1948 -0.0099
 2291W        W19139  13.921  16.979   3.529  0.3633  0.1500  0.1158
 2292W        W19140  17.973   2.068   1.659 -0.3297  0.2779  0.1638
 2293W        W19141  12.400  13.454  15.328  0.1219  0.4806  0.0184
 2294W        W19142   4.449   9.293   0.360 -0.2105 -0.2772  0.0469
 2295W        W19143  16.085   5.636  13.396  0.0442 -0.1207 -0.0105
 2296W        W19144  12.505   8.030  13.640  0.0462  0.0623  0.0764
 2297W        W19145   6.958  17.937  15.255 -0.0976 -0.0879 -0.1589
 2298W        W19146  17.620  11.884  15.034 -0.1233  0.0549 -0.0765
 2299W        W19147  16.878   5.901   3.244  0.0033 -0.2082 -0.1382
 2300W        W19148  17.641   6.179  10.819  0.1189 -0.1156  0.3553
 2301W        W19149   7.834  12.557  16.078 -0.1940 -0.1189  0.0133
 2302W        W19150   9.782  16.311  12.601  0.1265  0.0642 -0.0805
 2303W        W19151   4.238  12.178  14.111 -0.0297 -0.1083  0.0011
 2304W        W19152   2.010  17.372  13.651  0.1427 -0.1437  0.1800
 2305W        W19153   3.684  15.029   3.137  0.2587  0.1374  0.0964
 2306W        W19154   0.352  14.925   4.979  0.1090  0.0540  0.1209
 2307W        W19155   6.436   1.841  15.065 -0.1172 -0.2930  0.0568
 2308W        W19156   3.416   6.539  15.034 -0.0997 -0.0075 -0.0324
 2309W        W19157   7.543   0.807  11.798  0.1396  0.2590 -0.4422
 2310W        W19158  13.954   1.276   2.936  0.1176 -0.0067  0.1078
 2311W        W19159   5.626  16.442  13.250 -0.1467 -0.1269  0.1079
 2312W        W19160   4.892  16.897  16.070  0.0880 -0.3422 -0.4403
 2313W        W19161   9.263   3.710   0.414 -0.1174  0.1978  0.3525
 2314W        W19162   3.045   5.381   0.146  0.1511  0.0388 -0.1601
 2315W        W19163   5.836   1.889   1.007  0.2743 -0.2407  0.0522
 2316W        W19164   3.900   5.092  13.619  0.1832  0.0711  0.1743
 2317W        W19165  12.730   4.943   1.554 -0.3514 -0.0899  0.0583
 2318W        W19166   8.797   7.975  13.217 -0.0749 -0.3301 -0.1308
 2319W        W19167  14.021  13.601   2.423  0.0455 -0.1398  0.2796
 2320W        W19168  14.268  17.178   4.249  0.1656  0.0359  0.0126
 2321W        W19169   2.424   6.451  15.928 -0.0231 -0.0159  0.0543
 2322W        W19170  17.165   7.565   0.763 -0.2857  0.1037  0.2255
 2323W        W19171   8.179  12.664   5.310 -0.0749 -0.1307 -0.0424
 2324W        W19172  10.813  16.079   5.027 -0.0673  0.1151 -0.0498
 2325W        W19173   9.987   5.494   2.292  0.0843 -0.0859 -0.0326
 2326W        W19174  10.099   4.073  11.974  0.1102  0.1621 -0.2147
 2327W        W19175   1.454   7.968  13.333 -0.0434  0.0647 -0.0865
 2328W        W19176  12.236  13.881  15.996 -0.0096 -0.0536  0.2311
 2329W        W19177   9.682   5.043   4.067  0.1075  0.0919  0.5341
 2330W        W19178  10.375   3.646   1.937  0.2802 -0.2332 -0.2314
 2331W        W19179  17.849   5.800  12.818  0.2852  0.0022 -0.2960
 2332W        W19180   6.443   7.506   5.689  0.0046  0.0471 -0.0812
 2333W        W19181   1.911  16.193   0.464  0.2214 -0.3551 -0.4393
 2334W        W19182   5.393  15.836  11.372 -0.1088 -0.1120  0.1672
 2335W        W19183  10.176   9.443  11.768  0.1511  0.3184  0.1601
 2336W        W19184  14.898   7.641   1.697 -0.2594 -0.1320 -0.2871
 2337W        W19185   4.577   0.272   2.409 -0.0594 -0.0586 -0.0378
 2338W        W19186  16.305   1.994  10.952  0.1088  0.1277  0.0522
 2339W        W19187   9.432   6.212  13.164 -0.2465 -0.1814 -0.2169
 2340W        W19188  13.799  12.539   3.481  0.1387 -0.1848 -0.0264
 2341W        W19189  15.557   7.358  13.718 -0.0873 -0.1299  0.2859
 2342W        W19190  12.844   9.579  15.795 -0.1126 -0.0296  0.0609
 2343W        W19191  11.647   0.562   2.390 -0.0301  0.0014 -0.4975
 2344W        W19192   8.146  11.582  11.782 -0.0928  0.3114  0.1241
 2345W        W19193   0.111   3.943  12.489 -0.0796  0.0354 -0.3648
 2346W        W19194  14.801  11.805   1.111  0.0633  0.2279  0.0991
 2347W        W19195  13.143  16.083   3.804 -0.0094  0.0696 -0.0801
 2348W        W19196  15.632  17.635   2.755 -0.1356  0.3034 -0.1686
 2349W        W19197  10.984   1.633   3.389  0.1492  0.1995  0.1705
 2350W        W19198   1.057  10.835   3.366  0.0069  0.1204 -0.2277
 2351W        W19199   5.414   9.367  13.067 -0.0336  0.1734 -0.0343
 2352W        W19200   6.952  12.653   1.831  0.2327 -0.0430  0.2562
 2353W        W19201   3.928   4.647  12.273  0.0954  0.2242  0.0125
 2354W        W19202   9.330  13.849  14.388 -0.1022 -0.2947  0.2119
 2355W        W19203  15.449   0.424  13.402 -0.0284  0.2272 -0.0357
 2356W        W19204  15.725   1.717   0.767  0.1164 -0.0454 -0.0038
 2357W        W19205   6.725   1.612  14.320  0.1056  0.2371 -0.2084
 2358W        W19206   7.974  14.096   1.381 -0.1810 -0.0588 -0.2628
 2359W        W19207   7.191  11.029  11.405 -0.0925  0.0782  0.0504
 2360W        W19208   5.363  16.290  13.784  0.0768 -0.1885  0.0588
 2361W        W19209  12.831  16.886   3.692 -0.0539  0.1739  0.0782
 2362W        W19210  16.945  10.636  12.331 -0.1844  0.0608  0.0679
 2363W        W19211   2.155   2.609  16.183  0.1727 -0.2655 -0.2025
 2364W        W19212  16.015   4.334  11.587  0.1136 -0.1162  0.2519
 2365W        W19213   1.170  12.030   4.834  0.0442 -0.1003  0.2172
 2366W        W19214   2.416  12.670  13.436  0.3645  0.2830  0.0245
 2367W        W19215   8.189  16.533  14.492 -0.2070 -0.0612 -0.0909
 2368W        W19216   6.953   8.815   0.097 -0.2984 -0.1362  0.0669
 2369W        W19217  16.427   9.272  14.938 -0.0926  0.0589  0.1220
 2370W        W19218   1.838   3.136   2.444  0.2695 -0.0239  0.3048
 2371W        W19219   5.415   6.427   3.478  0.2445  0.0234  0.1907
 2372W        W19220   6.236   7.908   0.158  0.2142  0.0853 -0.1373
 2373W        W19221  14.961  13.382  14.877  0.0783  0.3086 -0.2104
 2374W        W19222   6.543   0.730  15.425 -0.2578 -0.0404 -0.1906
 2375W        W19223  15.327   5.570   4.374 -0.1163 -0.1511  0.1192
 2376W        W19224   6.895  12.808  12.306 -0.1516 -0.1758  0.3938
 2377W        W19225  16.966   7.060   2.462 -0.1523 -0.2066 -0.1138
 2378W        W19226  12.253   9.308   3.566  0.1021 -0.3311  0.2491
 2379W        W19227   7.236  15.048   1.427 -0.1625 -0.1166  0.1876
 2380W        W19228   5.329   2.086  10.345  0.1137 -0.1248 -0.0839
 2381W        W19229   7.746   7.242  15.227 -0.1500 -0.3439  0.2005
 2382W        W19230   1.160   9.622  12.572 -0.0040 -0.0677  0.3564
 2383W        W19231   4.425   2.938  15.697 -0.0144  0.2247  0.0375
 2384W        W19232   4.296   2.387   3.642 -0.0989  0.1721  0.1867
 2385W        W19233   9.852  10.396   4.352  0.2922  0.0580  0.2109
 2386W        W19234   1.108  14.109   2.884  0.1882  0.0217 -0.2494
 2387W        W19235   6.048  12.930  15.454 -0.3261 -0.0776  0.2068
 2388W        W19236   5.934  17.716  13.036  0.0972  0.0000 -0.1166
 2389W        W19237  11.251   3.228   1.665 -0.2749  0.1660  0.1483
 2390W        W19238  17.088   9.321   2.017 -0.2828 -0.1153  0.0236
 2391W        W19239   7.051   3.977   4.789  0.1035 -0.2566  0.0131
 2392W        W19240   3.457  13.392  12.441 -0.0167  0.0094  0.0674
 2393W        W19241  12.160   5.457   3.229  0.1684  0.3335  0.1228
 2394W        W19242   0.212  11.961   3.104  0.4046  0.0648 -0.0693
 2395W        W19243   1.540  10.043  13.400  0.1350  0.1447  0.0675
 2396W        W19244  11.328  15.878  12.939  0.0133 -0.1256 -0.0252
 2397W        W19245   2.041   9.562  15.059 -0.0352  0.1068 -0.1530
 2398W        W19246  11.096   1.676   2.612 -0.2546 -0.0343 -0.0185
 2399W        W19247  14.013  12.641  10.362 -0.0625  0.4157 -0.0919
 2400W        W19248   4.801  14.211  12.134 -0.1991 -0.0848  0.2793
 2401W        W19249  11.390  10.826   5.904  0.0538 -0.1541  0.1865
 2402W        W19250  11.746  15.419   0.650 -0.1179 -0.2162 -0.2530
 2403W        W19251  17.476   3.569   2.066  0.1527  0.1994 -0.0140
 2404W        W19252  12.980  15.069  13.170  0.1014 -0.0006  0.1610
 2405W        W19253  15.666   3.892   3.370  0.0102  0.1080  0.0597
 2406W        W19254  17.668  15.923  10.385 -0.2038 -0.1007  0.1181
 2407W        W19255   1.429   1.394   3.732  0.1560 -0.1621 -0.2383
 2408W        W19256  16.787   2.549   1.848 -0.2338 -0.2345  0.0887
 2409W        W19257   4.166   2.273  11.791  0.1840  0.0879  0.2174
 2410W        W19258  16.753  15.093   1.138  0.0963 -0.0714  0.0020
 2411W        W19259  14.688  16.639   3.223 -0.1182  0.4600 -0.1006
 2412W        W19260  11.368   2.326   2.756 -0.0444 -0.2112 -0.0525
 2413W        W19261   8.358  16.364   1.547  0.1300 -0.0268 -0.2971
 2414W        W19262  16.087  17.508   0.569  0.3365  0.2180  0.2714
 2415W        W19263   6.979   7.217  15.634  0.1317 -0.2208  0.1569
 2416W        W19264   0.735   6.759  13.311 -0.0132 -0.0087 -0.2035
 2417W        W19265  16.515   5.630   3.527 -0.0578 -0.2024 -0.0837
 2418W        W19266   3.108  13.398  10.969 -0.0132 -0.1709 -0.0905
 2419W        W19267   6.514   4.869   4.580  0.1730 -0.2021  0.2564
 2420W        W19268   2.080   6.831   3.471 -0.1359 -0.1903 -0.2378
 2421W        W19269  13.199   1.828  12.694  0.1056 -0.1683 -0.0142
 2422W        W19270   2.523   1.485  15.769 -0.1283  0.0898 -0.3749
 2423W        W19271   2.463   1.995   1.485 -0.0024 -0.1535  0.0846
 2424W        W19272  11.630  17.701   4.970  0.2819  0.2778 -0.1519
 2425W        W19273  12.879   3.147   4.049 -0.1657 -0.1823  0.1203
 2426W        W19274   1.839   2.956  15.092  0.3670 -0.1371  0.1370
 2427W        W19275  12.358   9.224  12.575  0.0198  0.1032  0.0621
 2428W        W19276  14.409   3.687   3.370  0.1638 -0.0854  0.0628
 2429W        W19277  13.297   9.556   2.927  0.1763  0.0983  0.1876
 2430W        W19278   5.294   0.274   6.255 -0.0437  0.0528 -0.0082
 2431W        W19279  11.860   3.132   3.672 -0.1201  0.2175 -0.2294
 2432W        W19280  11.182   5.611  15.591 -0.1836 -0.0590  0.1249
 2433W        W19281  10.401  11.715  12.628  0.3689 -0.1243  0.0741
 2434W        W19282   6.703  12.462   4.013  0.0695 -0.2815  0.1610
 2435W        W19283   9.277  15.445  12.903  0.3704 -0.0206 -0.0066
 2436W        W19284   1.559   9.980   4.785 -0.0145  0.1370  0.2740
 2437W        W19285   5.730  11.415  15.769 -0.1448 -0.3735 -0.0040
 2438W        W19286   0.805  13.369   5.599 -0.0468  0.1259 -0.0800
 2439W        W19287   2.671  16.708   3.266 -0.2821 -0.2354  0.1802
 2440W        W19288   9.869   5.388   1.197 -0.1123 -0.2527 -0.1785
 2441W        W19289   9.958   4.102  15.893  0.0953  0.0871 -0.3835
 2442W        W19290  17.480   6.360  14.674 -0.0999 -0.0616  0.3148
 2443W        W19291   5.278  17.732  15.019 -0.0140 -0.0871 -0.2178
 2444W        W19292  13.057  14.938   4.647 -0.3419 -0.1669 -0.1319
 2445W        W19293   6.826  15.571  11.369  0.1117 -0.1080 -0.0153
 2446W        W19294   4.080   0.072   2.214 -0.0117  0.0734 -0.2385
 2447W        W19295  17.192  13.045   4.852 -0.1442 -0.1279 -0.1884
 2448W        W19296  12.046   5.313   5.421 -0.1987  0.0183  0.2049
 2449W        W19297  10.283  17.331  14.822  0.1134 -0.2225  0.1236
 2450W        W19298   3.426  14.399  12.677  0.2519  0.1024 -0.0669
 2451W        W19299   3.966  10.752  11.424 -0.0256 -0.0014 -0.1331
 2452W        W19300   3.967   0.281  14.858 -0.1334  0.1151  0.3094
 2453W        W19301  13.784   6.777  10.823 -0.0659 -0.0403  0.0366
 2454W        W19302  10.890   4.382  10.475  0.1476 -0.3595  0.2671
 2455W        W19303  15.683  14.181  12.076 -0.1094 -0.0853  0.3723
 2456W        W19304   2.827   2.021   2.290 -0.3444  0.1005  0.0206
 2457W        W19305   9.840   0.863   2.611 -0.1337 -0.0501  0.2091
 2458W        W19306   9.223  16.423   3.766 -0.2192 -0.0917  0.1689
 2459W        W19307  12.631  15.228   0.832 -0.0844 -0.0053 -0.1731
 2460W        W19308  16.393   2.992   5.004 -0.0610 -0.1247  0.0595
 2461W        W19309   9.083  15.940   5.401  0.2934  0.0977  0.0156
 2462W        W19310  15.837  13.562   4.995  0.0322  0.0706 -0.1290
 2463W        W19311  15.934  14.428   4.346  0.2227 -0.0371  0.2957
 2464W        W19312  11.486   5.063  15.166  0.3940 -0.1861 -0.2359
 2465W        W19313   6.371   2.175   1.812 -0.1675  0.1765  0.0447
 2466W        W19314   6.390   6.097   4.782  0.1460  0.1094 -0.0359
 2467W        W19315  13.707  10.129  13.887  0.0121  0.0863 -0.0354
 2468W        W19316  10.297  13.165   3.730  0.5224 -0.0870 -0.1690
 2469W        W19317  16.235   8.914   2.264 -0.2797 -0.0869 -0.0974
 2470W        W19318   2.988   9.616  14.283 -0.3355 -0.0372  0.0440
 2471W        W19319   7.451   7.353  15.658 -0.1893  0.3048  0.2044
 2472W        W19320  13.261  17.138  14.118  0.4435 -0.4829 -0.0890
 2473W        W19321   1.439   8.082  13.836  0.2320 -0.0540 -0.1748
 2474W        W19322   7.032   8.544   2.305  0.1110  0.0350 -0.0769
 2475W        W19323   9.168  17.440   3.817  0.0518 -0.2631 -0.0412
 2476W        W19324   3.227  13.739  11.647  0.1064 -0.0550  0.0712
 2477W        W19325   4.688   2.456   3.306 -0.1165 -0.0161 -0.0109
 2478W        W19326   6.830   4.940   4.200  0.2289  0.2432 -0.3126
 2479W        W19327  11.674  13.637  12.883  0.2715  0.1204  0.0517
 2480W        W19328   2.733  13.707  12.793  0.3608 -0.1549  0.0765
 2481W        W19329  15.947   1.446   4.070  0.0676  0.1751  0.0310
 2482W        W19330  10.436   7.455   4.503 -0.2690  0.2195 -0.2163
 2483W        W19331   4.780   2.952   3.244  0.2305 -0.0803  0.0782
 2484W        W19332  13.587   0.408  13.914 -0.0482 -0.5403 -0.0531
 2485W        W19333  12.052  15.831   0.759 -0.1048 -0.1335  0.0076
 2486W        W19334  11.339  10.588  15.523 -0.0348  0.1716 -0.1264
 2487W        W19335  13.738  13.945  15.365 -0.1217 -0.0972  0.1432
 2488W        W19336  15.746   5.680  15.877 -0.1241 -0.1382  0.0493
 2489W        W19337   1.194  16.477  13.747  0.1864 -0.3709  0.0165
 2490W        W19338  13.083   6.936   2.707 -0.0429  0.0395  0.2028
 2491W        W19339  15.338   4.128  12.657  0.0748  0.1114 -0.2025
 2492W        W19340  17.876  12.201  15.443  0.1952  0.1650  0.4932
 2493W        W19341   2.625  17.144  11.837  0.0314  0.1084 -0.0010
 2494W        W19342  11.644   2.965   5.169  0.0290  0.0118 -0.1902
 2495W        W19343  10.168   5.652  12.884 -0.0531  0.2090 -0.2296
 2496W        W19344  13.273   9.839   5.435 -0.2079  0.1208 -0.2192
 2497W        W19345   1.336  11.454   0.967  0.0560  0.1572 -0.0494
 2498W        W19346   5.692   1.817   1.660  0.2383  0.2945 -0.2468
 2499W        W19347  12.467   3.789  12.997  0.3636  0.2312 -0.3402
 2500W        W19348  17.619  13.118   3.515 -0.0467 -0.1269  0.0808
 2501W        W19349  15.197  10.177   0.349 -0.0968  0.0957 -0.0967
 2502W        W19350  14.942  14.917  11.050  0.0871  0.0094  0.3649
 2503W        W19351  16.227  15.316   4.967  0.1039  0.2383 -0.3368
 2504W        W19352  11.484   4.378  10.911 -0.1371 -0.1253 -0.0913
 2505W        W19353  11.247   8.520  11.856  0.1397 -0.2498  0.0369
 2506W        W19354   8.638   1.513  11.700  0.7151 -0.1581  0.0136
 2507W        W19355   0.074   0.035  15.138  0.0028  0.1004 -0.2082
 2508W        W19356  16.905  15.254  15.825 -0.0546  0.2508  0.2105
 2509W        W19357   3.924  11.943   5.111 -0.3668  0.1151 -0.1764
 2510W        W19358   6.486   4.100  15.657 -0.0897 -0.0999 -0.0899
 2511W        W19359   7.083  16.529   1.004 -0.3098  0.0189 -0.1978
 2512W        W19360   0.062   4.410  11.243 -0.0113 -0.1271  0.0684
 2513W        W19361   7.612  15.105   2.197 -0.1796 -0.2478  0.1057
 2514W        W19362  16.778  11.662   1.207 -0.1872  0.0966 -0.0073
 2515W        W19363  17.887   6.833  15.687 -0.2209 -0.0408  0.2193
 2516W        W19364   5.761  15.991   5.200 -0.0960  0.0749  0.2265
 2517W        W19365   4.488   7.857   4.453  0.2398 -0.0245 -0.0938
 2518W        W19366  17.090  16.760   0.760 -0.3337 -0.0576 -0.0683
 2519W        W19367  10.360  12.070  16.143 -0.0290  0.1847  0.1826
 2520W        W19368   3.783  16.702   4.233  0.0814  0.0926 -0.1839
 2521W        W19369  16.954   8.657   3.848 -0.1489  0.0681  0.0229
 2522W        W19370   2.236   4.994  13.621 -0.0182  0.1808  0.0475
 2523W        W19371   5.333   0.634   2.176  0.0618  0.1017  0.0703
 2524W        W19372  13.095   9.288   4.023 -0.1945  0.1693 -0.1984
 2525W        W19373  17.843  16.334  15.607 -0.0447 -0.2785  0.0121
 2526W        W19374   8.613   4.992  14.991 -0.0076  0.1347  0.0794
 2527W        W19375   2.692   1.039  12.701 -0.2484  0.1372  0.1885
 2528W        W19376   8.363   1.873   4.467 -0.0532 -0.0171  0.3655
 2529W        W19377  12.335  10.503   1.768  0.2896 -0.1611 -0.1010
 2530W        W19378   6.498   7.397   1.222 -0.2573 -0.4482  0.2195
 2531W        W19379   6.280   6.565  15.900  0.1575 -0.1039 -0.0097
 2532W        W19380   2.553   2.687  12.862 -0.1546 -0.2016  0.0631
 2533W        W19381   5.061  11.676  14.198  0.3126 -0.0653  0.1586
 2534W        W19382   6.068   2.692   3.270 -0.0666 -0.3016  0.2406
 2535W        W19383   4.301   9.768   0.928 -0.0380 -0.0093 -0.0930
 2536W        W19384  10.388  14.914   2.598  0.1696 -0.2863  0.2380
 2537W        W19385   8.165  12.339   0.085  0.0892  0.1155  0.0322
 2538W        W19386   3.841   8.599   2.311 -0.0753  0.2068 -0.1858
 2539W        W19387  15.058   3.072  14.973  0.2044  0.2230 -0.1756
 2540W        W19388  12.499  13.972   2.677 -0.1953 -0.1380 -0.0006
 2541W        W19389   8.148   5.241  13.374 -0.4476 -0.2181 -0.2864
 2542W        W19390  15.183   4.772   0.105  0.2420  0.0321 -0.3933
 2543W        W19391   9.809   7.779  14.108  0.0036 -0.1254  0.2923
 2544W        W19392   2.481   4.822   3.239 -0.0101  0.1031 -0.1321
 2545W        W19393  14.324  16.438  15.424  0.0649  0.1141  0.1520
 2546W        W19394  10.335  14.702   4.475  0.0413  0.2434  0.3618
 2547W        W19395   0.500   0.958  11.503 -0.0113  0.0712  0.0588
 2548W        W19396  17.806  17.740   0.294  0.0557 -0.0286 -0.0011
 2549W        W19397   0.958   2.399  11.302  0.1319 -0.1607 -0.1466
 2550W        W19398   5.740   8.854  14.456  0.1940 -0.1501  0.0694
 2551W        W19399   7.604   5.006  14.786 -0.2012 -0.0773 -0.0963
 2552W        W19400   3.281   9.779  11.256  0.0585  0.1111  0.0090
 2553W        W19401  10.733   9.933   1.285 -0.3379  0.3073  0.0589
 2554W        W19402   6.550   6.775  11.041  0.0119 -0.0178 -0.1547
 2555W        W19403  17.251   5.132  15.375  0.2713  0.1759  0.3844
 2556W        W19404  11.770   4.195   0.195  0.2290  0.1548 -0.1481
 2557W        W19405  12.128  15.810  11.350  0.0828  0.2170 -0.1226
 2558W        W19406  17.626   0.126  15.334  0.2197 -0.4461  0.1531
 2559W        W19407   7.338   1.448  13.923  0.2050  0.1899 -0.0600
 2560W        W19408   1.678   9.798  16.065  0.1201  0.1698 -0.0026
 2561W        W19409   2.607  13.980  12.367 -0.3294 -0.1701 -0.0984
 2562W        W19410  11.550  10.553  13.259  0.2019  0.2048  0.0523
 2563W        W19411  16.602  17.374   3.736 -0.0646 -0.1389 -0.0538
 2564W        W19412   8.809  15.432   1.124 -0.1274 -0.0073 -0.4323
 2565W        W19413  14.862   3.454   3.292 -0.1067 -0.1804 -0.1044
 2566W        W19414  12.119   0.363   3.827  0.0441  0.1705  0.1817
 2567W        W19415  14.199   6.676   2.600 -0.0130  0.2816  0.0060
 2568W        W19416  15.147   5.887  11.711  0.0205 -0.2139 -0.0092
 2569W        W19417   5.783  12.709  15.008 -0.2532 -0.0630 -0.0177
 2570W        W19418   5.479  12.399   1.670  0.1485  0.4930 -0.0595
 2571W        W19419  10.030   4.103   0.173  0.0381 -0.3700  0.0031
 2572W        W19420  11.000   8.964   3.930 -0.1060  0.1471 -0.1455
 2573W        W19421  15.446   1.349   0.856 -0.1327  0.1190 -0.2664
 2574W        W19422   2.420  14.851   0.439 -0.1096 -0.0115 -0.0744
 2575W        W19423  15.073   8.786  13.809 -0.1738  0.0101  0.1210
 2576W        W19424  16.370   6.454   0.959  0.2053 -0.3915 -0.4196
 2577W        W19425   8.395  10.246  11.550 -0.0328 -0.1245  0.0280
 2578W        W19426   7.823   6.782  15.176  0.0568  0.0441  0.2790
 2579W        W19427   5.633  15.954  15.196  0.1049 -0.1040  0.2038
 2580W        W19428   1.160  15.171   2.053 -0.2329 -0.1249  0.4095
 2581W        W19429   5.045   1.875   4.783  0.0353  0.2189 -0.0532
 2582W        W19430   0.873   0.971   2.786 -0.2003  0.1246 -0.3516
 2583W        W19431  16.096  13.216   4.780 -0.0963  0.0323 -0.0070
 2584W        W19432  16.142  10.985   1.025  0.1934  0.0412 -0.1372
 2585W        W19433   6.657   2.766   1.631 -0.0375  0.0274 -0.0121
 2586W        W19434   8.051  14.446   0.018  0.2922 -0.0032 -0.1405
 2587W        W19435  17.118   8.773   2.027  0.0167 -0.0265 -0.3085
 2588W        W19436  14.427   1.974  12.461  0.2650 -0.0752 -0.1126
 2589W        W19437  16.547   7.320   3.553 -0.1724 -0.2312 -0.1301
 2590W        W19438   5.185   1.881  14.741  0.0940  0.0184  0.2711
 2591W        W19439  13.153   3.430  15.812 -0.5091 -0.3405  0.3940
 2592W        W19440  13.056   2.182  14.171  0.2058  0.0694 -0.2119
 2593W        W19441   6.162   5.565  14.334 -0.2730  0.1718  0.2621
 2594W        W19442   2.166  13.046   4.477  0.1864  0.2694 -0.1106
 2595W        W19443  12.835  11.990  15.375 -0.2475  0.0346 -0.2340
 2596W        W19444   2.106   0.473  11.281  0.0106  0.0553 -0.1809
 2597W        W19445   8.437  11.590   0.793  0.0934  0.2528  0.1660
 2598W        W19446   5.468   2.830   1.972  0.1314  0.0057 -0.3458
 2599W        W19447  12.994  13.761   4.855 -0.1349 -0.0364  0.2935
 2600W        W19448  11.692   9.741  11.662  0.1400 -0.0847 -0.0215
 2601W        W19449  16.257   3.574  12.588  0.0536 -0.2606 -0.3044
 2602W        W19450   1.574   2.289   2.981 -0.2350 -0.1226 -0.2098
 2603W        W19451  10.932  17.999  15.979 -0.1078 -0.1259  0.1537
 2604W        W19452   1.628  16.185  12.735 -0.1450  0.0437  0.0858
 2605W        W19453   9.558  12.516  11.162 -0.0564 -0.4958 -0.1117
 2606W        W19454   0.944  13.010   4.270  0.1979 -0.0549  0.1613
 2607W        W19455  11.934   9.566   0.914  0.2284  0.0192 -0.1058
 2608W        W19456   0.805   3.534   0.160  0.0318 -0.2239  0.1676
 2609W        W19457   9.775   4.377   3.323 -0.1864 -0.0239  0.2847
 2610W        W19458   5.046   2.116  11.679  0.3632 -0.2193 -0.0638
 2611W        W19459   8.559  13.019   0.998  0.1562 -0.1848 -0.3638
 2612W        W19460   4.907  13.222  12.969 -0.2199  0.2172 -0.1121
 2613W        W19461   3.025   6.559  14.761 -0.0488  0.0731  0.0142
 2614W        W19462  14.980   3.989  16.014  0.0156 -0.2733  0.0042
 2615W        W19463  17.190  14.574  13.832 -0.1016  0.2174  0.1602
 2616W        W19464   3.938   0.587   5.265 -0.1387 -0.0231  0.1581
 2617W        W19465  14.782   4.367  13.625  0.0717 -0.2742  0.1812
 2618W        W19466   3.980   2.611  14.875  0.1146 -0.0084  0.1444
 2619W        W19467   4.500  12.818  11.485 -0.3461  0.2400  0.1508
 2620W        W19468  11.660  10.830   1.138 -0.0295  0.0414  0.3635
 2621W        W19469  15.385   2.845   0.691  0.1303 -0.3452  0.1740
 2622W        W19470  16.225  15.766   4.601 -0.0235 -0.1459 -0.2410
 2623W        W19471  16.134   8.871  14.363  0.1753 -0.3307 -0.1031
 2624W        W19472  13.104   5.969   4.747 -0.0944  0.1693  0.1150
 2625W        W19473  11.889   4.685   0.484  0.1149  0.0810  0.0720
 2626W        W19474   8.462  10.838  15.178 -0.0048  0.0056 -0.2346
 2627W        W19475   6.687   6.267  13.729 -0.1733 -0.0449  0.2778
 2628W        W19476  14.933  12.234   1.470 -0.5143 -0.0169 -0.1629
 2629W        W19477   2.600   7.671  14.091  0.3598 -0.2510 -0.0916
 2630W        W19478   5.750   3.783   0.243 -0.0741  0.1582  0.1900
 2631W        W19479   1.697  18.012   4.925 -0.1150  0.1348  0.0774
 2632W        W19480  10.659   7.486   1.813 -0.2414 -0.0048 -0.1494
 2633W        W19481   5.135  13.975   5.080  0.0797  0.4779  0.3430
 2634W        W19482  15.366   5.581   1.478 -0.1182 -0.1232  0.1471
 2635W        W19483  15.497   0.574   0.323 -0.1738  0.2024  0.0623
 2636W        W19484   8.268  15.585  14.587 -0.0611  0.3161 -0.0597
 2637W        W19485  15.040   5.927   4.883  0.1176  0.2078 -0.2668
 2638W        W19486   4.484   8.409  11.508 -0.0392 -0.0878 -0.1352
 2639W        W19487   4.317  10.337  16.087 -0.1321 -0.2832 -0.1313
 2640W        W19488  11.579  14.097   4.660 -0.0684  0.0372  0.0115
 2641W        W19489   9.564  11.513  14.726  0.0896  0.2604 -0.0005
 2642W        W19490   3.075   5.848  12.187 -0.0948  0.0018  0.1781
 2643W        W19491   4.611   1.396  12.978 -0.1985 -0.1819  0.0926
 2644W        W19492   5.467   4.874   3.686  0.2108 -0.0528  0.1988
 2645W        W19493  14.323  15.079  15.115 -0.1981 -0.0325 -0.1595
 2646W        W19494  14.021   8.112   1.570  0.0330  0.1952 -0.1597
 2647W        W19495   0.559   0.998  13.008  0.0711  0.3305 -0.0111
 2648W        W19496   8.077  12.218  14.862  0.2995 -0.0980 -0.3552
 2649W        W19497   9.237   3.050  15.123  0.1845  0.1019 -0.0980
 2650W        W19498  10.441  17.288   2.011  0.3958  0.0940 -0.0143
 2651W        W19499  13.973  15.812   2.321 -0.0719 -0.0533 -0.3301
 2652W        W19500   8.997   1.730   3.711 -0.0848 -0.0234  0.1440
 2653W        W19501  16.242   2.879  13.280  0.1461  0.2193  0.0148
 2654W        W19502  14.286  12.621  11.076 -0.3120 -0.1800  0.3804
 2655W        W19503   7.106   9.190  11.804 -0.1482  0.0562 -0.1091
 2656W        W19504  16.026  16.415   2.379 -0.0235  0.0246 -0.2235
 2657W        W19505  15.810  10.173  12.190 -0.1970  0.0258 -0.0521
 2658W        W19506  11.255  13.886  14.975 -0.1517 -0.0263  0.0622
 2659W        W19507  12.393   0.979  11.058  0.1011 -0.2446  0.2607
 2660W        W19508  12.355   0.147   1.580 -0.2827  0.0447  0.2545
 2661W        W19509  16.005  10.298  14.139 -0.0057  0.0513 -0.3186
 2662W        W19510   0.422   6.813   0.995  0.1503  0.1300 -0.3329
 2663W        W19511   5.227  10.512  11.082 -0.1475  0.2055 -0.0711
 2664W        W19512   0.136  17.173  16.205 -0.1888 -0.0670  0.2914
 2665W        W19513   2.597   0.905  15.118  0.0212  0.0514 -0.1287
 2666W        W19514   1.028   0.908   3.770 -0.1796 -0.0394 -0.0059
 2667W        W19515   2.745   3.593  14.590  0.4089 -0.0105  0.1325
 2668W        W19516   4.583  11.701   0.686  0.0713 -0.1583  0.2711
 2669W        W19517  11.142   8.037   0.476 -0.0863 -0.0070  0.2317
 2670W        W19518  15.027  11.991  11.013  0.3329 -0.1100 -0.2714
 2671W        W19519  11.393  11.368   4.905 -0.0324  0.3157  0.2509
 2672W        W19520   4.444  13.357  12.171 -0.0707  0.0997 -0.0254
 2673W        W19521  15.786   1.671   2.380  0.3156  0.1966 -0.3031
 2674W        W19522  14.297   2.673  12.646 -0.2036 -0.1443 -0.2430
 2675W        W19523   0.215  15.963  13.379  0.3008  0.2477 -0.0773
 2676W        W19524  12.333   4.024   2.293 -0.1785  0.0966  0.0368
 2677W        W19525   1.695  15.482  13.845 -0.4571 -0.0184  0.1213
 2678W        W19526   4.902   8.795   1.827 -0.1141 -0.0440  0.3506
 2679W        W19527  16.429   6.391  13.740 -0.0030 -0.1505  0.0120
 2680W        W19528   5.069   1.334  12.930  0.0366 -0.0344 -0.2463
 2681W        W19529  10.331  17.114  15.822  0.1451  0.1234 -0.2507
 2682W        W19530   9.219  14.957   3.481  0.1556 -0.0018 -0.1619
 2683W        W19531   5.689  12.692  13.428  0.0301 -0.0162 -0.0017
 2684W        W19532   5.239  14.314   2.980  0.0149  0.0517 -0.1236
 2685W        W19533   5.550   3.031   4.395 -0.1078  0.5263  0.4040
 2686W        W19534  12.399  13.856  12.224  0.1416  0.0886 -0.1281
 2687W        W19535   2.831   9.805   1.019  0.0669  0.2011  0.0711
 2688W        W19536   3.966  10.469   2.922  0.2248  0.3611  0.1703
 2689W        W19537  13.117  16.506   1.124 -0.0452  0.0345 -0.1048
 2690W        W19538   3.941   4.354   1.724  0.1059  0.3213  0.0221
 2691W        W19539   7.254   7.906  11.102 -0.2344  0.2287  0.2425
 2692W        W19540  14.582   9.462  13.359 -0.1710  0.1890  0.0122
 2693W        W19541   2.070   3.923  11.630 -0.1722 -0.4738  0.0300
 2694W        W19542  10.477  15.079  16.027  0.1259  0.0444 -0.1871
 2695W        W19543   9.225  14.674  15.374 -0.1316 -0.3839 -0.3154
 2696W        W19544   7.993   6.046  16.276 -0.1547  0.0854  0.0713
 2697W        W19545  12.875   0.615   1.674 -0.0994  0.1191  0.2588
 2698W        W19546   7.984   1.078   2.427  0.0236 -0.0315 -0.3778
 2699W        W19547   3.212  17.717  11.794  0.1498  0.0713  0.1041
 2700W        W19548   2.145  10.027  11.996 -0.2292  0.1442 -0.0924
 2701W        W19549  13.353  14.117   1.016  0.0448  0.0101  0.1453
 2702W        W19550   4.513   4.344   2.346 -0.0376  0.0165  0.2696
 2703W        W19551  11.226   9.729   2.175 -0.0698 -0.0360 -0.0056
 2704W        W19552   9.155   8.816  14.819 -0.1531  0.0469  0.0797
 2705W        W19553  16.078   0.906   0.536  0.1696  0.2205 -0.3361
 2706W        W19554  11.448   9.419   2.635  0.2017  0.0375 -0.0914
 2707W        W19555   7.148  14.900  15.926 -0.0421  0.1287  0.3544
 2708W        W19556  13.741   8.772  15.173 -0.1586 -0.1606  0.0039
 2709W        W19557   8.126  16.319  10.684 -0.0130 -0.1231  0.2507
 2710W        W19558   4.420   6.460   0.714  0.1242  0.1945 -0.0986
 2711W        W19559   3.219   6.044   3.652  0.1797  0.2342  0.1230
 2712W        W19560  14.025   7.378   1.054  0.1043  0.1661 -0.0715
 2713W        W19561   1.853   7.731   0.693  0.0479 -0.2827 -0.0450
 2714W        W19562  12.917   2.419  16.116 -0.0074 -0.3961  0.0537
 2715W        W19563   4.715   2.137  16.088  0.0733  0.1777 -0.0427
 2716W        W19564   8.573   4.679  14.619 -0.0010  0.3084  0.2192
 2717W        W19565   9.995   9.715  12.658 -0.0564  0.2926  0.0760
 2718W        W19566   1.837  14.224  13.218  0.0802 -0.1875 -0.6071
 2719W        W19567   8.217  14.565   1.426 -0.2133  0.0482 -0.1037
 2720W        W19568   0.449   7.432  14.132 -0.1800 -0.1794  0.1023
 2721W        W19569  11.676   0.176   3.629  0.2787 -0.0747  0.1355
 2722W        W19570  16.440  11.916  13.732 -0.1359 -0.3667  0.0578
 2723W        W19571  14.402   7.048  15.553 -0.3098  0.3137  0.3477
 2724W        W19572   5.341   1.966   0.643  0.1700  0.2011  0.1053
 2725W        W19573   6.943   6.122   0.613 -0.0361 -0.1513 -0.2001
 2726W        W19574   8.854   7.131   5.383  0.1517  0.2748 -0.1647
 2727W        W19575   5.235  14.828  14.070 -0.1774 -0.1396 -0.0912
 2728W        W19576   7.006   3.533   0.204  0.1293  0.4053 -0.0736
 2729W        W19577  12.709   2.362   4.389  0.1890  0.2023  0.0550
 2730W        W19578  12.827  10.635  14.134  0.0606  0.0067  0.0176
 2731W        W19579  14.280   1.476   1.976  0.3316 -0.0021  0.1629
 2732W        W19580  13.753   1.705   3.145  0.1554  0.2075  0.0076
 2733W        W19581   5.668  10.770  12.616 -0.0039 -0.0687 -0.1843
 2734W        W19582  14.243   9.390   2.700  0.0072 -0.0737  0.3287
 2735W        W19583  12.605   7.378   5.801  0.4149  0.0419 -0.1365
 2736W        W19584   6.701  14.003   3.543  0.0384  0.0188  0.1057
 2737W        W19585   4.893  10.148  13.706 -0.0102 -0.1669 -0.0025
 2738W        W19586  10.357  16.362  13.273  0.0898  0.0291  0.1338
 2739W        W19587   0.695   5.287   3.256  0.0063 -0.1191  0.2063
 2740W        W19588  12.718   8.353   3.162  0.0932  0.1289 -0.2590
 2741W        W19589   4.706  16.491  11.707  0.2727  0.0025 -0.0407
 2742W        W19590   7.072   4.981   1.492 -0.3358  0.0445  0.1144
 2743W        W19591   2.201   6.821  16.161 -0.5134 -0.2642 -0.1574
 2744W        W19592  16.181   3.453   5.138 -0.0810 -0.0483  0.0899
 2745W        W19593  10.007   9.027  13.846  0.2558  0.2691 -0.1669
 2746W        W19594   2.987  12.473  10.910 -0.2633 -0.1493  0.0553
 2747W        W19595  11.132   4.122   2.951  0.4009 -0.0086  0.1620
 2748W        W19596  10.909  10.385   1.232 -0.1981 -0.3064  0.2771
 2749W        W19597   1.325  16.909   0.953  0.1348  0.1904 -0.1480
 2750W        W19598  11.116   2.327   0.960  0.2461 -0.0857  0.0987
 2751W        W19599   0.859   4.017  14.099 -0.2389 -0.1660 -0.1773
 2752W        W19600  13.136   7.815   0.226  0.0298  0.2593  0.0446
 2753W        W19601   7.020  16.383  11.985 -0.3156 -0.0458  0.1477
 2754W        W19602   3.707  11.937   5.580  0.1619 -0.1691  0.0435
 2755W        W19603  11.337  12.805   0.898 -0.1971 -0.2668 -0.0311
 2756W        W19604   5.717   6.113   3.120 -0.0967  0.0062  0.2223
 2757W        W19605   6.889  11.409  13.514 -0.4806 -0.1550  0.1091
 2758W        W19606   7.021   3.724  14.317  0.2109  0.0061 -0.1942
 2759W        W19607  13.183   1.844   0.393  0.0688  0.1831  0.1281
 2760W        W19608  14.705  13.604  14.435 -0.1327 -0.2790  0.0784
 2761W        W19609   9.927  15.620  13.383  0.0121  0.0265  0.1133
 2762W        W19610   6.122   1.697   0.673 -0.1413  0.2405  0.4203
 2763W        W19611   9.020   0.971  14.676  0.1239  0.2752  0.0316
 2764W        W19612   8.063  14.857  14.730 -0.0897  0.2235  0.1358
 2765W        W19613   3.508  12.443  16.084 -0.0895 -0.0296 -0.0930
 2766W        W19614   7.597   0.887   2.727 -0.1578  0.1010  0.0990
 2767W        W19615  10.964   8.315  11.469  0.0750  0.1276 -0.0292
 2768W        W19616   8.057  17.868   0.756  0.3821  0.2280  0.1331
 2769W        W19617  14.283   2.876  14.205 -0.0692 -0.0773  0.1976
 2770W        W19618   7.756  18.015   4.028  0.0275 -0.2433 -0.3464
 2771W        W19619   5.034  15.310   1.090 -0.1148  0.0868 -0.0667
 2772W        W19620  14.544   9.793   2.796  0.1520  0.2111  0.0944
 2773W        W19621  10.734  14.685  12.339 -0.3619 -0.3225 -0.0898
 2774W        W19622   7.191  14.512   3.644  0.0130 -0.1528  0.2056
 2775W        W19623   5.749  16.432   0.497  0.0966  0.1034  0.0046
 2776W        W19624   7.765  12.881  12.612 -0.1872 -0.0764  0.0132
 2777W        W19625  11.168   4.347   1.582 -0.0015  0.2424  0.0616
 2778W        W19626   2.383  14.411  14.567 -0.1137  0.3219 -0.1376
 2779W        W19627  13.078  16.937  12.921 -0.2331  0.2725 -0.2137
 2780W        W19628   2.628  10.347   2.340 -0.1947 -0.0149  0.2220
 2781W        W19629   6.193  18.039  15.054  0.2019  0.1287 -0.0399
 2782W        W19630  11.607   6.358  13.017 -0.1037  0.3067 -0.1401
 2783W        W19631  17.732   4.298   3.777 -0.1259  0.1976  0.1743
 2784W        W19632   2.380   8.562  14.719 -0.1245 -0.2245 -0.1455
 2785W        W19633   8.182   8.703   2.165  0.0029  0.0336 -0.3342
 2786W        W19634   3.019   6.247   2.506  0.0851  0.2218 -0.2759
 2787W        W19635   3.095  10.268  13.803 -0.0372  0.0998  0.2049
 2788W        W19636   1.130   3.802  14.550  0.0060 -0.2431 -0.0102
 2789W        W19637   6.913  14.017   2.547 -0.3968 -0.0220 -0.0629
 2790W        W19638  17.669   5.583  14.166 -0.2708 -0.2199 -0.2161
 2791W        W19639   1.679  11.751   1.972  0.3445  0.0984  0.0644
 2792W        W19640   5.392   5.804   0.247 -0.0623 -0.3528 -0.0767
 2793W        W19641   6.210  10.507  13.715  0.0603  0.1573 -0.3693
 2794W        W19642   4.700  14.911   5.777 -0.1959  0.1400  0.0639
 2795W        W19643   0.066   6.605  12.387 -0.2391 -0.1002 -0.0787
 2796W        W19644   1.852  11.602  15.417 -0.2677  0.0404 -0.0046
 2797W        W19645   1.952  12.933  12.694  0.0694 -0.0129 -0.0232
 2798W        W19646   0.998   1.200  11.514 -0.0651  0.0243 -0.0202
 2799W        W19647   7.955  11.178  12.122 -0.0671  0.0643  0.0173
 2800W        W19648   6.697  14.492  13.707  0.1181  0.0978  0.3262
 2801W        W19649   5.979  11.909  12.939  0.1403 -0.2384  0.2107
 2802W        W19650   5.005  12.937   4.616  0.2240  0.0353 -0.0499
 2803W        W19651   6.765  10.563   1.277 -0.0251 -0.0621  0.1320
 2804W        W19652   1.821  15.627   0.435 -0.1776 -0.1424  0.0268
 2805W        W19653  13.603  15.233  15.970  0.2649  0.0683  0.0914
 2806W        W19654   3.168   0.251  15.188 -0.0759  0.2967 -0.0556
 2807W        W19655   8.219   3.253  13.689  0.2974  0.4312 -0.1635
 2808W        W19656  13.298   2.120   4.748  0.0961  0.2943 -0.1313
 2809W        W19657   1.720  13.712  13.209  0.1040  0.1903  0.0608
 2810W        W19658   9.154   6.369  12.728  0.0585 -0.1353  0.2993
 2811W        W19659  10.117  17.783   0.825 -0.2480 -0.1319  0.0202
 2812W        W19660   7.621  10.721  11.587  0.0275 -0.1289 -0.0841
 2813W        W19661  10.132  10.954   0.340 -0.0142 -0.0384  0.0368
 2814W        W19662  10.817  17.420  12.531  0.0659 -0.1448 -0.1566
 2815W        W19663   3.439  16.045  15.753  0.0781  0.1940 -0.2478
 2816W        W19664   0.330   8.568   0.328  0.2430  0.0252 -0.0114
 2817W        W19665  13.751   9.018   2.367  0.1297 -0.0440  0.1502
 2818W        W19666  12.153   5.047   3.575 -0.0220 -0.1896 -0.1150
 2819W        W19667  11.673   4.486   3.673  0.1989 -0.1629 -0.0769
 2820W        W19668  16.064   8.464  11.579 -0.0890  0.2379  0.1119
 2821W        W19669   7.575  15.724  12.395  0.1189 -0.0003  0.1646
 2822W        W19670  14.430  12.725   1.649  0.0644  0.0890 -0.2637
 2823W        W19671  11.071   5.393   2.844  0.1008  0.0027 -0.1308
 2824W        W19672  12.134   3.289  14.317  0.2320  0.2208 -0.0694
 2825W        W19673   3.535   0.406  10.194 -0.1137  0.0786 -0.0625
 2826W        W19674   7.367   9.801   3.577 -0.1386 -0.0664  0.0794
 2827W        W19675   8.422  12.208   3.563  0.0635  0.1541 -0.0807
 2828W        W19676  15.818  11.575  11.900  0.0114 -0.1574  0.0077
 2829W        W19677  16.141  10.726   4.496 -0.1181 -0.0462  0.2972
 2830W        W19678  11.561   1.487   2.940  0.1195 -0.1776 -0.2343
 2831W        W19679  16.141   3.962   5.045 -0.0165  0.0449  0.2068
 2832W        W19680  11.655   7.013  15.349 -0.0410  0.0502  0.0296
 2833W        W19681   0.412   7.771  14.680 -0.2385  0.0848  0.0286
 2834W        W19682  11.131   5.347  12.946 -0.1118 -0.1246 -0.1890
 2835W        W19683  14.271   7.772  14.557  0.1269  0.2874 -0.0021
 2836W        W19684   4.940  11.972  16.049  0.0547 -0.2251  0.2654
 2837W        W19685  11.123  14.459  13.055  0.0216  0.1389 -0.1698
 2838W        W19686  12.736   6.397  11.117 -0.5377 -0.1374  0.1092
 2839W        W19687   1.146   2.668  16.226  0.1439 -0.1197  0.1542
 2840W        W19688  16.097   9.973   0.305 -0.2387  0.1516 -0.2988
 2841W        W19689   0.288   1.355   2.298 -0.1095 -0.0628 -0.2438
 2842W        W19690  11.387   9.590   3.475  0.1483  0.1571  0.1982
 2843W        W19691  16.739  14.769  12.675  0.0997  0.0001  0.1326
 2844W        W19692  17.453   8.796   1.666  0.2127  0.1469  0.0192
 2845W        W19693   2.966  17.522   4.860  0.4657  0.0023 -0.1132
 2846W        W19694  12.800  15.015   2.103  0.0071  0.2589  0.0884
 2847W        W19695   6.850   3.030   4.986  0.1031 -0.1488 -0.0021
 2848W        W19696   0.503   0.236   0.364 -0.2670 -0.0534  0.1011
 2849W        W19697   4.231   3.945  12.070  0.2488  0.2281  0.0315
 2850W        W19698  14.205   4.845  13.224 -0.1012 -0.0088 -0.0594
 2851W        W19699  11.572  12.217   3.721 -0.3075 -0.1124  0.1955
 2852W        W19700  11.693   5.892   0.209  0.1675 -0.3192 -0.1579
 2853W        W19701  11.019  10.198   0.072 -0.3283 -0.1208  0.1546
 2854W        W19702   9.734   0.704  13.326  0.2805 -0.0785  0.1930
 2855W        W19703  14.223  14.325   1.519  0.1646 -0.0948 -0.1937
 2856W        W19704   8.018   3.913   2.174  0.2126 -0.3023  0.1148
 2857W        W19705   6.128   3.461   0.136 -0.0486  0.3449 -0.0333
 2858W        W19706   9.615   1.933   4.571  0.0246  0.1244 -0.0006
 2859W        W19707   9.290   4.714   2.102  0.1053  0.1971  0.2243
 2860W        W19708   2.822   8.527   2.445 -0.0200 -0.0318 -0.0865
 2861W        W19709   1.865  16.479   0.072 -0.0655  0.1976  0.2740
 2862W        W19710   7.401   0.853  13.196 -0.3390 -0.0111 -0.2477
 2863W        W19711   0.352  10.918   1.720 -0.0640  0.1466  0.2410
 2864W        W19712   8.629   6.908   2.947 -0.3014 -0.0507 -0.3242
 2865W        W19713  16.591   2.097   2.060  0.0899  0.2530 -0.3908
 2866W        W19714   5.617   2.785   2.961 -0.1446  0.1783 -0.1167
 2867W        W19715   1.152   4.018   2.790 -0.0670  0.0952  0.0783
 2868W        W19716  16.458  14.144  13.078  0.0092  0.2692 -0.5174
 2869W        W19717   0.213  16.172   0.070  0.3134 -0.2841  0.0226
 2870W        W19718   4.417   0.544  11.283 -0.0089 -0.1170 -0.0205
 2871W        W19719   8.744   3.034  15.410 -0.0056 -0.4045  0.2765
 2872W        W19720  17.670   7.931   0.562  0.0090  0.3429 -0.2906
 2873W        W19721  13.982   4.085  14.278  0.0098  0.3088 -0.2795
 2874W        W19722   5.374   0.634   4.172 -0.3173  0.0412  0.0459
 2875W        W19723   3.465   3.656   2.785 -0.0109  0.3115  0.1844
 2876W        W19724  17.720   2.902  13.574  0.0463  0.1367 -0.0644
 2877W        W19725   8.775  12.539  13.514  0.0686 -0.2096  0.0230
 2878W        W19726  14.506  13.063   1.191 -0.0290  0.3083  0.3113
 2879W        W19727   8.625  12.613  11.471 -0.2258 -0.0099  0.2347
 2880W        W19728   1.254  12.645  16.005  0.0014  0.0614  0.0773
 2881W        W19729  11.831  11.239   1.035  0.0734  0.2094  0.2843
 2882W        W19730  12.371   2.424  14.483 -0.2387 -0.0159 -0.3703
 2883W        W19731   8.896  13.222   3.523  0.2697  0.2970  0.5610
 2884W        W19732  10.324   7.123   1.445 -0.1510  0.1700 -0.0898
 2885W        W19733  17.713   2.648  12.019 -0.5336 -0.2137  0.0686
 2886W        W19734  17.198  12.451  12.012 -0.1458 -0.3395 -0.1977
 2887W        W19735  10.160  12.122   5.209  0.2057 -0.2245 -0.3590
 2888W        W19736   7.895  14.211   2.424  0.1022  0.0169  0.1279
 2889W        W19737   9.482   6.025   4.921 -0.1129  0.4307 -0.1282
 2890W        W19738  14.001   4.592  11.553  0.0850 -0.0722 -0.2677
 2891W        W19739   2.103  17.906   0.141  0.1624  0.2277 -0.3567
 2892W        W19740   6.020  10.287  14.308 -0.0555 -0.0119 -0.0131
 2893W        W19741  11.136   0.310   0.240  0.0214  0.2181 -0.1981
 2894W        W19742   9.556   2.984  10.029  0.0731 -0.2404 -0.1666
 2895W        W19743   9.846  12.461   3.821  0.1669 -0.2006 -0.5082
 2896W        W19744  16.553   7.188   1.903 -0.3113  0.0583 -0.1509
 2897W        W19745   9.247   1.194  12.550 -0.1739 -0.0214  0.0707
 2898W        W19746  10.709  16.658  11.913 -0.1182 -0.0174 -0.0760
 2899W        W19747   8.689   3.858   4.216  0.0210 -0.1620 -0.0921
 2900W        W19748  15.864  12.498  13.132  0.0346  0.0348 -0.3581
 2901W        W19749   6.899   9.945  14.900 -0.1957 -0.3721  0.0113
 2902W        W19750   4.561   3.112   1.403 -0.0801 -0.2355 -0.0260
 2903W        W19751  12.525   4.293   4.700 -0.4454 -0.1669  0.1247
 2904W        W19752   8.300  13.737   1.418  0.4036  0.3305 -0.2800
 2905W        W19753  10.361   5.097   2.263  0.3076  0.0696 -0.0844
 2906W        W19754   9.677  11.341  12.660  0.1014  0.3191  0.3478
 2907W        W19755  11.037   8.636   2.366 -0.0867  0.0395 -0.0443
 2908W        W19756   1.518   8.805   3.424 -0.0662  0.0765 -0.3104
 2909W        W19757   5.220   3.012  11.286 -0.1165  0.3096 -0.1582
 2910W        W19758  13.996   8.743   4.497 -0.0079  0.2212 -0.0499
 2911W        W19759   3.264   2.183   3.944 -0.2081  0.1381  0.3829
 2912W        W19760   8.513  17.984  12.873 -0.2998  0.1515 -0.1190
 2913W        W19761  17.937   4.492   1.811 -0.0740 -0.1967  0.1979
 2914W        W19762   6.331   6.742   3.385  0.0994 -0.1865 -0.3950
 2915W        W19763  15.727   2.370   5.352 -0.0738  0.0164  0.0452
 2916W        W19764  13.784  13.032   3.181  0.1769 -0.0657 -0.3039
 2917W        W19765   3.213  13.949   5.839 -0.0662 -0.1842  0.4176
 2918W        W19766   3.084  12.048  10.598 -0.0706  0.0128 -0.0561
 2919W        W19767  10.284   0.706   2.409 -0.0896 -0.1751 -0.0691
 2920W        W19768  14.787   7.131  14.361 -0.1624  0.1855 -0.2673
 2921W        W19769  14.768  14.794  15.193 -0.5250 -0.1167  0.0662
 2922W        W19770  13.794  12.694   2.805  0.0010  0.3262  0.2039
 2923W        W19771   3.487  11.674   1.025 -0.0780 -0.4870 -0.3730
 2924W        W19772   3.760   0.349   1.740  0.0491 -0.0949 -0.3549
 2925W        W19773   2.841   5.462  10.238  0.1094  0.0118 -0.0705
 2926W        W19774   5.285   0.557   0.871  0.1885 -0.1186 -0.0696
 2927W        W19775   3.460   6.117   4.666  0.0583  0.2466 -0.1169
 2928W        W19776   3.844   9.416  15.521  0.3263  0.0886  0.1150
 2929W        W19777  14.880   5.749   1.697 -0.1757  0.0356 -0.1407
 2930W        W19778  16.014  12.809  11.521 -0.0330  0.1558  0.0004
 2931W        W19779   6.036   9.478   2.168 -0.1530  0.1837  0.0020
 2932W        W19780  16.489   2.442   2.931 -0.0558 -0.2514 -0.0143
 2933W        W19781  12.095   5.005   3.099 -0.0798 -0.0565  0.1106
 2934W        W19782  11.940   8.882  13.507  0.0693 -0.4213 -0.2435
 2935W        W19783   8.082   0.381  16.073  0.1702  0.0556  0.1221
 2936W        W19784  10.233   3.255   2.728 -0.1467 -0.2449  0.0778
 2937W        W19785   5.807   8.257  13.673  0.0039  0.2079 -0.3055
 2938W        W19786   7.674  15.197   5.914 -0.4484 -0.1251  0.2533
 2939W        W19787   9.008   2.171   1.122 -0.0912  0.0118  0.0326
 2940W        W19788   4.437  16.342   2.012 -0.2386 -0.4114 -0.1107
 2941W        W19789  11.751   0.702   3.991 -0.1185  0.1114 -0.0576
 2942W        W19790   4.987  13.779  15.175  0.1636 -0.0528  0.1431
 2943W        W19791  11.027  13.469  12.243  0.1594  0.2682 -0.0430
 2944W        W19792   8.705  11.518  12.467  0.0352  0.1733  0.0421
 2945W        W19793   3.650   2.713  12.268 -0.0708  0.0008 -0.1372
 2946W        W19794  15.596  12.700   4.987  0.1876 -0.0162  0.0387
 2947W        W19795   8.997  16.454   6.213  0.1796 -0.0019  0.0439
 2948W        W19796  13.553   0.955  12.262  0.1688 -0.1298 -0.3395
 2949W        W19797  12.172   0.548   4.349  0.0566 -0.1666 -0.3541
 2950W        W19798  13.380   0.132   3.983 -0.2417  0.1400  0.0669
 2951W        W19799  13.355   4.349   0.186 -0.1661 -0.1421 -0.0651
 2952W        W19800   8.634  12.904  13.863 -0.0582 -0.1624  0.0117
 2953W        W19801  12.717   4.907   0.278  0.1109  0.1550  0.1433
 2954W        W19802  17.351  14.013  11.137 -0.0074  0.1712 -0.1843
 2955W        W19803  12.836  17.752   0.733  0.1131 -0.0210  0.1764
 2956W        W19804   9.321  13.109   2.448  0.2359  0.2108  0.1258
 2957W        W19805   5.069  13.153  12.029  0.2550 -0.0106  0.1658
 2958W        W19806   5.358  16.082   1.262 -0.3209 -0.1974  0.2407
 2959W        W19807  16.849   0.842   2.192 -0.0664 -0.0920 -0.1319
 2960W        W19808   9.647   9.714  11.696 -0.2982  0.1888 -0.1602
 2961W        W19809  12.956  11.670   1.729 -0.0631 -0.0463  0.1022
 2962W        W19810   2.009   9.109   2.504 -0.1062 -0.1514 -0.1825
 2963W        W19811   6.055  12.984  13.123  0.0189  0.0606 -0.1408
 2964W        W19812   8.694  15.925  12.138 -0.0240 -0.2587  0.0700
 2965W        W19813   2.656   8.552   1.748 -0.0898  0.2329 -0.2412
 2966W        W19814  12.228   6.373  14.231 -0.1199  0.2142 -0.0241
 2967W        W19815   4.130   6.158   1.271  0.0415 -0.1509  0.1041
 2968W        W19816  13.695  15.167   6.316  0.0092  0.0508  0.0881
 2969W        W19817  16.191  11.854  12.583 -0.0536 -0.1687  0.1440
 2970W        W19818   8.011  17.999   0.255 -0.1652 -0.1164  0.0185
 2971W        W19819   0.531  13.588   2.483  0.1013 -0.3686 -0.1460
 2972W        W19820  13.219   1.480  13.709  0.0722 -0.1965 -0.0165
 2973W        W19821   5.662   4.379  15.785 -0.0595 -0.0258  0.0649
 2974W        W19822  17.643   3.242  13.173  0.1388  0.0957 -0.0605
 2975W        W19823   7.546   7.521   5.113  0.2890 -0.0572 -0.1107
 2976W        W19824   1.390  12.683   2.733 -0.0084 -0.0110 -0.0909
 2977W        W19825  12.951  15.790   2.049 -0.1437  0.1101 -0.1422
 2978W        W19826   6.987  16.692   1.539 -0.1028  0.1408 -0.2340
 2979W        W19827  12.977  11.181   1.484  0.1286  0.0275 -0.0172
 2980W        W19828   4.030   1.726  15.447 -0.0803  0.0302 -0.0030
 2981W        W19829   1.577   2.795   3.776  0.1128  0.2010 -0.1957
 2982W        W19830   2.050  15.005  12.619 -0.0722 -0.1024 -0.1615
 2983W        W19831   6.994   8.932   2.717 -0.0267 -0.0732  0.1970
 2984W        W19832  12.572  16.094  15.178  0.0950  0.0467 -0.0315
 2985W        W19833   3.789   1.895  15.898  0.0960  0.0368 -0.0211
 2986W        W19834  11.097  12.268  12.397  0.0885 -0.1743  0.0055
 2987W        W19835  10.069   6.779   0.271 -0.0043  0.1154  0.4086
 2988W        W19836   4.359  17.567  12.608 -0.0142 -0.2569 -0.1119
 2989W        W19837   1.061   8.528   3.530  0.1231 -0.1386 -0.2986
 2990W        W19838   8.830   1.118   0.984  0.1317 -0.1594  0.0711
 2991W        W19839  15.611  18.004   1.996  0.0577  0.0456 -0.0004
 2992W        W19840  16.061   2.584  12.216 -0.1960  0.3533  0.0463
 2993W        W19841   0.393   4.668   2.610  0.1225  0.2447 -0.2105
 2994W        W19842   8.795   3.183  14.327  0.0615  0.1611 -0.0839
 2995W        W19843  14.048  17.540   3.396 -0.1586 -0.0541  0.0026
 2996W        W19844   5.651   6.944   2.751 -0.0042 -0.0010 -0.0172
 2997W        W19845  14.700  17.141  12.445 -0.0404  0.1969  0.1074
 2998W        W19846   7.082  16.937   0.658 -0.1649  0.3831 -0.0855
 2999W        W19847  15.643   3.988  14.445  0.2730  0.3067 -0.0517
 3000W        W19848   7.157   2.824  13.035 -0.1608  0.1516 -0.0486
 3001W        W19849  16.435  16.683   1.740  0.2149  0.1067 -0.4008
 3002W        W19850   1.188  16.768   4.352 -0.1189 -0.0375  0.0366
 3003W        W19851  14.384  13.204   4.729 -0.0799  0.1716 -0.0317
 3004W        W19852   9.662  12.382  11.694 -0.0581  0.1860  0.3542
 3005W        W19853   3.911  14.676  15.891  0.0512  0.0241  0.0481
 3006W        W19854   1.708   4.623   0.371 -0.2016  0.2417 -0.1716
 3007W        W19855  14.616   4.575  12.140  0.0633 -0.0901  0.1666
 3008W        W19856   2.550   5.759  11.714  0.2785  0.2007  0.0157
 3009W        W19857  16.827   2.006  11.226 -0.0673 -0.0172  0.2792
 3010W        W19858   3.288  13.420   1.026 -0.1745  0.4081 -0.0647
 3011W        W19859   6.591   1.106   4.214 -0.4340  0.1429 -0.3506
 3012W        W19860   7.129   1.932   2.012  0.0101  0.2389 -0.2578
 3013W        W19861   0.834   5.055   2.728 -0.1126  0.0488 -0.0904
 3014W        W19862  15.708  17.399   2.312 -0.2081 -0.2747 -0.1148
 3015W        W19863   2.388   3.671  11.350 -0.2497  0.0711  0.0375
 3016W        W19864   0.012  12.449   4.857 -0.0011 -0.1686  0.0030
 3017W        W19865  13.835   3.221  14.268 -0.0311  0.1576 -0.2749
 3018W        W19866   6.982  17.662  16.144 -0.2721  0.2402 -0.0847
 3019W        W19867   7.541   4.183   0.985  0.1654 -0.0606  0.1831
 3020W        W19868   3.401   2.568   3.421 -0.3063 -0.4302  0.1226
 3021W        W19869   9.453  10.318  16.245  0.3365  0.0424 -0.1115
 3022W        W19870   3.710   8.740   5.065  0.1036 -0.0213 -0.1373
 3023W        W19871   9.438  16.530  11.919  0.1357  0.1255  0.0574
 3024W        W19872   7.416  17.284  12.413 -0.1380  0.1301 -0.1139
 3025W        W19873  13.429   8.417  15.381  0.0300 -0.0362  0.1289
 3026W        W19874  14.841   1.221  13.860  0.1655  0.1214  0.1785
 3027W        W19875  10.130   6.838   3.219 -0.0626  0.0809 -0.0060
 3028W        W19876  14.177   2.809   0.676  0.1030 -0.0365  0.0341
 3029W        W19877   5.325   0.070   3.017 -0.0973 -0.2107  0.0988
 3030W        W19878   9.065  17.055   1.400  0.0327  0.1932 -0.0282
 3031W        W19879   1.283  13.145   2.901  0.3353 -0.2432  0.0835
 3032W        W19880   4.597  13.424   1.974 -0.1496  0.2739  0.2751
 3033W        W19881  18.015  13.642  14.894 -0.2123 -0.0521 -0.1272
 3034W        W19882   7.527  11.616  16.097 -0.0001 -0.0625  0.0270
 3035W        W19883   9.541  14.991  13.631  0.1537  0.1089  0.0988
 3036W        W19884   3.938   3.171  11.340  0.0715  0.2068 -0.1740
 3037W        W19885   4.201  16.591  15.440 -0.2388  0.0857 -0.3044
 3038W        W19886  11.595  12.319   1.740  0.3569  0.3256 -0.2739
 3039W        W19887   0.667  13.602   1.519  0.2346 -0.0481 -0.2589
 3040W        W19888   1.622   5.100  16.263 -0.2510  0.0009 -0.0834
 3041W        W19889   0.419  12.062  11.558  0.1125 -0.2647 -0.2366
 3042W        W19890  11.980   0.391  16.096  0.1861 -0.1063 -0.2346
 3043W        W19891   9.048   7.465  15.616  0.1433 -0.2044  0.1068
 3044W        W19892   9.579  14.006  16.235 -0.0861  0.1066  0.2298
 3045W        W19893   5.938   1.469   0.026  0.0012  0.2915  0.2147
 3046W        W19894  16.357   1.983  12.071 -0.4995 -0.2968  0.1052
 3047W        W19895   8.116   5.125  14.644 -0.2691 -0.1865 -0.0653
 3048W        W19896  10.169  17.648   0.282  0.2752  0.1833 -0.1940
 3049W        W19897   8.067  16.213  13.165  0.2489  0.3005 -0.1310
 3050W        W19898  16.251  13.207   2.768  0.1488 -0.1752 -0.0597
 3051W        W19899   1.452  14.634   4.074  0.1433  0.1090 -0.1730
 3052W        W19900   0.870   9.503  12.950  0.4077 -0.1241  0.2026
 3053W        W19901   4.049   7.715   2.626 -0.1182 -0.0176 -0.2358
 3054W        W19902  16.514   8.863   3.685 -0.4128 -0.0493 -0.1525
 3055W        W19903   8.137   6.974   1.411  0.0055  0.1407  0.0535
 3056W        W19904   7.844  12.366  12.547 -0.0635 -0.0243 -0.0065
 3057W        W19905  13.620   7.079   3.835 -0.1349 -0.0065 -0.1868
 3058W        W19906  17.389   7.286  12.528 -0.1101  0.1464 -0.0843
 3059W        W19907  10.672   2.747  14.617  0.1915 -0.1095  0.2958
 3060W        W19908  12.830  17.901  15.225 -0.2080 -0.0546  0.1750
 3061W        W19909   3.633  13.580  15.830  0.1034 -0.0142 -0.0233
 3062W        W19910   2.892  14.135   0.705  0.0752  0.1809 -0.0152
 3063W        W19911  16.797  10.375  10.630  0.1795 -0.0194  0.1988
 3064W        W19912  10.575  16.868  15.424  0.3090  0.2792  0.0964
 3065W        W19913  16.281   6.360   4.546 -0.0582  0.0708  0.3379
 3066W        W19914  11.057   4.873  16.136  0.2916 -0.1123 -0.2009
 3067W        W19915   2.729   9.704  16.084 -0.1506  0.1443 -0.3413
 3068W        W19916   2.429  16.168   4.093  0.1895 -0.1677 -0.3151
 3069W        W19917  10.781  15.516  13.495  0.1865  0.1006  0.4670
 3070W        W19918   3.814   5.037   2.960 -0.0298 -0.3257 -0.1331
 3071W        W19919   9.895   7.868  13.108  0.0034  0.1015  0.1466
 3072W        W19920   4.117  10.415   3.376 -0.3152 -0.1991  0.0475
 3073W        W19921  11.604  11.447  14.740  0.1087 -0.1425  0.1368
 3074W        W19922  16.542   3.516  11.118 -0.1519 -0.0024 -0.1864
 3075W        W19923  17.597  12.575   1.567  0.0607  0.0649 -0.2796
 3076W        W19924  11.218   2.669   3.566 -0.0738  0.0655 -0.1044
 3077W        W19925  16.891  17.715  12.010  0.0447  0.1546 -0.1826
 3078W        W19926   0.881   4.469   0.879  0.2340 -0.0170  0.1516
 3079W        W19927   4.832   4.476   1.278  0.0433  0.0653 -0.1838
 3080W        W19928  15.531   8.825  13.943 -0.4068  0.0476  0.1966
 3081W        W19929   0.012   0.005   2.040  0.1149 -0.0663  0.0409
 3082W        W19930   8.644  13.133  11.619 -0.2731  0.1893  0.0360
 3083W        W19931  17.702   9.745  13.345  0.2517  0.1542  0.0369
 3084W        W19932  15.320  15.857  14.080  0.0401  0.1381 -0.1453
 3085W        W19933   7.101   6.611  14.028 -0.0515 -0.2646 -0.0161
 3086W        W19934   5.385  15.994  11.856  0.0316  0.0886  0.0900
 3087W        W19935   4.033   1.941   0.335  0.4256  0.0816 -0.0639
 3088W        W19936   6.635   4.135  10.397  0.1115  0.2633  0.0943
 3089W        W19937  17.971   5.725  13.306  0.2765 -0.0485  0.1297
 3090W        W19938   6.661  14.856  16.167  0.2261  0.1357  0.1553
 3091W        W19939   4.886   0.354  12.734  0.1899 -0.0231 -0.1994
 3092W        W19940  14.962  16.388  14.683  0.1282  0.2244 -0.0183
 3093W        W19941   9.217   8.341   1.551  0.0026 -0.1593 -0.1609
 3094W        W19942   4.131   8.304  13.837 -0.1550 -0.2778  0.1593
 3095W        W19943   7.233   0.569  12.793  0.4718  0.4059  0.1772
 3096W        W19944  14.945   9.011  13.275 -0.1325  0.1670 -0.1415
 3097W        W19945   1.214   6.189  15.208 -0.0613 -0.1194  0.2027
 3098W        W19946  15.722   4.786  14.502  0.0449  0.0498 -0.1822
 3099W        W19947   0.520   5.660   6.323 -0.2420  0.0614 -0.0093
 3100W        W19948   5.638  10.317   1.681  0.0559  0.1118  0.0703
 3101W        W19949  16.452  14.014   2.565 -0.0804 -0.0570 -0.1253
 3102W        W19950  15.840   9.288   2.151  0.2916  0.2003  0.1137
 3103W        W19951  10.467   5.020  13.017  0.7759 -0.1982 -0.1389
 3104W        W19952  12.602   4.553  11.252 -0.3626 -0.2634  0.0568
 3105W        W19953  13.064  16.715  14.045  0.2335  0.1488 -0.0309
 3106W        W19954   8.009  15.164   0.874  0.4996  0.1147  0.1714
 3107W        W19955   2.687  17.271  12.585  0.1622  0.1078 -0.0852
 3108W        W19956  13.840   2.480   0.533 -0.0620 -0.2000 -0.0238
 3109W        W19957  11.986  13.211   2.304  0.1303  0.2624  0.0975
 3110W        W19958   1.939   2.594  12.051 -0.1047  0.2432 -0.1926
 3111W        W19959   6.973   7.085   2.556 -0.1626  0.1520  0.0169
 3112W        W19960  17.000   3.343   0.525  0.1305  0.4088  0.1707
 3113W        W19961  12.777  14.832  12.393 -0.0557 -0.0371  0.2675
 3114W        W19962  15.779   0.796  15.650  0.1010  0.1457  0.1419
 3115W        W19963   4.886  14.113   4.621  0.0275  0.1672  0.0619
 3116W        W19964   8.506  17.574  15.004 -0.2000 -0.0043 -0.0115
 3117W        W19965   1.763   6.626  11.366  0.1957  0.3107  0.0821
 3118W        W19966  15.165   7.737  13.913  0.0046 -0.0649  0.0060
 3119W        W19967   8.544  10.006   2.086 -0.6554 -0.0784 -0.1321
 3120W        W19968  13.496   2.988  15.627 -0.0663  0.0196 -0.0266
 3121W        W19969   4.862   9.523   4.368  0.0118 -0.3425 -0.2283
 3122W        W19970  11.434   9.138  11.589 -0.2734 -0.1411 -0.0545
 3123W        W19971   0.304   2.339  14.300 -0.0822 -0.0239  0.1215
 3124W        W19972  13.943   8.837   0.999  0.2017 -0.2346  0.0919
 3125W        W19973   1.435   6.975   1.649  0.1008  0.2197 -0.1671
 3126W        W19974  13.760   2.926  12.566  0.2757 -0.0720  0.1228
 3127W        W19975   8.917   9.533   0.481 -0.0258 -0.2764  0.0217
 3128W        W19976   3.212   3.299   1.012 -0.2262  0.0192 -0.0555
 3129W        W19977  12.844  16.777   2.385 -0.0023 -0.1395 -0.0212
 3130W        W19978   6.919   5.835   5.580  0.1623 -0.2836 -0.1673
 3131W        W19979   4.359  10.802  13.973 -0.0724  0.0684 -0.0906
 3132W        W19980  17.421  12.014  11.652  0.0293 -0.2267 -0.1655
 3133W        W19981   2.398  15.729  14.332  0.0955 -0.0376 -0.3684
 3134W        W19982  16.326  15.520  13.300  0.1443  0.1876 -0.1403
 3135W        W19983  10.763  16.253  11.607 -0.1730 -0.3815 -0.3817
 3136W        W19984  17.502   4.046  12.151  0.1170  0.0400  0.1566
 3137W        W19985  10.611   5.582  12.229  0.2056  0.0842 -0.3429
 3138W        W19986   4.675  12.138   1.136  0.2159  0.2638 -0.0685
 3139W        W19987   1.237  12.839  14.265  0.0006  0.0050  0.2638
 3140W        W19988  14.208   9.452  16.175  0.0273  0.1202 -0.1024
 3141W        W19989   9.054  17.259  13.171 -0.0537 -0.0604  0.0890
 3142W        W19990   3.029   4.693   3.294 -0.1524 -0.0202  0.0667
 3143W        W19991   3.046   2.569  14.080  0.1545 -0.2312 -0.2508
 3144W        W19992   4.473  11.205  15.816  0.1612  0.0748  0.0900
 3145W        W19993   2.359  11.809  13.372  0.0818  0.0070 -0.1636
 3146W        W19994   0.234  14.393   4.527 -0.0394 -0.0080 -0.1014
 3147W        W19995   3.230   1.370  16.181  0.0816  0.0596 -0.1678
 3148W        W19996   5.249   9.646  14.216 -0.1368  0.0111  0.3488
 3149W        W19997   8.388   3.816  13.721 -0.1844 -0.5359  0.3630
 3150W        W19998  16.861   4.385  11.010 -0.0247  0.0022  0.1079
 3151W        W19999  12.582   6.460   1.146 -0.0931 -0.0955  0.3087
 3152W        W20000  13.641  14.975  14.444  0.0848 -0.1817 -0.2577
 3153W        W20001  14.410   8.993  13.578  0.0815  0.0966 -0.1686
 3154W        W20002   7.251  14.275  12.303  0.1842 -0.1942 -0.0829
 3155W        W20003   3.391  11.130   5.327 -0.2363  0.4182 -0.0905
 3156W        W20004   3.110  12.865   3.152 -0.0269  0.1037  0.1805
 3157W        W20005  12.588  16.238   4.677  0.0676  0.2163  0.3092
 3158W        W20006   3.156   0.987  13.923  0.3283 -0.1271  0.0264
 3159W        W20007   2.502  13.442   0.079  0.0223  0.2874  0.0356
 3160W        W20008   0.082   0.455  15.473 -0.0944  0.0186 -0.0479
 3161W        W20009   5.487   0.868  13.171  0.1022  0.0731 -0.0171
 3162W        W20010   1.331   4.586  14.612 -0.1665 -0.0256 -0.0040
 3163W        W20011   4.925   3.960   1.874  0.0684 -0.1936  0.2269
 3164W        W20012   1.890   9.805   1.586  0.0313  0.0080  0.0082
 3165W        W20013  17.304   6.440  12.533  0.1593 -0.4540  0.0135
 3166W        W20014   1.753  16.975  11.432 -0.2091 -0.1819 -0.0848
 3167W        W20015  11.414   1.524  16.256 -0.2330  0.2341  0.1511
 3168W        W20016   2.764  10.629  12.938 -0.0172  0.1013  0.2644
 3169W        W20017  17.145   1.542   1.600  0.0101 -0.1893  0.0549
 3170W        W20018   0.830   6.678  12.633 -0.0173  0.1151 -0.0432
 3171W        W20019  13.510  11.351  12.900 -0.0469 -0.0340  0.2508
 3172W        W20020   8.727  14.469   5.204 -0.1552  0.3261  0.1887
 3173W        W20021   7.317  11.135   5.447 -0.3191 -0.2032  0.3649
 3174W        W20022  12.716  10.648  15.801  0.2260  0.0096  0.0002
 3175W        W20023  15.319  10.201   4.169  0.0552 -0.0196 -0.1776
 3176W        W20024   4.620   9.422   2.323  0.1745 -0.0167  0.1606
 3177W        W20025  17.825  10.354   2.035  0.0207  0.0643 -0.1551
 3178W        W20026  15.856  10.342   5.340  0.0348 -0.2414  0.0315
 3179W        W20027  10.218   4.100  13.925  0.0852 -0.2125  0.1645
 3180W        W20028   6.946   0.612  13.508  0.1395 -0.0283  0.0614
 3181W        W20029  16.413  14.457  11.926 -0.2812  0.0742 -0.1519
 3182W        W20030  16.519  16.802  12.393 -0.1491  0.2186  0.0984
 3183W        W20031  10.908  10.183  11.354  0.1031 -0.0218  0.0369
 3184W        W20032   6.208   9.969  15.612 -0.1822  0.2727  0.0400
 3185W        W20033   1.492  15.758  14.697 -0.3194 -0.0598  0.2350
 3186W        W20034   3.001  13.321   3.452 -0.1835  0.1089 -0.0993
 3187W        W20035  11.066   5.628   3.753 -0.0801 -0.0785  0.1201
 3188W        W20036   1.910   9.610  13.757 -0.6006 -0.1889  0.2167
 3189W        W20037   9.494   1.306   3.024 -0.0990  0.1838  0.2326
 3190W        W20038   6.380  15.942  11.503 -0.1643  0.0840  0.1187
 3191W        W20039   7.481  12.284  11.427  0.0521 -0.3619  0.0433
 3192W        W20040  17.474   2.605   2.415 -0.1995 -0.1143 -0.5011
 3193W        W20041   2.635   0.148   1.484  0.1196  0.4755  0.1078
 3194W        W20042   9.398   2.861   1.578 -0.4908 -0.0251  0.3079
 3195W        W20043  14.963   7.850   0.168 -0.0120  0.0340 -0.1947
 3196W        W20044  11.280  16.505   2.626  0.2503  0.4857  0.0854
 3197W        W20045   3.549   5.533   0.200  0.1942  0.1517 -0.1050
 3198W        W20046  16.524   9.905  12.877  0.0964  0.2699  0.0428
 3199W        W20047  17.951  16.641   3.074 -0.2471 -0.0808  0.0141
 3200W        W20048   7.802   8.382  16.053 -0.0386  0.0165  0.0925
 3201W        W20049   9.175   6.402   2.203  0.1363  0.1945 -0.1921
 3202W        W20050   3.788   4.243   3.054 -0.1352  0.0805 -0.3221
 3203W        W20051  12.452   8.241   0.589 -0.2017  0.2611 -0.1400
 3204W        W20052   2.981   7.766   2.227 -0.1176  0.2706 -0.0686
 3205W        W20053   6.501   7.860   1.027 -0.0651  0.3388 -0.1660
 3206W        W20054  16.798   4.911  14.139  0.0773  0.0004 -0.2014
 3207W        W20055  15.393   0.034   2.858 -0.3426 -0.3158  0.0679
 3208W        W20056   9.845   4.522  16.170  0.0492  0.0663 -0.0421
 3209W        W20057   9.587   0.492  11.491  0.1785 -0.0528  0.1976
 3210W        W20058   7.990  11.361  11.235 -0.1312 -0.2937  0.2768
 3211W        W20059   2.598   3.575  15.851  0.0301  0.1988 -0.0849
 3212W        W20060   8.989  15.966   0.678 -0.0925 -0.2680 -0.0697
 3213W        W20061  13.457   6.571  13.102  0.0062 -0.1365 -0.0950
 3214W        W20062   6.515  17.626   0.785  0.1945 -0.2510 -0.1981
 3215W        W20063  15.474   6.494   2.118  0.0376 -0.0341  0.0906
 3216W        W20064  14.474   7.135   3.812 -0.1050  0.0071 -0.2584
 3217W        W20065  16.438  16.566  16.192  0.2030 -0.0716  0.0384
 3218W        W20066  16.814  11.565  11.753 -0.0217  0.1797  0.2585
 3219W        W20067  12.543  12.563  12.600 -0.2384 -0.1807  0.1672
 3220W        W20068  17.252  12.233   2.069 -0.0711  0.0149 -0.2124
 3221W        W20069   1.325   4.201  14.330  0.0652 -0.1225  0.2319
 3222W        W20070  15.707  14.534   0.813 -0.1631  0.0079  0.0731
 3223W        W20071   4.240  15.072   6.023 -0.1897  0.0087  0.2887
 3224W        W20072  11.366   6.869  11.096  0.1303  0.3153 -0.0801
 3225W        W20073   6.031  16.775   2.941  0.0061  0.3083 -0.0698
 3226W        W20074   8.139   1.065  12.654 -0.3192  0.0944 -0.2380
 3227W        W20075  14.102   6.127   2.432  0.1959  0.0819  0.0672
 3228W        W20076   8.751   9.935  11.378  0.0066 -0.1577  0.2532
 3229W        W20077   5.126   9.169   0.956 -0.0326 -0.2264  0.2623
 3230W        W20078   8.279   5.406  15.157 -0.0122 -0.1566 -0.2184
 3231W        W20079  14.738   6.271  15.059  0.2983  0.1096 -0.1701
 3232W        W20080  16.390   6.649  14.733  0.0555  0.0300 -0.0501
 3233W        W20081  17.990  13.961  11.909  0.0684 -0.3595 -0.1524
 3234W        W20082  12.998   4.496  15.775  0.0736  0.1199 -0.2066
 3235W        W20083  15.220  14.733   1.754 -0.1338  0.2904 -0.1131
 3236W        W20084   4.884   8.523  16.025  0.2975  0.0967  0.0920
 3237W        W20085   3.326   9.059  10.915  0.0919  0.3147 -0.0061
 3238W        W20086   1.414  13.888   2.498  0.1015  0.1405  0.2484
 3239W        W20087  13.657  14.669   1.322 -0.1356 -0.2679  0.0726
 3240W        W20088   9.996  15.845   3.032  0.0265  0.1256 -0.1317
 3241W        W20089  12.674   9.544  11.298  0.0077 -0.0069 -0.2228
 3242W        W20090  13.360   3.601   3.246 -0.1451 -0.0677  0.2204
 3243W        W20091   9.931   1.794   0.406 -0.0290 -0.0706  0.3101
 3244W        W20092  12.523   5.012   0.859  0.0593 -0.2797  0.0523
 3245W        W20093   8.500  12.700  13.169 -0.2521  0.2439  0.0106
 3246W        W20094   3.522  13.473   2.510  0.2532 -0.3520 -0.1089
 3247W        W20095   0.317   0.982   1.905 -0.0844 -0.0100  0.1751
 3248W        W20096  11.315   2.711   1.280  0.0997  0.3339 -0.0863
 3249W        W20097   8.886  15.468   4.967 -0.1229 -0.0233  0.1770
 3250W        W20098   8.671   7.390   2.816 -0.3420 -0.1873 -0.2302
 3251W        W20099  10.220   9.872  16.262  0.0766  0.1462 -0.0209
 3252W        W20100  10.934   1.783   3.917 -0.2351 -0.0301  0.2627
 3253W        W20101  15.421   8.983   2.973 -0.0266  0.0412 -0.0082
 3254W        W20102   4.348   0.915   0.756  0.1824  0.0196  0.1081
 3255W        W20103   9.112   0.042  13.760 -0.0289  0.1783  0.2282
 3256W        W20104   6.151  11.073  10.966 -0.3656  0.1262 -0.1213
 3257W        W20105  13.761  13.116  11.650 -0.1606 -0.1123 -0.0007
 3258W        W20106   9.091   2.521  12.553 -0.5020 -0.1045 -0.1192
 3259W        W20107   8.184   1.928  10.551  0.0763 -0.0129  0.0297
 3260W        W20108   8.216   7.818  12.702  0.1149 -0.0920  0.1424
 3261W        W20109  15.781  14.063  16.049 -0.1930  0.2219  0.1677
 3262W        W20110   0.287   0.173  12.986 -0.0707  0.0331  0.2897
 3263W        W20111  16.144   5.597  13.930  0.5634 -0.1544  0.1697
 3264W        W20112   8.140  17.798   2.649  0.0019 -0.0307 -0.1308
 3265W        W20113  15.205  14.735  13.829  0.1170  0.1910 -0.1261
 3266W        W20114  11.293   2.964  13.350 -0.2399  0.0288 -0.1213
 3267W        W20115  18.028   8.025   0.866 -0.5169  0.1667  0.1733
 3268W        W20116  10.681   0.403  10.326 -0.3578  0.1141 -0.1407
 3269W        W20117   3.484   0.606  13.818  0.1651  0.2509 -0.1227
 3270W        W20118   5.433  15.715  10.382  0.1121  0.0908  0.0800
 3271W        W20119   6.472   8.675   1.246  0.2271 -0.0271  0.5723
 3272W        W20120  17.755   1.238  14.510  0.1323  0.1822  0.1601
 3273W        W20121  17.045  10.614  13.400  0.2488  0.0703  0.0454
 3274W        W20122  15.853   3.928  15.841  0.0353  0.2164  0.3513
 3275W        W20123   4.308  15.974   5.194 -0.2659 -0.1856 -0.0705
 3276W        W20124  15.164  13.433   4.379 -0.1471  0.1616 -0.1579
 3277W        W20125  12.012  14.126  12.003  0.0020 -0.0738  0.1424
 3278W        W20126  13.964  10.238   0.401 -0.0718 -0.2141 -0.2748
 3279W        W20127  12.198   9.698  12.761  0.0475  0.0234  0.2353
 3280W        W20128  12.177  10.180   4.063 -0.2007  0.1389 -0.2554
 3281W        W20129   5.667  10.415  14.042  0.0132  0.0556  0.0669
 3282W        W20130  11.070   2.240  11.446 -0.2359  0.1676  0.0968
 3283W        W20131   3.093   3.945   4.297 -0.0788  0.2059 -0.2204
 3284W        W20132   8.033   5.402  10.335 -0.3471  0.1103  0.0298
 3285W        W20133   2.433   1.721   2.117  0.3990 -0.2767  0.0417
 3286W        W20134  17.402   8.357   4.196  0.0830 -0.0906 -0.1152
 3287W        W20135  11.466   8.729   1.843  0.1035 -0.1425  0.0376
 3288W        W20136  13.488   5.270   2.492  0.1018 -0.0145  0.1496
 3289W        W20137  11.517  11.936  12.825 -0.0100  0.0310  0.1417
 3290W        W20138   2.963   1.193  13.462  0.2348 -0.2327 -0.4804
 3291W        W20139   4.177  11.529  13.998  0.0437  0.1633 -0.1323
 3292W        W20140   5.252   6.550   0.922 -0.0590  0.0912 -0.1023
 3293W        W20141  13.382   0.278   1.419 -0.0367  0.0815  0.0471
 3294W        W20142   5.075  11.230   4.176  0.3479  0.3505  0.1386
 3295W        W20143  14.184  17.989  13.503 -0.0464  0.2671 -0.0475
 3296W        W20144  10.016   8.091  12.279  0.2405  0.3063 -0.0683
 3297W        W20145  16.205  10.249  15.799 -0.1507  0.1691  0.0914
 3298W        W20146   7.360   6.907  15.410 -0.1198  0.1612 -0.1057
 3299W        W20147   8.045  17.143  13.980  0.0688 -0.1612  0.0835
 3300W        W20148   2.598  10.663   1.488  0.2857 -0.0178  0.0100
 3301W        W20149   9.010   4.495   5.007 -0.3404  0.2514 -0.0769
 3302W        W20150  10.984  11.506  11.313  0.2016  0.1439  0.1391
 3303W        W20151   7.007   5.503   1.497 -0.0668 -0.0754 -0.0659
 3304W        W20152   9.899  15.927   0.344  0.2800 -0.0814 -0.2707
 3305W        W20153   2.263  15.346   1.347 -0.0858  0.4583 -0.0208
 3306W        W20154   1.317   5.051  11.350  0.3826  0.2789 -0.1301
 3307W        W20155  11.246  15.440   0.300 -0.0627  0.0064 -0.1549
 3308W        W20156   8.325  12.410   1.948  0.0297  0.4283 -0.2072
 3309W        W20157  15.129   5.248  15.615  0.0433  0.3734 -0.1053
 3310W        W20158   9.380   2.669  13.464 -0.2354  0.0427  0.0696
 3311W        W20159  11.747  13.631   3.597  0.2194 -0.1351 -0.0749
 3312W        W20160   1.042   1.159  12.928  0.0688  0.1572  0.0118
 3313W        W20161  11.376   6.696  14.275  0.2894  0.0284 -0.1211
 3314W        W20162   2.424   8.363   3.188  0.2657  0.0970  0.2349
 3315W        W20163   5.481   3.125  14.467  0.1085 -0.0025 -0.0092
 3316W        W20164   2.828  13.667   0.472  0.3402  0.0117  0.0567
 3317W        W20165   8.960   0.552   1.616  0.0045  0.0961 -0.0253
 3318W        W20166   1.778   3.281   3.862  0.2850 -0.0954  0.0761
 3319W        W20167  17.243   2.935  11.243  0.0484 -0.0914  0.0923
 3320W        W20168  14.420   6.661  13.563  0.0084  0.0893 -0.0960
 3321W        W20169  13.995  14.434  12.400  0.3974  0.0341  0.1758
 3322W        W20170  16.242  12.118   1.745 -0.3282 -0.2245 -0.0119
 3323W        W20171  12.535   7.588   2.118  0.1212  0.0019 -0.0185
 3324W        W20172  17.330  10.698  15.232  0.1291  0.2112 -0.1071
 3325W        W20173   2.968  15.140  11.977  0.0374  0.0957  0.3192
 3326W        W20174   2.713  16.264  15.051  0.1352  0.0398 -0.1754
 3327W        W20175   1.609  17.098  13.853  0.2022  0.1569  0.1025
 3328W        W20176   3.375  15.662   3.573 -0.1422 -0.3305  0.0980
 3329W        W20177  17.475   7.670  16.171 -0.1273  0.0577 -0.0006
 3330W        W20178  16.350   0.194   1.893  0.1211  0.0125 -0.1094
 3331W        W20179  14.780   1.534   4.937 -0.4865  0.1308 -0.1923
 3332W        W20180   5.230   0.915   5.032  0.2227 -0.2333 -0.1565
 3333W        W20181   5.266  11.799   4.875 -0.1874 -0.0338 -0.0920
 3334W        W20182  10.794  15.008  13.361 -0.0193  0.1895 -0.0505
 3335W        W20183   1.964   1.514  14.343 -0.0466 -0.0152  0.0267
 3336W        W20184   9.502  12.284   2.041 -0.0078  0.1588 -0.0892
 3337W        W20185  12.036   9.465  15.556  0.0317 -0.0805  0.2165
 3338W        W20186   6.671  15.254  11.754 -0.1206  0.0274 -0.1149
 3339W        W20187   2.496  17.716   6.331 -0.0815  0.2901 -0.1483
 3340W        W20188  11.940   7.882   2.850 -0.0534 -0.2860  0.0993
 3341W        W20189   0.179   7.613  10.778 -0.1221 -0.0154 -0.1876
 3342W        W20190  12.452   7.095   4.393 -0.0443 -0.0565  0.2496
 3343W        W20191   2.707   1.798   0.492  0.0038  0.0907  0.0941
 3344W        W20192  17.856   0.140  13.186 -0.1274  0.0363 -0.3146
 3345W        W20193  10.093   9.555  13.976  0.1187  0.2432 -0.0604
 3346W        W20194   9.239   3.663  16.115  0.1271  0.0505 -0.0113
 3347W        W20195   9.033   7.884  15.930 -0.0155  0.0980  0.1410
 3348W        W20196  10.308  14.656  14.865 -0.0202 -0.0093  0.1805
 3349W        W20197   4.705  13.856  13.447 -0.1566  0.1626 -0.0877
 3350W        W20198   8.922   5.639   3.146 -0.1595  0.1114  0.1273
 3351W        W20199   7.930  10.041   3.438 -0.2050 -0.2347 -0.0662
 3352W        W20200  16.974   4.316   4.845 -0.0030  0.0978 -0.3441
 3353W        W20201  13.385  16.211  15.075 -0.2840  0.2776 -0.1804
 3354W        W20202  11.327  11.195  11.506 -0.2146  0.1311  0.0767
 3355W        W20203  17.739  12.971   2.442  0.0793  0.0001 -0.1896
 3356W        W20204  17.613   5.442  11.490 -0.0910  0.0400  0.2229
 3357W        W20205   9.993  11.218  13.900  0.0970  0.0655 -0.1036
 3358W        W20206  13.975  15.295   0.036  0.1373 -0.0548  0.0311
 3359W        W20207   2.375   8.792   2.719 -0.1796  0.3604 -0.1501
 3360W        W20208   5.080   1.211  11.396  0.0655  0.0806 -0.0816
 3361W        W20209  13.184  14.879  11.618  0.1244 -0.2988  0.1029
 3362W        W20210   0.258   8.701  16.096  0.0139 -0.1938 -0.0335
 3363W        W20211  15.639  15.074   0.802 -0.0911 -0.0409  0.0261
 3364W        W20212  11.182   0.726   3.118 -0.1703  0.1716 -0.0090
 3365W        W20213   0.595   0.586   1.961  0.1622 -0.1176 -0.0651
 3366W        W20214  13.780   4.830  14.768 -0.3266 -0.0759 -0.3679
 3367W        W20215  15.718   4.692   1.384  0.1233  0.1445 -0.2394
 3368W        W20216   2.158  16.298   2.462  0.2205  0.1890 -0.1011
 3369W        W20217   9.283   6.151   3.899 -0.0265  0.0256  0.0979
 3370W        W20218   0.520  12.820  13.267 -0.1234  0.1199 -0.0390
 3371W        W20219  15.557   6.524  15.372  0.1590  0.1326 -0.1506
 3372W        W20220   6.054  17.233  12.055  0.0518 -0.0549 -0.3620
 3373W        W20221   4.385   8.556  14.570  0.1358  0.0131  0.0389
 3374W        W20222  16.609   4.809  11.123 -0.2424  0.0145 -0.3054
 3375W        W20223   2.055  12.627  13.107  0.1449 -0.0810  0.2019
 3376W        W20224  16.355  15.671  16.133  0.1591  0.2035 -0.1145
 3377W        W20225   6.201   3.143  15.316 -0.2013  0.1199 -0.0457
 3378W        W20226   5.006  15.075  11.534 -0.2368  0.0494  0.1226
 3379W        W20227  14.332   6.391   3.334  0.1268  0.2139  0.0768
 3380W        W20228   4.819  16.231   1.667 -0.4484 -0.0658 -0.0489
 3381W        W20229  17.274  13.151  15.269  0.1873  0.0788 -0.3132
 3382W        W20230  12.275  15.453   2.809 -0.0890  0.2609 -0.0194
 3383W        W20231   4.710  16.917  15.258 -0.2305  0.2157  0.0357
 3384W        W20232  14.038   9.212  15.228  0.1265  0.2889  0.1411
 3385W        W20233   6.856  15.543   2.293  0.0495  0.0071  0.2435
 3386W        W20234  13.662   7.994  12.826 -0.0069 -0.3420  0.1026
 3387W        W20235  16.829   2.667  13.539  0.3027 -0.1247 -0.1637
 3388W        W20236  11.077   2.213  13.817 -0.1748 -0.2090 -0.0907
 3389W        W20237  13.699  10.967   4.425 -0.0656 -0.0273 -0.0638
 3390W        W20238  11.581   8.752  13.014  0.0923  0.0846  0.0032
 3391W        W20239   6.160  15.692  15.992 -0.0858  0.0867  0.0261
 3392W        W20240  17.746  10.186   2.929 -0.1925 -0.1208  0.0520
 3393W        W20241   9.524  10.848  13.928 -0.1618 -0.1732  0.0831
 3394W        W20242   1.974   7.308  16.178  0.0784 -0.1337  0.1505
 3395W        W20243  15.804   5.986   0.005  0.1597 -0.0926 -0.1181
 3396W        W20244  12.728  11.277  12.661 -0.0484  0.0575  0.1602
 3397W        W20245  13.384   1.069  14.959 -0.0701 -0.0568 -0.2237
 3398W        W20246  11.496   3.397  12.113  0.2045 -0.0893  0.0495
 3399W        W20247   8.333   0.269   2.618  0.1570  0.1369  0.1902
 3400W        W20248   8.315   5.572   4.349  0.0071  0.1142  0.1331
 3401W        W20249   4.673   0.678   3.290 -0.0495 -0.3022  0.0592
 3402W        W20250   2.105   6.521  11.876 -0.3890  0.2222  0.0461
 3403W        W20251   2.122   1.253   3.438  0.2886  0.1283 -0.0669
 3404W        W20252   5.178   2.982  12.113  0.2313 -0.2626  0.0772
 3405W        W20253   3.567  15.958   6.125  0.1607  0.0754 -0.1884
 3406W        W20254  15.829   8.046   4.771  0.3030 -0.0588  0.4065
 3407W        W20255   6.772   7.881   3.813  0.2511 -0.0158 -0.1108
 3408W        W20256   0.283   6.459   5.170  0.1987  0.1096  0.1091
 3409W        W20257  11.745  11.386  12.395 -0.0832 -0.3116  0.0331
 3410W        W20258  14.222   0.736   4.034  0.1356  0.0388 -0.0775
 3411W        W20259   8.408  10.647  12.846  0.0788  0.4683 -0.0871
 3412W        W20260   5.163   0.131  14.735  0.1207 -0.0384 -0.2562
 3413W        W20261  16.448  10.537  14.241  0.2661 -0.5112  0.2974
 3414W        W20262   9.810   5.767  14.629  0.0050 -0.0219 -0.3199
 3415W        W20263  16.548  12.750  14.760 -0.3001 -0.1782 -0.1331
 3416W        W20264   7.186  17.223  16.084 -0.1140  0.2578 -0.1134
 3417W        W20265  15.046  13.667   2.644 -0.0073 -0.0984 -0.2117
 3418W        W20266  10.167   1.219   4.242 -0.1659  0.0532 -0.2382
 3419W        W20267   0.144   1.202  10.921  0.1779  0.1977 -0.0824
 3420W        W20268   8.562  13.542   4.948  0.2468  0.0031 -0.0073
 3421W        W20269   5.922  12.133   2.416  0.2637  0.0869  0.0805
 3422W        W20270   9.003  12.475   4.361  0.0669 -0.3023  0.0205
 3423W        W20271   1.393   6.029   0.239  0.0518 -0.0469  0.1297
 3424W        W20272   1.934   4.926  15.929 -0.1384  0.4098  0.2392
 3425W        W20273  16.586   3.471   1.947 -0.1732 -0.5091 -0.2227
 3426W        W20274   1.112   6.916   3.032 -0.1227 -0.0445  0.0139
 3427W        W20275   8.769  14.849  15.196 -0.2605  0.1480 -0.0440
 3428W        W20276  10.147  12.315  13.994  0.3385  0.0213 -0.1103
 3429W        W20277  16.818   9.226  13.229 -0.0959  0.0646  0.0981
 3430W        W20278  15.592  12.311  14.747 -0.0855 -0.3390  0.0063
 3431W        W20279   0.308  16.805   1.216  0.0508 -0.1189 -0.3277
 3432W        W20280   8.864   4.691   2.518 -0.1452 -0.2904 -0.0074
 3433W        W20281  17.604  16.639   4.056 -0.1097 -0.1244 -0.2041
 3434W        W20282   9.083  14.052   0.075 -0.0779 -0.1945  0.1056
 3435W        W20283  12.086  15.387  13.308 -0.0882 -0.0686 -0.0429
 3436W        W20284   0.372   1.589   1.058 -0.2528 -0.1849  0.0615
 3437W        W20285  14.262   1.884   3.429  0.1062  0.0170  0.2307
 3438W        W20286  11.970  10.349  13.455 -0.0537  0.0973 -0.0518
 3439W        W20287   8.399   4.585   4.251 -0.0196  0.0553  0.1117
 3440W        W20288  11.992   8.546  13.176 -0.1654  0.1718  0.1484
 3441W        W20289   5.338   7.832  12.287 -0.0816  0.1610 -0.2696
 3442W        W20290   8.112  15.099   3.492  0.2560  0.2573  0.2212
 3443W        W20291   2.241   8.391   2.063  0.0291  0.1742  0.0294
 3444W        W20292   5.833   8.396  11.512  0.3102  0.1167  0.2485
 3445W        W20293  14.727   4.807   3.059  0.1108 -0.4641  0.1333
 3446W        W20294  15.786  15.387   1.223 -0.2561  0.2901  0.2274
 3447W        W20295  11.280   3.859  15.809  0.1445  0.3262  0.0164
 3448W        W20296  11.320   3.973  11.243 -0.2064  0.0109  0.2821
 3449W        W20297  16.363   4.149  14.288  0.1356  0.0791  0.0281
 3450W        W20298  14.430   5.450  16.168  0.4060 -0.0735 -0.0469
 3451W        W20299   8.297   1.958  16.170 -0.2910 -0.0919 -0.3663
 3452W        W20300   9.601  14.264   4.045 -0.1696 -0.0191 -0.2834
 3453W        W20301   4.281  14.317   0.790  0.2959  0.3940 -0.4090
 3454W        W20302   1.400  10.238  14.796 -0.1024  0.2418 -0.2282
 3455W        W20303   8.310   6.425  12.189  0.1023  0.1039 -0.0462
 3456W        W20304   1.683   5.872   4.076 -0.0318  0.0157  0.0514
 3457W        W20305   8.510  15.816  10.519 -0.0887 -0.2007 -0.1271
 3458W        W20306   1.549   1.170  11.072  0.2428  0.1692  0.0294
 3459W        W20307   7.853  14.884  16.016  0.1579  0.2196  0.1639
 3460W        W20308  15.343   1.913  12.017  0.1829  0.0917  0.0428
 3461W        W20309   1.463   6.770   0.644  0.3497  0.3641  0.2422
 3462W        W20310  11.658  11.094   2.163 -0.0700 -0.1034 -0.0147
 3463W        W20311   4.492  14.109  14.014 -0.0764  0.1459  0.0159
 3464W        W20312  14.247  16.323   0.515 -0.1566 -0.2266 -0.0072
 3465W        W20313  13.562  16.580  14.216  0.0735  0.1475  0.2246
 3466W        W20314  17.047  15.542   5.666 -0.0974  0.2154  0.0546
 3467W        W20315  11.644  15.199   1.217 -0.0314  0.0674 -0.0586
 3468W        W20316  17.281  17.081   1.340  0.2343 -0.1483 -0.0497
 3469W        W20317   6.931  11.960  12.490  0.2068  0.1161  0.0452
 3470W        W20318   5.936  11.046   4.867  0.0796 -0.2359 -0.0167
 3471W        W20319  10.756   5.274  15.511 -0.1465  0.2536 -0.0064
 3472W        W20320   9.625   9.928  12.300  0.1197  0.1572 -0.0674
 3473W        W20321  13.192  12.159   4.000  0.0906 -0.0313 -0.0181
 3474W        W20322  16.375   2.293  14.149  0.1247  0.3596  0.2018
 3475W        W20323  13.143  15.497   4.881 -0.0451  0.1482  0.1007
 3476W        W20324  10.400  12.842   0.114 -0.0231 -0.1689  0.0972
 3477W        W20325   0.954  12.077   0.333  0.0195  0.1993  0.2198
 3478W        W20326   5.396   6.548  15.382 -0.1495  0.1630 -0.0463
 3479W        W20327   8.016  11.185   1.618 -0.1991  0.3428  0.0845
 3480W        W20328  12.202   1.422  11.833  0.2172 -0.4951 -0.1713
 3481W        W20329  10.220   1.322   0.228 -0.1352  0.2225  0.0214
 3482W        W20330   4.095  12.346   3.416  0.0735 -0.1906 -0.4429
 3483W        W20331  16.495  17.688   2.615 -0.0743 -0.1348 -0.0748
 3484W        W20332  11.238   4.680   3.629  0.2265 -0.0571  0.0763
 3485W        W20333  14.969  17.444  12.112  0.0028 -0.1354 -0.0438
 3486W        W20334  14.713   4.985   4.990 -0.1712  0.0788  0.0368
 3487W        W20335  15.350   2.589  11.664 -0.2020  0.1303  0.3552
 3488W        W20336   2.801   4.657   0.766 -0.0408 -0.1428 -0.2437
 3489W        W20337   6.898   7.660   1.506 -0.0709 -0.1879  0.0419
 3490W        W20338   5.861   8.248   0.250 -0.1039 -0.1900  0.1601
 3491W        W20339   0.495   9.209  12.277 -0.0863 -0.1507 -0.1528
 3492W        W20340   1.015  11.369  15.994 -0.0069  0.0755  0.0300
 3493W        W20341   1.491   8.577   3.862  0.2802  0.0599  0.3669
 3494W        W20342   9.421  15.524   0.892 -0.1884  0.3598  0.0941
 3495W        W20343   1.436   0.395   2.623  0.0019  0.0153  0.0356
 3496W        W20344  12.495   3.814   3.023  0.0806 -0.1263 -0.0484
 3497W        W20345  15.367  17.607  14.149  0.2098  0.3094 -0.0973
 3498W        W20346   4.727  10.495   3.494 -0.1135 -0.0686  0.1229
 3499W        W20347   0.431   8.406   5.007 -0.0492  0.1168 -0.2283
 3500W        W20348   6.312  12.314   4.346 -0.1627 -0.3374 -0.1009
 3501W        W20349   3.243  13.632   1.963  0.3918  0.0137 -0.4102
 3502W        W20350  11.063  14.996   1.266  0.1299 -0.2568 -0.0474
 3503W        W20351   3.717  14.764  15.344 -0.1757 -0.0105 -0.2474
 3504W        W20352   7.075   6.252   4.323  0.2455  0.1169 -0.2054
 3505W        W20353  14.050  14.393   0.250 -0.2044 -0.3946  0.0453
 3506W        W20354   6.850   4.768  12.241  0.1680  0.1380 -0.4336
 3507W        W20355  10.834   4.173  15.899 -0.0876  0.3425 -0.1895
 3508W        W20356   2.831  15.797   5.694  0.2692 -0.3256  0.2166
 3509W        W20357   0.766  15.670  12.250  0.1248 -0.1061 -0.1191
 3510W        W20358  13.459   8.051   4.745  0.1166  0.0083  0.0272
 3511W        W20359   0.773   1.543  14.025 -0.0826 -0.0719 -0.1146
 3512W        W20360   6.640  17.922  12.877  0.1712  0.0335 -0.0084
 3513W        W20361   1.677   9.257   0.494  0.0043  0.1106  0.1480
 3514W        W20362   2.892   8.042  10.828 -0.0915  0.1113  0.0473
 3515W        W20363  13.311   5.706   2.809 -0.4612 -0.2066 -0.0780
 3516W        W20364  13.585   2.260  15.177  0.2525 -0.0297  0.1508
 3517W        W20365   0.349  10.579   1.211  0.0867 -0.2831 -0.0218
 3518W        W20366  13.168   2.963  13.720  0.1477  0.2351 -0.0949
 3519W        W20367  13.873   5.539   0.775 -0.0510  0.0314  0.5721
 3520W        W20368   2.578   6.973  13.111  0.0706 -0.2996  0.0185
 3521W        W20369  17.650   6.540  12.177 -0.1021  0.0455 -0.2946
 3522W        W20370  13.810   6.128  11.747  0.0005 -0.0218  0.3767
 3523W        W20371  13.551  11.579  11.747 -0.3096 -0.1078  0.1945
 3524W        W20372   4.479   8.842  12.248 -0.3128 -0.2126 -0.2503
 3525W        W20373   5.017  11.420  10.592 -0.0292 -0.0925 -0.2035
 3526W        W20374   3.654  10.816  15.453  0.1467  0.0765  0.1464
 3527W        W20375  17.884   1.306   4.714  0.0415  0.1176 -0.0358
 3528W        W20376  15.407  16.044   1.094 -0.0090 -0.0869 -0.1789
 3529W        W20377   0.333  15.709   4.027  0.1581  0.2576 -0.1646
 3530W        W20378   7.061   5.436   5.126 -0.0663 -0.0371 -0.0305
 3531W        W20379  11.449   4.635   0.133 -0.1925  0.1085 -0.2527
 3532W        W20380  13.653  14.457   2.903  0.0514 -0.2439  0.1688
 3533W        W20381  17.330   6.618  15.090  0.2443  0.1589  0.2634
 3534W        W20382  12.406   5.194   5.046  0.3189 -0.0236 -0.0945
 3535W        W20383  13.070   2.153  13.024 -0.0443  0.0145 -0.1103
 3536W        W20384  11.829  11.099  11.936  0.1903 -0.2710  0.3220
 3537W        W20385   2.239  13.564  13.944  0.0111  0.2288  0.0578
 3538W        W20386  10.064  11.716  12.035 -0.2499 -0.0382 -0.2529
 3539W        W20387  10.284  13.616   2.472 -0.0183 -0.3425  0.1988
 3540W        W20388   4.806  17.265   5.595 -0.1885  0.2362 -0.0795
 3541W        W20389  14.545  17.468   0.427 -0.0127  0.2483  0.1003
 3542W        W20390   2.155   0.963   5.111  0.0348 -0.1549 -0.3930
 3543W        W20391   3.067   0.770  11.979 -0.0253  0.6477 -0.1533
 3544W        W20392   5.124  10.078   1.626 -0.1340 -0.0106  0.2485
 3545W        W20393   5.379  15.680   0.983 -0.1414 -0.0423 -0.0472
 3546W        W20394   8.320   2.759  15.546 -0.1495 -0.0465  0.1839
 3547W        W20395  12.089   9.812   1.358 -0.1829 -0.0448  0.1662
 3548W        W20396   7.249  14.109  14.879  0.0594 -0.1566  0.1456
 3549W        W20397   7.614  12.702   1.429  0.1450  0.0798  0.2094
 3550W        W20398   4.723  10.449   5.241  0.2203  0.0551  0.2431
 3551W        W20399   5.931  13.873   1.311  0.0859 -0.1827 -0.2978
 3552W        W20400  13.067   9.523   1.069  0.1198  0.2019 -0.1134
 3553W        W20401   2.996   0.638  13.452  0.0269  0.2986 -0.1874
 3554W        W20402   9.609  11.389   1.646  0.2268 -0.0835  0.0177
 3555W        W20403   0.854   3.763   2.116  0.0732 -0.2228  0.0851
 3556W        W20404   5.815   7.845  11.470 -0.1540  0.1980 -0.0884
 3557W        W20405  16.782  12.488  14.026  0.0322 -0.2990 -0.0801
 3558W        W20406   4.766  14.355   4.991  0.1025 -0.0051 -0.0620
 3559W        W20407  13.957   9.748   4.185 -0.1370 -0.1264 -0.0907
 3560W        W20408   1.975  12.838  14.906  0.3159  0.0725 -0.0902
 3561W        W20409  16.194  12.459  11.935 -0.1541 -0.2360  0.2190
 3562W        W20410   5.126  15.769   4.757 -0.2302  0.1903  0.3438
 3563W        W20411   4.714   9.647   4.875 -0.0086  0.0156 -0.0083
 3564W        W20412  12.827   6.219  15.810 -0.0803 -0.1684  0.3371
 3565W        W20413   2.102  17.478  11.056  0.2667 -0.1910  0.1333
 3566W        W20414  12.605  17.985  12.908 -0.1913 -0.0469  0.5426
 3567W        W20415   2.693   7.292  12.057  0.2652 -0.0977  0.2657
 3568W        W20416   9.116  14.670   1.976  0.0720 -0.2623 -0.1903
 3569W        W20417   6.396   2.313  14.580 -0.0173  0.0647  0.3219
 3570W        W20418  13.312   7.629  12.634  0.3897  0.0430  0.0783
 3571W        W20419   0.535  17.682   1.740 -0.1153 -0.2057  0.5321
 3572W        W20420   0.270   4.663   0.475 -0.0078 -0.1648 -0.3221
 3573W        W20421  12.995   7.294   4.263  0.0632 -0.0533  0.0067
 3574W        W20422   8.113  13.863   0.829  0.1777  0.2224  0.1493
 3575W        W20423   9.121  17.079  16.049 -0.3582 -0.0786 -0.1154
 3576W        W20424   0.111   6.458   4.635 -0.0369  0.1472 -0.1420
 3577W        W20425  11.659  16.628  11.893  0.1562  0.1359  0.4424
 3578W        W20426   2.907  15.398   2.017 -0.3347 -0.0333 -0.0347
 3579W        W20427  15.001  12.973  14.002 -0.0517  0.0355  0.2896
 3580W        W20428   7.207   4.078   3.212  0.0942 -0.0362  0.2642
 3581W        W20429  16.806  12.124   5.144 -0.0762 -0.0428  0.1998
 3582W        W20430   0.624  12.660   1.616 -0.3266  0.1134  0.2432
 3583W        W20431  11.317   9.851  12.946 -0.1872 -0.3073  0.1441
 3584W        W20432   5.875   6.274   3.677  0.0337  0.4969  0.0078
 3585W        W20433  12.577   5.256  13.071  0.0095 -0.0515 -0.0653
 3586W        W20434  12.227   1.125   1.981 -0.1141  0.1174  0.2029
 3587W        W20435   0.369   9.233  15.940  0.1126 -0.1421 -0.0175
 3588W        W20436   2.412   6.585  14.046  0.2286 -0.1486 -0.1998
 3589W        W20437  12.887  10.656  13.164 -0.0559  0.0473  0.3432
 3590W        W20438  16.500  16.231   2.555  0.2624 -0.1388 -0.0793
 3591W        W20439   4.860  11.403   4.742 -0.1828 -0.1377  0.1965
 3592W        W20440  13.819   4.485  14.012  0.0154  0.2624 -0.0342
 3593W        W20441   2.311   8.917   5.489  0.3822  0.1777 -0.0039
 3594W        W20442  14.671   7.681   4.402 -0.3362 -0.2677 -0.2526
 3595W        W20443  10.147  14.332  14.538 -0.3682 -0.0989  0.3938
 3596W        W20444  14.245  12.120  12.776 -0.0441 -0.1772 -0.2289
 3597W        W20445  16.365   8.068  12.252 -0.2377 -0.1657 -0.2510
 3598W        W20446   6.585   1.074   6.203 -0.1329  0.0889 -0.1277
 3599W        W20447  12.968  10.050  12.308  0.3824 -0.0730 -0.0304
 3600W        W20448   9.102   2.912   4.960  0.1001  0.2013 -0.4391
 3601W        W20449  13.431   5.393  15.482  0.0397 -0.0739  0.2330
 3602W        W20450   0.830  12.502   1.100  0.0810  0.2027 -0.0627
 3603W        W20451   9.642  15.061  15.380  0.1685 -0.0479  0.1045
 3604W        W20452   0.163   5.153  11.917  0.1075  0.0024  0.1396
 3605W        W20453  13.816  10.559   4.702  0.0404 -0.2679 -0.2419
 3606W        W20454   6.336  15.285  15.866 -0.2050  0.3027  0.2333
 3607W        W20455   4.662   3.888   1.435  0.0887  0.0186  0.1711
 3608W        W20456   8.566   5.991  12.105 -0.1006 -0.4021  0.1470
 3609W        W20457   0.843  10.410  11.889  0.2734  0.0608  0.0687
 3610W        W20458  15.907  13.162  14.901 -0.1178  0.0742 -0.0680
 3611W        W20459   4.532  14.643   3.396  0.0028  0.1547 -0.0024
 3612W        W20460  10.380   8.960   2.073 -0.0250 -0.2744 -0.0169
 3613W        W20461   7.202  10.221  15.274 -0.0276  0.1070  0.1344
 3614W        W20462   5.790   3.319   4.882  0.0174 -0.0027 -0.1499
 3615W        W20463  10.193  15.457   4.789  0.0257  0.0982 -0.0387
 3616W        W20464   6.835   6.279  10.914 -0.0584  0.1129 -0.0910
 3617W        W20465   6.759  11.297   4.630  0.0524 -0.1794 -0.2652
 3618W        W20466  12.579   0.579  11.491 -0.2670 -0.0185 -0.1729
 3619W        W20467  10.105   0.986  14.118 -0.3059 -0.3845  0.0038
 3620W        W20468  15.060   6.308  12.026  0.2787 -0.0351 -0.2632
 3621W        W20469  18.038  16.404   0.425 -0.2327  0.1661 -0.1992
 3622W        W20470   7.126   9.296   3.962 -0.1033 -0.2279 -0.2887
 3623W        W20471   6.218  17.673   3.410  0.1382 -0.0650 -0.0740
 3624W        W20472  10.606  14.627   0.697  0.2206 -0.1785  0.2206
 3625W        W20473  15.693  11.038   1.497 -0.0675  0.0826  0.1480
 3626W        W20474   1.752  16.167  13.607  0.0465  0.0938  0.2934
 3627W        W20475   9.135  16.248   2.519 -0.0022  0.0688 -0.2256
 3628W        W20476  17.708   2.355  15.432  0.1841 -0.1254  0.0642
 3629W        W20477  16.959   1.815   6.236  0.2580 -0.0582  0.0295
 3630W        W20478   0.121   2.287  15.276  0.1677 -0.2346  0.1025
 3631W        W20479   4.063   7.127   0.138  0.1065  0.0819 -0.1957
 3632W        W20480   2.214   2.984  15.589 -0.0405  0.2422  0.3468
 3633W        W20481   6.500   1.639   4.232  0.0777  0.2637 -0.0148
 3634W        W20482  15.070   2.036   0.363  0.2242  0.0895 -0.4478
 3635W        W20483   1.922  14.911  16.229  0.1138  0.0919 -0.0298
 3636W        W20484   9.422  15.192   0.531  0.1115  0.2480 -0.3005
 3637W        W20485  16.700  15.331  14.843  0.1114  0.2890 -0.0536
 3638W        W20486  18.000   0.916   5.081 -0.2553 -0.0610  0.2641
 3639W        W20487  12.071  12.442   1.384 -0.2287  0.0858 -0.0291
 3640W        W20488  12.453  14.430  11.685  0.1517  0.1500  0.1067
 3641W        W20489   5.823  15.434  14.296 -0.1145  0.0939 -0.2025
 3642W        W20490  13.466   9.132   3.211  0.1849 -0.1847  0.5318
 3643W        W20491  12.176  16.778  11.621  0.1618  0.1384  0.0002
 3644W        W20492  13.363   9.766   0.212 -0.4257 -0.1965  0.0580
 3645W        W20493   9.940   6.240   4.396  0.0328  0.2715  0.2206
 3646W        W20494  15.773   3.926  11.858  0.2733 -0.0092 -0.1276
 3647W        W20495   9.274  14.571   4.270  0.1594 -0.2928 -0.0925
 3648W        W20496   4.852  11.917  15.234 -0.0275 -0.1863 -0.0811
 3649W        W20497   1.472   1.436  14.262 -0.0031  0.0237  0.1097
 3650W        W20498   9.600  15.700   2.672 -0.0939  0.1570  0.1146
 3651W        W20499   0.325  15.474  12.012 -0.0222 -0.1139 -0.0283
 3652W        W20500   6.912   8.171  13.461 -0.2570 -0.1366  0.1656
 3653W        W20501   9.183  13.273  13.027  0.1175  0.2432  0.2261
 3654W        W20502  11.887  10.173  11.815 -0.0532 -0.0636 -0.3971
 3655W        W20503   6.116   5.442   3.974  0.2146 -0.0947 -0.1372
 3656W        W20504  17.842   4.045  15.099  0.0993  0.1396  0.1292
 3657W        W20505   9.342  17.434   0.728  0.0627  0.0307  0.2690
 3658W        W20506   5.571  12.288  15.235  0.0466 -0.0489  0.1636
 3659W        W20507   9.390   9.412   3.400  0.2327  0.1943  0.1868
 3660W        W20508   5.466  15.585  10.866  0.0462  0.2991  0.0580
 3661W        W20509  14.806  17.050   0.190  0.0068 -0.0031 -0.1586
 3662W        W20510  14.341   5.467   3.349  0.0624  0.1009 -0.0777
 3663W        W20511  13.911   8.721   3.675  0.1398  0.1797  0.1115
 3664W        W20512   7.601  17.948  13.993  0.0300  0.0509  0.2247
 3665W        W20513   6.137   7.977  13.986  0.0587  0.3012 -0.1061
 3666W        W20514  10.055   1.766   1.221  0.1070  0.0109 -0.3723
 3667W        W20515   9.595   8.991   2.203 -0.1584  0.3588  0.1000
 3668W        W20516  11.418   7.956  12.042  0.0723  0.0564 -0.0697
 3669W        W20517   5.417  17.733  11.795  0.0154 -0.0449 -0.2993
 3670W        W20518  14.846  10.759  13.315 -0.0254  0.2536  0.2841
 3671W        W20519  12.617  13.142  13.873 -0.2843  0.0817 -0.2294
 3672W        W20520  14.905   8.218  13.992 -0.2731 -0.2289 -0.1364
 3673W        W20521   4.872  17.870  11.212  0.4406  0.1237 -0.1159
 3674W        W20522  16.410   7.584   3.002  0.3954  0.2278 -0.4195
 3675W        W20523   6.428  13.474   3.677 -0.1725  0.0893 -0.0056
 3676W        W20524   4.934   4.136  16.034  0.1669 -0.1523  0.1829
 3677W        W20525   7.448   0.935  13.788 -0.0538  0.0047 -0.2558
 3678W        W20526   8.573  13.538  14.749  0.2141  0.0399  0.0325
 3679W        W20527  11.857  11.825  15.099 -0.2488  0.3268  0.0861
 3680W        W20528   6.201  15.280   3.841  0.0115 -0.2512 -0.2431
 3681W        W20529  12.784  10.471   5.742 -0.0067 -0.2098  0.2368
 3682W        W20530   8.144  12.731   1.613 -0.2971 -0.1599  0.2622
 3683W        W20531  11.093  12.216  12.900 -0.3758 -0.0391  0.0502
 3684W        W20532   6.556   6.211  14.600  0.2646  0.3743 -0.0344
 3685W        W20533   6.116   6.628  11.399  0.2150 -0.1113 -0.2209
 3686W        W20534   3.158   3.373   2.484  0.2863 -0.1813 -0.1572
 3687W        W20535   7.214  14.016   3.458  0.0801 -0.2709  0.1171
 3688W        W20536  16.269  13.103  14.602  0.1262 -0.0011 -0.0275
 3689W        W20537   9.778  15.713  16.056  0.1479 -0.1299 -0.1158
 3690W        W20538  10.106  17.048   3.930  0.3475 -0.0606  0.2965
 3691W        W20539   7.372  16.264   0.701  0.3042 -0.3196 -0.4089
 3692W        W20540  16.153  12.907   3.551 -0.0334 -0.0944 -0.0759
 3693W        W20541   2.860   4.270   2.763  0.1134 -0.0987 -0.1697
 3694W        W20542   7.837  10.910   1.225  0.1903  0.1112 -0.4079
 3695W        W20543  14.169   8.583   0.625  0.1577  0.1374 -0.2294
 3696W        W20544   2.937  10.419  11.851 -0.0833  0.1625  0.1816
 3697W        W20545   6.977   3.892  12.869  0.4025 -0.2049  0.0295
 3698W        W20546  12.401  17.234  15.206  0.2611 -0.3630 -0.0730
 3699W        W20547   9.831  11.436   2.417 -0.1894  0.2582  0.0344
 3700W        W20548  12.510   5.153  12.042  0.2583 -0.1339 -0.1173
 3701W        W20549  12.357  12.159   1.127 -0.4711  0.2049  0.0530
 3702W        W20550   3.858  14.266  15.215 -0.0216 -0.2254 -0.0207
 3703W        W20551  13.589   8.332  11.301  0.2936 -0.3767  0.1687
 3704W        W20552   7.932  15.074   2.680 -0.1430  0.1252  0.0776
 3705W        W20553  10.177  11.609  14.804 -0.2592 -0.0709  0.3701
 3706W        W20554   2.516  16.916   0.309 -0.2766 -0.1708  0.1860
 3707W        W20555   0.987   0.666   1.485  0.1061  0.1387  0.0435
 3708W        W20556   7.964   4.928   0.607  0.0463  0.0248  0.0670
 3709W        W20557  10.330  17.802   2.107  0.2393 -0.1067  0.1892
 3710W        W20558   2.378  11.497  10.991 -0.0414  0.0354  0.3176
 3711W        W20559   7.181  17.605  14.233 -0.2144  0.0894  0.0298
 3712W        W20560  11.084   4.168   0.184 -0.0275 -0.0318 -0.1182
 3713W        W20561  17.205   4.629  13.903 -0.0230 -0.1015 -0.2770
 3714W        W20562  12.692  15.821  12.531  0.2489 -0.1416  0.3037
 3715W        W20563   3.415   5.437   2.247  0.0836 -0.1951 -0.0323
 3716W        W20564   3.655   3.403   1.803 -0.0989 -0.2070 -0.2845
 3717W        W20565  13.308  12.345   4.528 -0.1693 -0.0277  0.2751
 3718W        W20566  10.405  12.572   0.538  0.1211 -0.0334  0.0006
 3719W        W20567   5.757  16.874  13.669 -0.4134 -0.0835 -0.1527
 3720W        W20568  11.570   0.622   0.463 -0.1630 -0.1078 -0.2368
 3721W        W20569  18.015   4.870  12.699 -0.1118 -0.1550 -0.1334
 3722W        W20570  13.068  13.343  13.783 -0.0868  0.2028 -0.4033
 3723W        W20571   9.855   8.110  16.144  0.1679  0.0648 -0.3957
 3724W        W20572  10.281   4.039  15.543 -0.2578 -0.0720 -0.2154
 3725W        W20573   2.090  14.267  15.613  0.0410 -0.1226 -0.0825
 3726W        W20574  11.229  13.363   1.092 -0.0199 -0.0633  0.2728
 3727W        W20575  15.936   2.647  16.213 -0.1741  0.2970  0.0882
 3728W        W20576  13.061   2.754   2.081  0.3633  0.2778 -0.0361
 3729W        W20577   7.950   3.606  14.503 -0.3052  0.0351 -0.1752
 3730W        W20578   4.317  14.374  11.539 -0.1338  0.0251  0.0494
 3731W        W20579  13.700   5.394   2.025 -0.5874  0.2230 -0.0266
 3732W        W20580  10.762   1.284   0.955  0.1766  0.1193  0.0059
 3733W        W20581   8.789  17.875  12.371 -0.0969  0.3068  0.3424
 3734W        W20582   8.642  16.240   5.395  0.3144  0.1302 -0.4301
 3735W        W20583  12.902  16.090   3.345 -0.0910 -0.1248 -0.2492
 3736W        W20584  12.285  16.766   1.543  0.0761 -0.0038  0.0423
 3737W        W20585   9.565  14.973   0.935  0.0513  0.0872  0.0111
 3738W        W20586   1.189   3.730   1.417  0.2014 -0.3602  0.0519
 3739W        W20587  10.464   4.585  14.993  0.0907  0.0777 -0.0365
 3740W        W20588   2.045   9.612   0.622  0.3125  0.0984 -0.1844
 3741W        W20589   4.330   1.525  12.570  0.2583 -0.2066 -0.2256
 3742W        W20590   3.341  17.085   2.655  0.0352  0.1622 -0.0932
 3743W        W20591  15.098  17.523   3.531  0.0366  0.1000 -0.3081
 3744W        W20592  11.867  12.631  14.113  0.0976 -0.2589 -0.0992
 3745W        W20593   2.839   6.517  13.811 -0.0066  0.3411  0.2740
 3746W        W20594  17.934  11.249  14.402  0.0343 -0.1071 -0.2283
 3747W        W20595   4.343   4.099  11.194  0.1593 -0.4521 -0.2789
 3748W        W20596  11.607   9.988   5.546  0.2406  0.2613  0.3310
 3749W        W20597  15.689   4.466  12.832  0.1528  0.3210  0.0093
 3750W        W20598   8.983  11.524   1.752 -0.1068  0.0366 -0.1314
 3751W        W20599   5.640   8.648   0.556  0.1049 -0.0979 -0.0748
 3752W        W20600  11.868  13.423   1.408 -0.0249  0.2935 -0.0238
 3753W        W20601  15.428   8.081  14.143  0.1270 -0.1998  0.1296
 3754W        W20602  12.593  15.631  11.368  0.1696  0.0995 -0.2376
 3755W        W20603   3.173   3.589  11.253 -0.2816 -0.1143  0.0494
 3756W        W20604  11.862   3.574  15.675 -0.1868  0.1945  0.0383
 3757W        W20605  15.435   8.692  16.262  0.1212 -0.0174  0.2067
 3758W        W20606   9.998  11.141  11.581 -0.1531  0.3887  0.0049
 3759W        W20607   2.990  11.684  12.667  0.2096 -0.0271  0.0377
 3760W        W20608   7.537   7.150   5.579 -0.3983  0.0623  0.1314
 3761W        W20609   2.572   0.445   4.981 -0.0182  0.0981 -0.0445
 3762W        W20610  16.178  14.991   3.250  0.0589 -0.0720  0.2261
 3763W        W20611  15.912  16.660  12.201  0.2323 -0.0373 -0.1557
 3764W        W20612  16.746  16.943   3.019 -0.3204 -0.0820 -0.2846
 3765W        W20613   0.372   3.227  13.252  0.0779 -0.0639 -0.0101
 3766W        W20614   8.038   0.632   6.145  0.1476 -0.0130 -0.4500
 3767W        W20615   5.023   9.442  12.749 -0.0695 -0.0450  0.0280
 3768W        W20616   0.700  10.485  12.374  0.5715 -0.3040  0.0491
 3769W        W20617  16.814  13.206   0.428 -0.0783 -0.1857 -0.1576
 3770W        W20618   6.282  15.081   2.963  0.2319 -0.0266  0.0068
 3771W        W20619   9.956   3.371   1.947 -0.0218 -0.0582  0.2362
 3772W        W20620   5.246   3.118  15.404 -0.0934 -0.1331 -0.0494
 3773W        W20621  12.152  14.618  12.871  0.0221  0.2461  0.0963
 3774W        W20622   1.696   9.501  13.294 -0.0191  0.3591  0.0413
 3775W        W20623   8.204  17.138   5.105 -0.3305  0.0507  0.1830
 3776W        W20624   6.430   4.684  12.541  0.0537  0.2514 -0.0700
 3777W        W20625  11.816   5.955  14.828 -0.0620  0.0325 -0.1249
 3778W        W20626   8.922  11.222   4.732 -0.2704  0.1389 -0.2485
 3779W        W20627   8.071  16.659   4.197  0.1263 -0.0585 -0.0643
 3780W        W20628   1.385  16.943   2.201  0.0576 -0.1051 -0.3558
 3781W        W20629   1.253   5.096   3.924  0.1411 -0.0269  0.0338
 3782W        W20630   7.035  15.366  13.433  0.0491 -0.1678  0.1612
 3783W        W20631  11.455  10.188  11.507  0.1572  0.0002  0.3531
 3784W        W20632  16.871   7.821   1.126  0.0443  0.1369  0.4836
 3785W        W20633   1.952   5.978   0.326  0.0920 -0.0917  0.3922
 3786W        W20634   2.773   0.643  16.023 -0.4064  0.3474 -0.1033
 3787W        W20635   0.645   9.133  10.824  0.1800  0.0885  0.0766
 3788W        W20636   4.625   7.362   2.737  0.3063 -0.1676  0.1677
 3789W        W20637  15.799  15.877   6.084 -0.1116 -0.0757  0.2619
 3790W        W20638   0.739   9.434  14.459  0.2565 -0.2684  0.0695
 3791W        W20639  11.466  16.212   1.386 -0.2723  0.0751 -0.0525
 3792W        W20640  11.933  16.638  15.153 -0.1458 -0.0196  0.2814
 3793W        W20641   7.277   5.686  14.473 -0.3703 -0.1370  0.3320
 3794W        W20642  14.104   0.983   0.069  0.2196  0.2835  0.0333
 3795W        W20643   0.037  13.567  14.324  0.2034  0.2067 -0.0765
 3796W        W20644  15.076  10.879   4.845  0.0971  0.1479 -0.0623
 3797W        W20645  13.820   6.650  12.628  0.1153 -0.0657 -0.1318
 3798W        W20646   3.910   9.215  12.931  0.0648  0.0716 -0.0589
 3799W        W20647  12.816   6.860   3.923 -0.3582 -0.0517  0.0483
 3800W        W20648   8.736  17.924   2.382  0.1388 -0.0361  0.0761
 3801W        W20649   9.456  14.095  14.002  0.1071  0.0123 -0.1534
 3802W        W20650   4.859   4.673  11.727  0.1712 -0.2796 -0.1180
 3803W        W20651  12.398  13.347  12.293  0.2163 -0.1089 -0.3275
 3804W        W20652   0.726   5.920   3.679 -0.2106  0.4606 -0.1437
 3805W        W20653   1.733  13.061   5.533  0.0945  0.1488 -0.0939
 3806W        W20654  10.807  17.980   3.295  0.1534  0.1918 -0.1065
 3807W        W20655  16.339   3.698   0.318  0.1369  0.0797  0.1429
 3808W        W20656   0.009   3.396  12.849 -0.0747 -0.1125  0.3391
 3809W        W20657  15.214  13.461  11.498 -0.0407 -0.2005  0.0565
 3810W        W20658   5.503   2.034   6.023 -0.0561 -0.1382 -0.0702
 3811W        W20659   4.981   1.754  11.226 -0.0547  0.0008  0.3065
 3812W        W20660   6.786  12.721  11.321  0.5672  0.3759 -0.1532
 3813W        W20661   0.366   8.478  11.345 -0.0562 -0.0525  0.4127
 3814W        W20662   2.484  16.284  12.520  0.2442  0.1182 -0.1997
 3815W        W20663   6.730   6.807  15.506 -0.0808 -0.0712  0.0226
 3816W        W20664  12.103  17.585  14.977 -0.2404 -0.0984  0.0644
 3817W        W20665   5.422   6.977   3.352 -0.0862  0.0085  0.3103
 3818W        W20666  17.608   2.315   1.445  0.0157 -0.0693  0.1254
 3819W        W20667   1.544  14.166   3.789 -0.0253 -0.0724  0.1818
 3820W        W20668   8.224  11.475   5.345  0.0698 -0.0737 -0.2379
 3821W        W20669  13.172  16.118   0.493 -0.2888 -0.0715 -0.1556
 3822W        W20670   3.731   7.764  14.916 -0.1690  0.0537  0.1390
 3823W        W20671   6.220   2.363   4.703 -0.1218  0.1412 -0.1315
 3824W        W20672   9.580  13.611   1.073 -0.1792  0.1685 -0.0760
 3825W        W20673  15.112  11.611  13.751 -0.0257  0.2099  0.4260
 3826W        W20674   3.371   5.674   3.339 -0.1679 -0.2184 -0.2108
 3827W        W20675   9.411   1.624  15.300  0.1784 -0.3675 -0.2865
 3828W        W20676  10.224   8.939  15.882  0.1046 -0.1421  0.2156
 3829W        W20677  16.351   9.487  10.765 -0.0805 -0.2189 -0.0150
 3830W        W20678   4.664   6.610  11.897  0.0626 -0.1209  0.0500
 3831W        W20679   1.722   2.905   4.216  0.0686 -0.2018  0.2158
 3832W        W20680  17.675   4.647  11.293 -0.2528 -0.1533 -0.0607
 3833W        W20681  16.568   2.341   0.395  0.1422  0.2375 -0.0475
 3834W        W20682   3.404   5.510   2.836 -0.1503  0.3668  0.0230
 3835W        W20683  11.315  15.728  13.607 -0.1445  0.0677 -0.1077
 3836W        W20684  17.153  11.696  12.238  0.1296 -0.0588 -0.0602
 3837W        W20685  12.200   1.704  13.903 -0.0198  0.0669  0.0184
 3838W        W20686  12.429   9.958   2.580  0.1150 -0.0143  0.2964
 3839W        W20687  15.220   3.370  16.201  0.2881  0.4364  0.0460
 3840W        W20688   2.094   5.502  13.178 -0.2309 -0.2103 -0.0340
 3841W        W20689  15.098   7.180  11.359 -0.0663  0.2945  0.1156
 3842W        W20690  12.194  16.203   5.662 -0.0047 -0.2110  0.2021
 3843W        W20691   1.059  12.783  15.322 -0.1130  0.1454 -0.0517
 3844W        W20692   6.801  14.486  14.553  0.1400 -0.0239 -0.3728
 3845W        W20693   3.159   2.158  13.399  0.0612  0.4033  0.1667
 3846W        W20694  12.175   2.787  14.121  0.1312 -0.0717 -0.0796
 3847W        W20695  14.942   1.112  15.819 -0.0818  0.0890 -0.1472
 3848W        W20696   5.384  12.174   0.642 -0.0919 -0.2067  0.2681
 3849W        W20697  12.414   2.552   3.656  0.0787  0.1231 -0.1015
 3850W        W20698   7.048   9.672   2.519 -0.0964 -0.0338  0.1398
 3851W        W20699  10.253  10.284  11.241 -0.0164  0.0349 -0.1420
 3852W        W20700  15.953   2.529   4.552 -0.0619  0.0894  0.0347
 3853W        W20701  11.537  15.799  12.484  0.2961  0.0352 -0.1091
 3854W        W20702  14.798   0.647  15.330 -0.0546 -0.1459  0.3089
 3855W        W20703  15.027  12.625   3.620 -0.0928 -0.0349 -0.0254
 3856W        W20704  14.213   5.834   3.800 -0.0730 -0.0504 -0.0683
 3857W        W20705  15.934  17.421  11.656 -0.3643 -0.1299 -0.1024
 3858W        W20706  13.780   4.874  11.948  0.0633 -0.0915  0.5836
 3859W        W20707  11.787   3.680  14.396 -0.0855 -0.1365  0.1912
 3860W        W20708  16.540   8.356  15.422  0.1244 -0.0578 -0.1480
 3861W        W20709  12.401   4.591   0.597 -0.0728 -0.1476  0.0454
 3862W        W20710   5.059   6.948  14.133  0.1398  0.1015 -0.0453
 3863W        W20711  12.276  14.834   0.023  0.1660 -0.0192  0.0806
 3864W        W20712   4.297   9.175   3.220  0.1158  0.0578 -0.1170
 3865W        W20713  16.329   3.863  12.994  0.2031 -0.1772  0.1805
 3866W        W20714   0.380   0.534   1.388  0.2306  0.0269 -0.3417
 3867W        W20715  15.446  17.792   3.297  0.0747  0.2936 -0.2466
 3868W        W20716   6.572   7.837  12.557 -0.4662 -0.1360 -0.0383
 3869W        W20717  11.544   1.399   2.424 -0.0691 -0.1454 -0.2246
 3870W        W20718  11.651   5.041   1.885  0.0815  0.1556  0.1986
 3871W        W20719   9.039  15.490   0.579  0.2587  0.2643 -0.3290
 3872W        W20720   4.868   9.035  10.863 -0.2278  0.2216 -0.0660
 3873W        W20721  10.541   1.269  15.419  0.3888  0.0565 -0.5005
 3874W        W20722   4.715   8.917   2.446  0.3811  0.3458 -0.1678
 3875W        W20723   9.821  17.533   1.467  0.1312 -0.1018 -0.0325
 3876W        W20724   1.815  10.080  12.991 -0.0340 -0.2768  0.1058
 3877W        W20725  11.703   9.483   0.051 -0.2395  0.3045 -0.1964
 3878W        W20726   4.466  15.900  14.201 -0.1423  0.2633  0.3269
 3879W        W20727   8.197  15.596  13.026 -0.0551  0.0062  0.0870
 3880W        W20728   6.459   6.312   2.521  0.0336  0.1833 -0.2166
 3881W        W20729   2.918  12.591  15.362 -0.0393  0.1504 -0.3203
 3882W        W20730   4.753   8.224  11.072  0.1501 -0.1001  0.3202
 3883W        W20731  12.651   5.520   1.427 -0.2143  0.0439  0.3313
 3884W        W20732   5.514  12.920   0.526 -0.2024  0.0142  0.1600
 3885W        W20733   7.275  14.809   4.495 -0.0285 -0.0557 -0.0626
 3886W        W20734  11.659   5.832  15.637  0.0239 -0.0820 -0.2069
 3887W        W20735  17.550   4.008   2.329  0.2381 -0.2802 -0.0448
 3888W        W20736  16.156   9.355   2.492 -0.0444 -0.0375 -0.0377
 3889W        W20737   0.837  16.158  12.171 -0.0755 -0.3381  0.2992
 3890W        W20738  12.473  18.042   0.924 -0.0993 -0.2829  0.2014
 3891W        W20739   2.852   5.421  11.877  0.1774  0.1914  0.0700
 3892W        W20740  13.761  15.441   4.169  0.1789 -0.2380 -0.2428
 3893W        W20741  17.258   9.138   5.506  0.2817 -0.1274  0.1454
 3894W        W20742   5.386   2.376   6.453  0.2045  0.1270 -0.0154
 3895W        W20743  17.991  14.959  13.173  0.1636 -0.2524 -0.2384
 3896W        W20744   2.936   9.541   2.456  0.2309  0.3953  0.2274
 3897W        W20745   0.299   1.137   0.737 -0.2692 -0.0706  0.0649
 3898W        W20746  15.321   5.770  15.026 -0.3205  0.0526  0.0288
 3899W        W20747   6.020   4.635  12.244  0.1006  0.1052  0.0682
 3900W        W20748  12.367   3.753  14.967  0.0079 -0.1403  0.0059
 3901W        W20749  15.105  17.570   4.572 -0.2192  0.1913  0.0665
 3902W        W20750   4.931  11.831   3.592  0.0233 -0.0501 -0.0623
 3903W        W20751   3.711   4.331  14.113 -0.2471 -0.1421 -0.0343
 3904W        W20752   1.230   6.845   1.154 -0.1405 -0.2865 -0.1260
 3905W        W20753  11.361   1.467  14.340 -0.1049  0.0702 -0.0602
 3906W        W20754   6.017  18.013   5.346  0.2599 -0.2078  0.0894
 3907W        W20755   0.006  11.441  13.714  0.0631  0.1823 -0.2682
 3908W        W20756  11.086   1.614  12.776  0.0419 -0.2230  0.1591
 3909W        W20757   6.046   6.234   1.811 -0.0350 -0.2264  0.1863
 3910W        W20758   8.158  13.336  11.872 -0.2705 -0.3718 -0.4330
 3911W        W20759  13.353  13.159  15.113  0.2565 -0.0280 -0.1180
 3912W        W20760   2.539  11.855  12.364  0.0053  0.1850  0.1913
 3913W        W20761   8.032  12.097  15.825  0.1610  0.0196 -0.1396
 3914W        W20762   8.099  14.004   2.082 -0.0566  0.2995  0.0438
 3915W        W20763   0.044   3.253  11.608  0.0179  0.3361  0.0800
 3916W        W20764  13.205  13.693   2.126  0.0749  0.0017  0.0599
 3917W        W20765   5.633  11.987   2.889  0.3301  0.0250 -0.1635
 3918W        W20766   0.411   7.911  12.508  0.0447  0.0886  0.1052
 3919W        W20767  11.259   3.495  15.435 -0.1001  0.1426 -0.3224
 3920W        W20768  15.309  13.974  11.380 -0.2296  0.1661  0.1690
 3921W        W20769  13.221  13.010   0.031 -0.1623 -0.0543  0.2338
 3922W        W20770  12.404   2.044  10.610  0.0977  0.2327 -0.0721
 3923W        W20771   2.773   9.596   4.925  0.0051  0.0018 -0.3266
 3924W        W20772   0.070  13.995   0.788  0.1283  0.1076  0.1152
 3925W        W20773  12.228   2.908  12.652  0.0817  0.2292 -0.3175
 3926W        W20774   4.659   7.001  12.170  0.0301  0.0261  0.1884
 3927W        W20775  14.111   4.336   4.711 -0.1234  0.0074 -0.1442
 3928W        W20776  13.593  14.380   4.641 -0.0706 -0.0423 -0.1960
 3929W        W20777  10.432   0.390  12.497  0.1349 -0.0114 -0.1209
 3930W        W20778  16.715  15.816  15.769  0.0997  0.3282  0.1151
 3931W        W20779   7.679  14.992   3.111  0.2887  0.2210  0.1747
 3932W        W20780   8.335   7.762  13.384  0.0406  0.0473 -0.4844
 3933W        W20781  14.938  12.909   2.248 -0.1376  0.0276 -0.0820
 3934W        W20782   6.437  10.621   0.266 -0.1875  0.3432 -0.0426
 3935W        W20783   9.926  10.941   2.632 -0.0043 -0.3095  0.2507
 3936W        W20784   8.202   4.437   6.209  0.0668  0.3567 -0.0523
 3937W        W20785   7.638  17.514   3.853  0.3124  0.3593 -0.1428
 3938W        W20786   2.696  17.242   4.238  0.3650  0.0647  0.1497
 3939W        W20787   3.103   1.005  12.427 -0.4258 -0.2495  0.0327
 3940W        W20788  11.764   0.396   4.639 -0.0514 -0.0069  0.0965
 3941W        W20789   2.877   5.684  13.026  0.0238 -0.3454 -0.0562
 3942W        W20790  14.017   8.009   4.935 -0.0819  0.0321  0.0274
 3943W        W20791   8.947   6.997   0.287 -0.3955  0.0608 -0.0530
 3944W        W20792   1.278  11.181  14.585 -0.1101  0.2151  0.1143
 3945W        W20793   8.433  10.231   4.668  0.4956 -0.2211 -0.1221
 3946W        W20794   6.935   8.664  13.518  0.1703 -0.2582 -0.2456
 3947W        W20795  14.585  11.948  11.868  0.1477  0.0331  0.1531
 3948W        W20796   5.799   3.723  16.022  0.0296  0.0072 -0.0882
 3949W        W20797  13.716  17.962  13.854 -0.1234  0.0722  0.3210
 3950W        W20798   3.052  11.830   2.402  0.3802  0.1771  0.5362
 3951W        W20799   2.008   4.469  14.892 -0.0740  0.2605 -0.3115
 3952W        W20800   4.462  16.170  15.502 -0.3217  0.0583 -0.0117
 3953W        W20801  15.390   8.913   1.239 -0.0580  0.1767  0.0702
 3954W        W20802   5.677   0.129  14.858  0.2446  0.0370 -0.4622
 3955W        W20803   3.170   5.990  12.651 -0.4608  0.0399  0.2007
 3956W        W20804   5.058   4.176  11.681  0.1628 -0.0867  0.1458
 3957W        W20805   7.165   7.571   3.414  0.1298  0.0039  0.0019
 3958W        W20806   6.781  16.301   1.346 -0.2639  0.0063  0.1144
 3959W        W20807   8.542   3.749  11.525  0.0222  0.1931 -0.0417
 3960W        W20808   2.483  14.009  11.664  0.0385 -0.1942 -0.1320
 3961W        W20809  13.598  10.274   0.110 -0.0571 -0.1615  0.4338
 3962W        W20810  10.724  13.030   6.207  0.0582  0.2440 -0.2334
 3963W        W20811  16.919   1.247   2.911  0.0268  0.1875  0.1435
 3964W        W20812  11.426   8.017   5.163 -0.1118  0.0140 -0.0957
 3965W        W20813   4.109   4.223  15.537  0.1213 -0.2411  0.0496
 3966W        W20814  12.093  13.108   1.824  0.1242  0.1183  0.1487
 3967W        W20815   6.560   8.022  14.355 -0.0543 -0.0917  0.2057
 3968W        W20816   7.794   4.755  11.989  0.1016  0.3634  0.0720
 3969W        W20817  17.394  17.477   3.004  0.2910 -0.2953 -0.0274
 3970W        W20818   4.031  11.330   2.277  0.1126  0.0825  0.1801
 3971W        W20819  17.914  11.646  16.017 -0.0564  0.2602  0.0547
 3972W        W20820  17.619   3.651   4.640  0.0546 -0.1198  0.1856
 3973W        W20821  11.494   3.786   2.115  0.1679  0.0950 -0.0339
 3974W        W20822  14.035   6.889   3.029 -0.0824  0.1451  0.0727
 3975W        W20823   4.767  12.790   3.540  0.2416  0.2702 -0.3516
 3976W        W20824   5.889  12.117   1.830  0.1359 -0.3583  0.0497
 3977W        W20825  16.543  10.844   3.438 -0.1159  0.0042  0.2764
 3978W        W20826   1.039  16.493  14.780  0.0104  0.2530 -0.0982
 3979W        W20827   2.784   7.953  11.642 -0.1341  0.1045  0.1996
 3980W        W20828  12.331   9.053   1.975 -0.0033 -0.2716 -0.0212
 3981W        W20829   3.469   3.793  14.425 -0.0878  0.1070  0.1599
 3982W        W20830   0.407   8.962  14.046 -0.3052 -0.0101  0.0607
 3983W        W20831  15.812   5.548  15.096  0.0204 -0.2807 -0.0447
 3984W        W20832   9.201  15.002  13.251 -0.0712  0.0853  0.2425
 3985W        W20833   0.852   2.093   5.340  0.0725 -0.1138 -0.0003
 3986W        W20834   4.536  17.093  12.456  0.0657 -0.4528  0.2694
 3987W        W20835  10.182  15.139   4.300 -0.0135 -0.1626  0.2572
 3988W        W20836  17.073   0.733  14.409  0.1718  0.0237 -0.1102
 3989W        W20837   3.684   7.476   4.685 -0.0151 -0.0104 -0.1382
 3990W        W20838   9.574   1.837   2.333  0.3964  0.1081 -0.0153
 3991W        W20839  12.803   1.387  15.255  0.0046  0.2415  0.0379
 3992W        W20840  10.583  13.758  15.744 -0.0392  0.5582  0.2988
 3993W        W20841   5.703   1.001   2.239  0.2461 -0.3580  0.0282
 3994W        W20842  18.000  10.427   3.484 -0.1714 -0.1325  0.1301
 3995W        W20843  10.397   7.856   3.214 -0.0238  0.1109 -0.0871
 3996W        W20844  14.197   1.557  15.369 -0.1597  0.3217  0.0975
 3997W        W20845   5.911  13.458   5.229  0.1399 -0.2568  0.0848
 3998W        W20846   7.832  16.331   1.658 -0.0190 -0.0676  0.1474
 3999W        W20847   0.073   5.000   2.219 -0.0129  0.1037  0.2081
 4000W        W20848   0.517   7.102  15.200 -0.2026  0.0287 -0.0267
 4001W        W20849   1.638   9.755   0.338 -0.2904 -0.2132 -0.1783
 4002W        W20850  11.880   0.594  12.209  0.0310 -0.0470 -0.1342
 4003W        W20851   3.769   7.421   2.311  0.3341  0.0632  0.0301
 4004W        W20852  17.607  12.016  14.402 -0.0066  0.0819  0.0703
 4005W        W20853   9.446   3.525   3.669 -0.1865  0.0468  0.0362
 4006W        W20854  11.289   6.614   1.110 -0.0563 -0.2283 -0.2304
 4007W        W20855  12.255   5.049  14.124  0.0271  0.1609 -0.2073
 4008W        W20856   9.098  14.137  13.112 -0.3791 -0.2081 -0.1385
 4009W        W20857  14.434   7.394  10.816 -0.0693 -0.3664 -0.0466
 4010W        W20858  12.069  13.164  14.046  0.0051  0.1397 -0.3183
 4011W        W20859   1.801   5.815  14.357 -0.0339 -0.0699 -0.1263
 4012W        W20860  15.643  10.977   0.515 -0.1645 -0.1083  0.0957
 4013W        W20861  15.721   2.424   2.222 -0.1045  0.0276  0.1454
 4014W        W20862   9.404   9.263   2.544  0.0010  0.0075 -0.2453
 4015W        W20863   6.512  14.557  14.951 -0.0245  0.4056  0.1444
 4016W        W20864   9.069  16.804   5.812  0.2340 -0.0085 -0.1967
 4017W        W20865   1.558  11.386   0.509  0.2512 -0.0719 -0.0159
 4018W        W20866  17.006   3.374  11.299  0.2184 -0.0972  0.0418
 4019W        W20867   4.919   1.841   3.979 -0.2504  0.1222  0.0025
 4020W        W20868   0.997   6.196   3.328  0.1001 -0.1199 -0.2795
 4021W        W20869   4.253  10.862  16.144  0.0397  0.2652  0.2762
 4022W        W20870  14.839   3.029   4.012  0.0305  0.1674  0.1764
 4023W        W20871  13.529  15.140  12.987 -0.0087  0.0145 -0.0947
 4024W        W20872   8.159  15.428   5.758 -0.1144 -0.0993 -0.0951
 4025W        W20873  16.023  14.951  15.924  0.1474 -0.1383  0.1087
 4026W        W20874  14.569   1.520  10.420  0.0042 -0.3705 -0.3975
 4027W        W20875  14.031   6.837  13.877  0.1303 -0.1743 -0.0782
 4028W        W20876   2.752   4.537   4.910  0.2806  0.3161  0.0579
 4029W        W20877  16.412  16.691   3.449 -0.0872  0.1497  0.0772
 4030W        W20878   9.900  15.451   4.049 -0.0531 -0.0187  0.2884
 4031W        W20879   7.245  13.806  14.445  0.0307 -0.1022 -0.0921
 4032W        W20880   5.023  16.550   2.033 -0.0950  0.1398 -0.3995
 4033W        W20881   4.241  10.339   5.334  0.1115 -0.0112 -0.1225
 4034W        W20882   3.484   0.589  11.442  0.0793 -0.1697 -0.0925
 4035W        W20883   2.858  17.820   3.637 -0.0436  0.0425 -0.0618
 4036W        W20884   9.822  13.851  13.486 -0.0436  0.0646  0.5517
 4037W        W20885  13.280   1.829   3.059 -0.0321 -0.0482 -0.0165
 4038W        W20886   4.393  14.137  15.834 -0.2593  0.0576  0.0342
 4039W        W20887  17.482  11.625  11.206 -0.0962 -0.0321  0.1576
 4040W        W20888  10.193   8.658   2.668 -0.0585  0.4719 -0.1467
 4041W        W20889  16.529   5.020   3.329 -0.1663 -0.2896 -0.1624
 4042W        W20890  12.032  17.528  14.116 -0.0464  0.0262  0.0379
 4043W        W20891   9.962  15.146   3.294  0.4319 -0.0412  0.4556
 4044W        W20892   5.014  10.775   4.390 -0.0506  0.4139 -0.0744
 4045W        W20893  15.478  14.745  12.166  0.1656  0.0495 -0.0579
 4046W        W20894  17.015   4.174  13.476 -0.2037 -0.2007 -0.1030
 4047W        W20895  17.279   4.575   3.830 -0.0580  0.1872 -0.0222
 4048W        W20896   4.185  13.159  14.546  0.2463 -0.2523  0.1200
 4049W        W20897   0.284  14.758   1.893 -0.1323 -0.0462 -0.2446
 4050W        W20898   4.073   7.720   2.095 -0.1022  0.0656 -0.3463
 4051W        W20899  17.643  16.519   4.595  0.3940  0.3899 -0.0356
 4052W        W20900   4.038   1.219  15.229 -0.0303 -0.0302  0.2694
 4053W        W20901   8.924   5.521  11.550 -0.1234 -0.0322 -0.4443
 4054W        W20902  18.034   0.846  11.446  0.3599 -0.1019  0.1220
 4055W        W20903   1.784   0.464   3.978 -0.1099 -0.1618  0.0162
 4056W        W20904   8.267   2.168  14.358 -0.1824  0.1901 -0.0134
 4057W        W20905   9.753   5.609   0.762 -0.1456  0.2476 -0.3665
 4058W        W20906  10.233   7.396  14.699 -0.0008 -0.0713  0.1072
 4059W        W20907   0.764  12.088   1.772  0.0142 -0.1166 -0.3060
 4060W        W20908   0.953   6.450   0.935  0.4488  0.1222 -0.4059
 4061W        W20909   5.101  11.844   1.050  0.1495  0.1444  0.0588
 4062W        W20910  18.038   3.775   5.091 -0.0214  0.1530  0.2551
 4063W        W20911  17.665   4.030  16.058  0.0060  0.0616  0.0628
 4064W        W20912   4.895   4.744   2.417  0.1869 -0.0155 -0.0702
 4065W        W20913   8.876   4.700  11.755  0.0282  0.2586  0.4676
 4066W        W20914   5.220  10.935   0.048 -0.0807 -0.1504  0.3424
 4067W        W20915   1.965  10.986   3.543 -0.0090  0.0989  0.2856
 4068W        W20916  11.015  12.203  15.350  0.3345 -0.1974  0.0729
 4069W        W20917   2.990  13.796   3.097  0.4737 -0.0252  0.0287
 4070W        W20918   1.219   6.023   2.856  0.0118 -0.2239  0.1500
 4071W        W20919   6.952  14.075  12.591  0.2040  0.1002  0.1223
 4072W        W20920   1.982  16.748   2.602  0.5062 -0.0035  0.1292
 4073W        W20921  15.426   9.074  15.120  0.1107  0.0970 -0.0333
 4074W        W20922  11.879  14.000   3.871  0.3206  0.1781  0.1472
 4075W        W20923   4.429  13.521  10.479 -0.0658 -0.0941  0.1012
 4076W        W20924  14.084   2.875   3.451  0.1827  0.1147 -0.0398
 4077W        W20925  17.605   9.730   1.830 -0.1056 -0.0908 -0.0631
 4078W        W20926   3.570  11.875   4.767  0.3390 -0.1098  0.2335
 4079W        W20927  12.227   2.084   4.977 -0.0213  0.0504  0.2585
 4080W        W20928  13.049  11.783   0.889  0.0375 -0.2438  0.2189
 4081W        W20929   1.147  12.856   1.408 -0.2273  0.0011 -0.2617
 4082W        W20930   5.741   1.876   2.542  0.1147 -0.4005  0.0624
 4083W        W20931   8.059   7.481  14.360 -0.2893  0.1479 -0.0823
 4084W        W20932   6.253  13.476   0.458 -0.0490 -0.1282 -0.0560
 4085W        W20933  13.733   6.412  13.865  0.1471 -0.0949  0.1289
 4086W        W20934  11.703   7.278  11.386 -0.1393  0.2572  0.0556
 4087W        W20935  16.863  14.857  14.999  0.3327 -0.0224  0.1477
 4088W        W20936  12.942   5.143   4.245  0.1269  0.0566 -0.3539
 4089W        W20937   2.480  16.758  13.237 -0.3984  0.2165  0.0875
 4090W        W20938   1.616   6.581  13.240  0.0727  0.2065 -0.3073
 4091W        W20939  12.034   3.138   2.015  0.1985  0.2063 -0.1638
 4092W        W20940   5.870   7.951   5.033  0.4599 -0.0646 -0.1159
 4093W        W20941   8.564   0.455   3.002  0.0514  0.0127 -0.2189
 4094W        W20942   5.021   0.494  14.400 -0.0187  0.0445  0.1934
 4095W        W20943  12.871  10.511  13.636  0.2834 -0.2724 -0.0328
 4096W        W20944  10.354   7.641  16.115 -0.1978 -0.1379 -0.3314
 4097W        W20945  17.393  17.986  14.100 -0.0861 -0.2936  0.0144
 4098W        W20946  12.596  14.909   5.487 -0.0007  0.0872 -0.4277
 4099W        W20947  11.429  15.213  16.046  0.1660  0.0128 -0.0690
 4100W        W20948  13.277   1.750  14.510 -0.0952 -0.0564  0.2251
 4101W        W20949   4.045  10.366   2.193 -0.1536  0.0720  0.0308
 4102W        W20950   8.387  11.817   5.619 -0.0951 -0.0829 -0.2679
 4103W        W20951  16.572  11.966  11.690  0.2045 -0.1637  0.1169
 4104W        W20952  16.693  10.899  10.624  0.0737  0.2987 -0.1679
 4105W        W20953   5.382  13.578   5.308  0.1184 -0.0522  0.0575
 4106W        W20954   2.327  15.947  11.840  0.2610 -0.0319 -0.3069
 4107W        W20955   8.177  12.879  11.744 -0.1284  0.2225  0.3189
 4108W        W20956   8.236   7.588   2.687 -0.0297 -0.1578 -0.0026
 4109W        W20957  14.632   4.523   2.040  0.2499 -0.0605 -0.2540
 4110W        W20958  10.656   5.844  16.119  0.1762  0.1978 -0.5976
 4111W        W20959  11.097  14.675  11.956 -0.0389  0.0325  0.3715
 4112W        W20960   0.248   5.462   4.237  0.3650  0.1115  0.1322
 4113W        W20961   8.989  12.048   0.131 -0.0359 -0.2878 -0.0401
 4114W        W20962   0.457  10.592  10.897 -0.2122  0.1605  0.1614
 4115W        W20963   6.417  10.038   2.762  0.1309  0.1068 -0.0157
 4116W        W20964  17.338  17.991   1.135 -0.1580  0.1406 -0.2247
 4117W        W20965  17.596   2.402   0.890  0.0849 -0.1635  0.4626
 4118W        W20966  15.058  11.030  11.533  0.0174  0.2851  0.1832
 4119W        W20967  16.642   2.419  14.490  0.0106  0.3206  0.0510
 4120W        W20968   3.636  16.470   5.049 -0.0184 -0.0029 -0.1511
 4121W        W20969   8.237   7.962  11.302 -0.0077 -0.3216 -0.2894
 4122W        W20970   2.830   2.143  15.749 -0.2777 -0.0246  0.2120
 4123W        W20971   7.890   0.657  12.436  0.0811  0.1425  0.1402
 4124W        W20972  16.946   3.915  11.272  0.0564  0.1837  0.3794
 4125W        W20973   9.174   7.382   3.699  0.0925 -0.2474 -0.0290
 4126W        W20974  13.626  12.588   1.790 -0.2876 -0.0206 -0.3540
 4127W        W20975  15.824  11.365   9.987  0.0972  0.1355 -0.1414
 4128W        W20976  16.428  13.006  12.858 -0.0621 -0.1684 -0.0457
 4129W        W20977   8.232  11.854  11.178  0.1976  0.1321 -0.0014
 4130W        W20978  17.231  13.550   0.477 -0.2111 -0.1549  0.0528
 4131W        W20979  15.103  17.079   4.734  0.2226  0.2002 -0.0456
 4132W        W20980   8.416  17.005  13.583 -0.0608  0.2870 -0.0271
 4133W        W20981   4.083   3.177  13.162 -0.3446 -0.0201 -0.2596
 4134W        W20982   3.391  14.472  16.067  0.0519  0.2114 -0.0190
 4135W        W20983   1.032   8.045  11.845 -0.0470  0.2715  0.2384
 4136W        W20984   0.615   2.475   1.363 -0.2592 -0.0691 -0.3357
 4137W        W20985  11.633  11.425   4.120 -0.0249 -0.3454 -0.0218
 4138W        W20986  14.690  12.327   2.944  0.1523  0.2662  0.1024
 4139W        W20987  15.190  16.613   1.977 -0.0097  0.2417 -0.1450
 4140W        W20988   5.255   3.754   0.162 -0.1772  0.0025  0.2368
 4141W        W20989   5.833  10.301   3.508  0.1979 -0.0907  0.0183
 4142W        W20990   8.723   6.245   0.743 -0.0340  0.1713 -0.1239
 4143W        W20991   3.128   1.515   0.749 -0.0056 -0.0844 -0.0412
 4144W        W20992   6.320  12.702  13.940 -0.1331  0.0475  0.0394
 4145W        W20993  10.592   8.054   1.856  0.1099 -0.0130 -0.1513
 4146W        W20994   5.005   9.295  13.379  0.1051  0.2909 -0.0650
 4147W        W20995  10.491   6.789  15.629 -0.1074 -0.0921  0.0035
 4148W        W20996   1.044  17.385   2.435 -0.3029 -0.3404  0.2638
 4149W        W20997   7.879   6.573   4.388  0.0635  0.0359 -0.0239
 4150W        W20998   8.495   2.000  11.407 -0.1611  0.0728  0.3227
 4151W        W20999   5.135   1.141   1.562  0.1867  0.2350 -0.1074
 4152W        W21000  12.313  15.951   0.170  0.0154 -0.1437 -0.1225
 4153W        W21001   4.541   3.257  14.537  0.0588 -0.2050 -0.1799
 4154W        W21002  17.763   3.090  12.548  0.0499  0.3033 -0.0299
 4155W        W21003  13.643   7.503  11.333 -0.1394  0.0004 -0.0732
 4156W        W21004  17.481   3.076   2.131  0.2695  0.0178 -0.1081
 4157W        W21005   4.338   4.314  14.970  0.1194 -0.2490 -0.0985
 4158W        W21006   4.639  14.009  16.258  0.0149 -0.0339 -0.2557
 4159W        W21007   0.417   9.527   0.476  0.4157 -0.0269 -0.1380
 4160W        W21008   1.229   1.505   2.783 -0.1244 -0.0282 -0.1244
 4161W        W21009   6.191  17.712  14.140  0.1127 -0.2015 -0.0902
 4162W        W21010  14.553  17.441  15.049  0.0203  0.0975  0.1597
 4163W        W21011  16.223  11.596   1.913 -0.0222 -0.0830  0.2516
 4164W        W21012   8.747   9.534  12.446  0.0111 -0.0665 -0.0084
 4165W        W21013  16.160   6.469  12.461 -0.5343 -0.1147  0.1011
 4166W        W21014   5.850   7.688   0.408  0.2589 -0.3090  0.1387
 4167W        W21015   9.711   4.675   1.897  0.1972  0.0748  0.2892
 4168W        W21016   3.103  15.061  12.657 -0.0042 -0.1065  0.1000
 4169W        W21017   7.969   0.087  15.513 -0.0530 -0.2923  0.0395
 4170W        W21018  14.683   9.390  12.515 -0.1343  0.1238  0.4204
 4171W        W21019  17.888  16.829  13.562 -0.1355  0.1543 -0.0271
 4172W        W21020   2.015   5.604   4.302 -0.0194  0.0788 -0.0613
 4173W        W21021   3.937  11.520   4.793  0.0507 -0.1355  0.1598
 4174W        W21022   8.884  15.084   1.539  0.0398  0.1315 -0.1456
 4175W        W21023  13.336   2.688  14.775  0.0880  0.0266 -0.0936
 4176W        W21024  12.765  10.967   1.046 -0.0137  0.1163 -0.0638
 4177W        W21025   4.717   7.898   2.617 -0.0849  0.1346 -0.4068
 4178W        W21026   9.729  13.807  14.912 -0.1903 -0.3310  0.1223
 4179W        W21027   5.493   6.028  15.523  0.0018  0.1437  0.3597
 4180W        W21028   3.229   2.677  13.194  0.2065  0.0095  0.0877
 4181W        W21029   9.613   0.420   2.807  0.2164 -0.0721  0.0226
 4182W        W21030   9.502  11.036  14.380 -0.0670  0.1446 -0.0152
 4183W        W21031  14.729   1.576  15.048  0.1201  0.0717  0.1252
 4184W        W21032  12.490  11.860   1.467  0.0089  0.1180  0.0585
 4185W        W21033  12.297   4.042   5.637  0.0674  0.2114 -0.1107
 4186W        W21034   4.422  12.746  14.766  0.3489 -0.2285  0.0648
 4187W        W21035  15.266   2.038   1.803 -0.0745 -0.1409  0.0561
 4188W        W21036   9.161  10.901  11.471 -0.0978  0.1762 -0.1402
 4189W        W21037   4.561  15.028   3.043  0.0897 -0.1089  0.0419
 4190W        W21038  14.617  11.107   3.399  0.0235  0.0283 -0.1333
 4191W        W21039   6.878   2.703  12.024  0.0171  0.3378 -0.2819
 4192W        W21040   7.488   8.342   4.550 -0.0040  0.1082 -0.1590
 4193W        W21041   2.182   2.640   0.782 -0.2524  0.0781  0.0088
 4194W        W21042  11.989  14.456  15.182 -0.0982 -0.2301  0.1402
 4195W        W21043   4.595  13.883  12.437  0.1861  0.0529  0.0751
 4196W        W21044   7.602  10.784   4.562  0.1339  0.2231  0.2958
 4197W        W21045  11.770   7.924  10.717 -0.1978 -0.0584 -0.0854
 4198W        W21046  15.627   8.351  15.920 -0.2614 -0.0328 -0.1343
 4199W        W21047  10.371  17.711  13.906  0.2488 -0.0275 -0.2550
 4200W        W21048  10.691   4.464   4.538  0.0943 -0.1965 -0.1781
 4201W        W21049   5.628  14.128  14.572  0.1289  0.1542  0.0516
 4202W        W21050  13.199   4.097   1.891 -0.1819 -0.0314  0.2544
 4203W        W21051   2.729  12.750  11.475  0.0170 -0.2150 -0.1011
 4204W        W21052  10.742  14.063   4.832  0.0698 -0.3503  0.0397
 4205W        W21053   7.754  15.909  11.917  0.0634  0.3668  0.0461
 4206W        W21054  16.751   5.237  13.089 -0.1469 -0.3260  0.0508
 4207W        W21055   2.620   0.173   3.433 -0.0207  0.1023 -0.2822
 4208W        W21056   0.397  17.001  12.390  0.0233  0.1348  0.0091
 4209W        W21057  17.925   2.550  13.895 -0.1789 -0.1151  0.0783
 4210W        W21058   1.707  17.143  15.922  0.0583 -0.2239  0.0555
 4211W        W21059   7.586   6.891  11.683  0.0525  0.1177 -0.1424
 4212W        W21060  10.567  17.309  16.209  0.1427  0.1928 -0.0114
 4213W        W21061  14.319  16.198   4.505 -0.0650  0.0026 -0.1619
 4214W        W21062   1.101  11.635  14.740 -0.1071  0.3250  0.3094
 4215W        W21063  16.222   1.605   3.194 -0.1587  0.0032 -0.1348
 4216W        W21064  12.344  16.450   0.244 -0.1119 -0.0119 -0.3910
 4217W        W21065   3.719   1.533  15.079 -0.1314  0.0571  0.0580
 4218W        W21066  15.034  17.826  11.815 -0.3839  0.0949 -0.2100
 4219W        W21067   8.124  11.863   0.465 -0.0130 -0.3455 -0.1806
 4220W        W21068   7.606   6.260   2.773 -0.2743 -0.1563  0.1959
 4221W        W21069  13.197  12.786  15.503  0.1071 -0.0141 -0.0033
 4222W        W21070  17.039   4.908  12.813 -0.0707  0.3936 -0.2688
 4223W        W21071  16.749  11.862   0.044 -0.1201 -0.0353  0.0310
 4224W        W21072  12.209   8.157  12.747 -0.1647  0.1000 -0.0487
 4225W        W21073  11.462  11.888   1.868  0.0293 -0.1837 -0.3042
 4226W        W21074   8.524   1.662   3.626  0.1436  0.3523  0.1397
 4227W        W21075   5.036   0.927  12.690  0.0578  0.1389  0.1259
 4228W        W21076  13.507   6.777   0.661 -0.0689 -0.2421 -0.0957
 4229W        W21077   3.462  12.604  14.984 -0.0837  0.1666 -0.3242
 4230W        W21078  11.435   9.844   3.971 -0.0166 -0.0711  0.4595
 4231W        W21079  13.180   6.660   1.156 -0.1412  0.0670 -0.1598
 4232W        W21080  12.804   5.644   0.888  0.0905  0.2528  0.0694
 4233W        W21081   8.755   3.075   3.033 -0.0856  0.0339 -0.0035
 4234W        W21082  17.919   2.288  13.051 -0.0938  0.3887 -0.0358
 4235W        W21083  10.249  14.700  15.781  0.0723  0.0778  0.4634
 4236W        W21084  13.903   7.505  15.049  0.0161  0.2515  0.0343
 4237W        W21085  10.690   9.125  16.007 -0.1358 -0.3265 -0.0394
 4238W        W21086   7.071   1.050  12.681 -0.0434  0.0755 -0.1078
 4239W        W21087   9.668   6.823  14.204  0.0615  0.0673 -0.1089
 4240W        W21088  11.310   6.053  14.321  0.2053 -0.0552 -0.0010
 4241W        W21089  11.024   1.361   1.391  0.0147  0.1218 -0.1523
 4242W        W21090  12.538  16.579  13.993 -0.1353 -0.0750 -0.1160
 4243W        W21091  13.956   2.299   3.581  0.1677  0.4757 -0.1414
 4244W        W21092  17.315   4.373   1.973 -0.0191  0.2477  0.2168
 4245W        W21093  14.871  17.665   2.197 -0.1995 -0.0737 -0.1617
 4246W        W21094  16.245   4.428  12.973 -0.1516 -0.0016 -0.1462
 4247W        W21095   8.667   6.549   1.422 -0.1270  0.4608 -0.1645
 4248W        W21096  10.809  11.382   3.364 -0.0077  0.0516  0.1109
 4249W        W21097  10.279  10.785  14.770 -0.2476  0.0734  0.1140
 4250W        W21098   1.801   0.208  11.995 -0.0714 -0.0504 -0.1626
 4251W        W21099   0.214  13.931   4.335  0.0086  0.3921  0.1339
 4252W        W21100   2.750   8.566   5.572  0.2245 -0.0027  0.3941
 4253W        W21101   4.345  17.281   4.599 -0.2927 -0.0883  0.2085
 4254W        W21102   9.423  14.894   2.348 -0.1445  0.1293  0.1366
 4255W        W21103  15.351   6.673  12.941 -0.1470 -0.0576  0.1015
 4256W        W21104  17.085  15.389   0.295  0.1972  0.0292  0.1622
 4257W        W21105   8.248  15.216   3.025 -0.1474  0.0064 -0.0495
 4258W        W21106  12.072   5.575  13.769  0.0960 -0.1501 -0.1213
 4259W        W21107   7.505  13.399   0.878 -0.0353  0.2076  0.0192
 4260W        W21108   6.878  12.339   5.162 -0.4041 -0.0932 -0.4156
 4261W        W21109   3.390  13.904   3.879  0.0063  0.3337 -0.0236
 4262W        W21110  16.259   2.862   5.973 -0.0378  0.0709  0.0646
 4263W        W21111  11.171   9.880  14.136 -0.1889 -0.1015 -0.1862
 4264W        W21112   0.267   7.852   1.799 -0.2770  0.2195  0.3733
 4265W        W21113   8.175  14.155  13.581  0.1919 -0.2183  0.0756
 4266W        W21114   0.084   9.026  15.249  0.1240  0.1925 -0.3485
 4267W        W21115   5.770   3.900   3.493  0.1678  0.0437  0.1157
 4268W        W21116   7.904   9.499  13.194  0.0846 -0.1231  0.0665
 4269W        W21117   8.594  14.620   3.478 -0.1492  0.1564  0.3168
 4270W        W21118  17.883  17.347   3.513  0.0109 -0.0649  0.3491
 4271W        W21119  12.831  13.114   2.222 -0.0256 -0.0849  0.0274
 4272W        W21120   2.416  16.668  14.125 -0.1413  0.1296  0.0386
 4273W        W21121  14.124  10.415   3.056 -0.2857 -0.0411  0.0399
 4274W        W21122   9.660  14.946  14.101 -0.0373 -0.1966  0.0574
 4275W        W21123   3.472   0.416   2.870  0.0980 -0.2614 -0.1854
 4276W        W21124   7.794  10.206   5.692  0.0878  0.0565  0.2829
 4277W        W21125   4.803   9.759   0.582 -0.0080 -0.1075  0.0217
 4278W        W21126  14.622   2.582  13.958  0.0510 -0.0917 -0.0894
 4279W        W21127   3.136   6.976  14.504  0.0441 -0.2025  0.1595
 4280W        W21128  10.536   6.480  13.766  0.1240  0.0459  0.1464
 4281W        W21129   6.446   4.464   3.063  0.1714 -0.2424 -0.1705
 4282W        W21130  14.453   4.852  10.709 -0.2391  0.1699 -0.3321
 4283W        W21131  16.790  11.642   4.088 -0.0464  0.3488 -0.2874
 4284W        W21132   7.401   0.932  15.658 -0.1424  0.1010  0.3565
 4285W        W21133  16.386  10.567  15.450  0.2064  0.0198  0.3018
 4286W        W21134  14.272   7.013  11.952 -0.0056 -0.1253  0.0497
 4287W        W21135   6.898  14.459   2.800  0.1446 -0.1147 -0.1571
 4288W        W21136   5.855   3.329   1.151 -0.3149 -0.3459 -0.0329
 4289W        W21137   6.147   5.348  13.144  0.4961 -0.2686 -0.1501
 4290W        W21138   1.468  13.479  10.060  0.0117 -0.1256  0.0408
 4291W        W21139   4.648  12.626   1.082  0.1590  0.2477 -0.0317
 4292W        W21140   5.289   1.405  15.537 -0.0633  0.1157  0.0989
 4293W        W21141   6.885   4.353  15.618  0.1060  0.1238  0.1985
 4294W        W21142  13.204  15.407   2.238  0.1298 -0.1979  0.2341
 4295W        W21143   0.717   3.009  16.180  0.0365 -0.1608 -0.2106
 4296W        W21144   3.612   4.883   0.332 -0.0824 -0.1038 -0.1701
 4297W        W21145   7.496   8.001   3.798  0.1382  0.0686  0.0424
 4298W        W21146   7.822   3.147  14.577 -0.5748 -0.2501  0.2234
 4299W        W21147  11.234  14.765  16.032 -0.3891 -0.3596  0.3020
 4300W        W21148  17.012   2.628  13.074 -0.0028 -0.2843 -0.3571
 4301W        W21149  12.768  14.662  13.464  0.2301  0.0730  0.0601
 4302W        W21150   0.846   8.722  14.156 -0.0293  0.3171  0.2411
 4303W        W21151  15.436   0.268   3.451  0.0901 -0.1540  0.0301
 4304W        W21152  15.079   5.861  14.139 -0.1443 -0.3500  0.2040
 4305W        W21153   4.091  16.684   5.149 -0.0766 -0.4309  0.1046
 4306W        W21154   7.425  13.710  12.235 -0.0049 -0.0603  0.0729
 4307W        W21155   6.458  13.467   1.402  0.3740 -0.4286 -0.0373
 4308W        W21156   6.321  16.469  14.665  0.0835  0.1551  0.0766
 4309W        W21157   9.679  11.950   2.436 -0.0026  0.0188  0.2452
 4310W        W21158  16.850  14.657   0.829 -0.0336  0.0549 -0.0739
 4311W        W21159   3.732  13.754   1.961  0.0405 -0.2740 -0.0924
 4312W        W21160   4.778   6.484   1.631  0.1919 -0.1165 -0.4212
 4313W        W21161  11.636   4.591   2.329  0.2629 -0.2972 -0.2534
 4314W        W21162  12.341  16.391  14.454 -0.0488 -0.1344 -0.3138
 4315W        W21163   1.807   6.230  15.153  0.0061  0.3594  0.1241
 4316W        W21164   5.489  15.203  12.786  0.0919  0.1061 -0.4108
 4317W        W21165   6.342  14.916  11.644  0.2194  0.1018  0.2500
 4318W        W21166   9.368   7.119  13.351  0.1333  0.0885 -0.0108
 4319W        W21167   3.142   9.127   3.213  0.1137 -0.0023 -0.1328
 4320W        W21168  16.141   1.764  14.685 -0.1786  0.0774  0.0621
 4321W        W21169   8.123   9.259   1.249 -0.1167  0.1515  0.0241
 4322W        W21170  13.219  11.265  15.325  0.3511 -0.1375  0.1036
 4323W        W21171   8.077   1.281  14.902  0.1083  0.1631  0.0635
 4324W        W21172   1.876   8.388   3.017 -0.0621 -0.0252  0.3777
 4325W        W21173  13.654  16.593  12.126 -0.1960  0.1234  0.1368
 4326W        W21174   6.540  10.355   2.332  0.0444 -0.0598  0.0528
 4327W        W21175   7.803   2.279   1.194  0.3533 -0.0292 -0.2772
 4328W        W21176   9.076   4.575  13.180 -0.2744 -0.0561  0.1815
 4329W        W21177  16.753   3.345   5.006  0.1214  0.1249 -0.2616
 4330W        W21178   8.120  13.972  11.427 -0.2448  0.0888  0.1764
 4331W        W21179  10.144   1.497   0.795 -0.2284 -0.4519  0.1010
 4332W        W21180   9.586   3.740   1.746 -0.0882  0.0044 -0.0913
 4333W        W21181   5.657  14.640   4.646  0.0157 -0.4345  0.0065
 4334W        W21182  12.280  15.240  10.116  0.2798  0.1497 -0.1539
 4335W        W21183  10.905  16.972   5.537  0.0271 -0.1516 -0.1355
 4336W        W21184  14.549  14.311  15.729  0.1215 -0.0522  0.1709
 4337W        W21185  15.699  16.313  15.930 -0.1865 -0.2939  0.2383
 4338W        W21186  10.254   0.651  14.513 -0.5252 -0.0007  0.0968
 4339W        W21187  11.914  10.480  14.816  0.2677 -0.0539  0.2022
 4340W        W21188   6.496   5.730   1.274 -0.1605 -0.2093  0.0451
 4341W        W21189   0.024  15.129   0.903 -0.0754 -0.1455  0.0061
 4342W        W21190   8.844  10.202  11.801  0.0277  0.1005  0.1888
 4343W        W21191   9.103   2.970   4.412  0.0280  0.2839  0.2512
 4344W        W21192  13.489  14.950  15.352 -0.0710 -0.0474  0.1207
 4345W        W21193   3.630  15.657   3.132 -0.0596  0.4226 -0.3910
 4346W        W21194   8.132  17.272   0.917 -0.0957  0.2567 -0.1548
 4347W        W21195   4.370  17.671   3.200  0.1335 -0.0660  0.1486
 4348W        W21196   9.924  17.621  15.358 -0.0503 -0.1093  0.0564
 4349W        W21197   9.772   7.154   3.096  0.0425  0.0319 -0.3021
 4350W        W21198   0.946  12.432  12.566 -0.1305  0.0173  0.2039
 4351W        W21199  16.202  14.784  11.446 -0.1776  0.1112  0.0734
 4352W        W21200   8.701   8.197  14.102 -0.2835 -0.0256 -0.3480
 4353W        W21201  11.333  16.986  16.087  0.0772  0.1472 -0.0995
 4354W        W21202  12.160   9.593   1.859 -0.1229  0.0039  0.2800
 4355W        W21203   5.414   9.938   3.716 -0.1308 -0.2416  0.3254
 4356W        W21204   9.885   9.290   3.368  0.2203 -0.2094  0.1344
 4357W        W21205   8.806   6.516   0.284  0.0092 -0.3155 -0.0252
 4358W        W21206   0.029  14.985   3.395  0.0801 -0.0639  0.1418
 4359W        W21207  10.165  10.051   0.589  0.0573  0.2649 -0.0915
 4360W        W21208  17.062  11.347  16.180  0.0706  0.1565  0.0427
 4361W        W21209   8.237   0.406  11.544  0.1756 -0.0863  0.2726
 4362W        W21210   1.039   5.486  13.133  0.1278  0.3448 -0.0891
 4363W        W21211  10.971   5.311  12.428  0.3376  0.0501 -0.3166
 4364W        W21212  17.016  15.084   5.794 -0.1294  0.0375 -0.0251
 4365W        W21213  11.905  10.837  14.078  0.2148  0.1256  0.1480
 4366W        W21214   7.130  14.549  13.514 -0.2208  0.0768  0.0403
 4367W        W21215   0.887   4.258  11.829 -0.2131 -0.2814 -0.0443
 4368W        W21216   1.063   5.923  13.903 -0.1896 -0.0858 -0.0004
 4369W        W21217   3.769   5.058   1.723  0.0227 -0.1728  0.0051
 4370W        W21218  12.138   2.604  15.946  0.2033  0.2937 -0.3277
 4371W        W21219  14.134   3.176  12.768  0.3125  0.3931  0.1650
 4372W        W21220  15.581   6.723  14.748 -0.0428  0.0447 -0.0027
 4373W        W21221  16.493   4.642  15.459 -0.0917 -0.0948  0.2032
 4374W        W21222   2.989   2.175   1.369  0.1561 -0.1386 -0.0140
 4375W        W21223   8.313  13.017   4.154 -0.0492  0.0212  0.2229
 4376W        W21224   3.538   0.610  14.753  0.0906 -0.2074  0.0219
 4377W        W21225  13.987   5.156   4.778 -0.1993  0.0152  0.1672
 4378W        W21226  10.281   5.574  11.505 -0.0250  0.3012 -0.1435
 4379W        W21227  10.217  13.887   2.024  0.2730  0.1854 -0.1055
 4380W        W21228  15.189  13.784  12.310  0.0821  0.5093  0.1644
 4381W        W21229   7.253   3.440  15.626 -0.3957 -0.2632  0.1376
 4382W        W21230   2.049  17.548  14.125 -0.0006  0.2452  0.0951
 4383W        W21231   9.564  15.965   3.218  0.2295  0.2136  0.0639
 4384W        W21232  10.980  12.966  15.728 -0.4111  0.1489  0.1967
 4385W        W21233  17.498   1.951  11.407  0.0418 -0.0379  0.2316
 4386W        W21234  11.079  10.286  14.557 -0.0992 -0.0040 -0.1252
 4387W        W21235  15.349   5.007  10.866 -0.1549  0.0562 -0.0599
 4388W        W21236  11.822   6.226   0.537 -0.1508 -0.1512 -0.0412
 4389W        W21237  11.979   9.838   2.735  0.0013  0.3275  0.0504
 4390W        W21238  13.118   6.336   4.188 -0.0673  0.2806  0.0842
 4391W        W21239  10.673   4.261   0.931 -0.1274 -0.1786 -0.2918
 4392W        W21240  16.893   1.933   0.332 -0.1046 -0.0121  0.1629
 4393W        W21241  12.971   0.676  16.231 -0.2896 -0.0263 -0.2342
 4394W        W21242  10.371   6.845  12.272  0.1692  0.1434  0.0563
 4395W        W21243  16.631   9.679  12.376 -0.0033 -0.0128 -0.1019
 4396W        W21244  17.947  17.026   3.925  0.3088  0.2563  0.0936
 4397W        W21245   1.796   1.405  11.856 -0.0557  0.0854  0.1359
 4398W        W21246   6.939   1.602  13.393 -0.0060 -0.0913 -0.1655
 4399W        W21247  13.056   8.425   4.734 -0.2704 -0.2994  0.0054
 4400W        W21248  15.372   1.982   2.299 -0.0832  0.2724  0.2871
 4401W        W21249   5.160   7.226   2.888  0.0651 -0.1118 -0.3087
 4402W        W21250  16.556   6.735   0.046  0.0323 -0.0023 -0.1999
 4403W        W21251  12.864   7.817  12.418  0.2016 -0.5041  0.4542
 4404W        W21252   9.859   1.826   3.263 -0.1621  0.1409  0.2471
 4405W        W21253   8.890   6.066  15.366  0.2257 -0.1499  0.1782
 4406W        W21254   7.944  15.017   1.338  0.0572  0.1802  0.1448
 4407W        W21255  11.879   2.615   3.612  0.1266  0.0373  0.1211
 4408W        W21256   1.627  15.572   2.001 -0.1426  0.0557 -0.3046
 4409W        W21257  13.507   5.175  14.540  0.0976  0.0575  0.1071
 4410W        W21258   3.878  11.973   0.959  0.1390  0.2303  0.1805
 4411W        W21259   3.090   0.417   0.371 -0.0790 -0.0492 -0.2125
 4412W        W21260  14.534  17.540   2.800  0.2831 -0.0245  0.2315
 4413W        W21261   4.444   5.680   3.020 -0.1926 -0.4360 -0.0740
 4414W        W21262   7.679  15.091   4.335 -0.0273 -0.0441  0.1179
 4415W        W21263   4.997  14.889   2.612 -0.2059 -0.2823 -0.0356
 4416W        W21264  17.322  13.680  12.832  0.0465  0.0100  0.1884
 4417W        W21265  10.848   3.020   3.751  0.0170  0.0802 -0.2701
 4418W        W21266   0.551  16.861  16.047  0.0792  0.1492  0.1047
 4419W        W21267   8.142   7.072   4.214 -0.3404 -0.1709  0.0105
 4420W        W21268  13.446  17.370   5.037 -0.1563 -0.0904  0.0387
 4421W        W21269  15.314  14.395   0.563  0.1134  0.4221 -0.0887
 4422W        W21270  10.409   3.223   1.426  0.0227  0.1504 -0.1300
 4423W        W21271  13.609  11.401  12.276 -0.1093 -0.3611  0.3187
 4424W        W21272  13.540   3.839   1.075 -0.0463 -0.1470  0.2468
 4425W        W21273   5.144  14.868   4.657  0.0929 -0.0814  0.0585
 4426W        W21274  14.844  13.871  11.381  0.2289  0.4535  0.2836
 4427W        W21275   3.353   5.098   3.134  0.1249 -0.0883  0.0988
 4428W        W21276   3.004   1.631   3.636 -0.3208 -0.0188  0.3679
 4429W        W21277  16.857  11.980  14.041 -0.2783 -0.0780 -0.0815
 4430W        W21278   9.502   6.258   0.952  0.1861  0.0402  0.1225
 4431W        W21279  17.552  15.726  13.047 -0.1133 -0.0425 -0.0558
 4432W        W21280   3.543   0.021  11.517  0.1392  0.0299 -0.0198
 4433W        W21281   8.879   7.289   3.236  0.2969 -0.0091 -0.4260
 4434W        W21282   4.176   1.086  12.823 -0.0555  0.0499 -0.0313
 4435W        W21283   0.035  13.124  13.354 -0.0003 -0.1685 -0.0111
 4436W        W21284   7.036   9.999   0.032 -0.1650 -0.0392 -0.1404
 4437W        W21285   1.079   1.670  13.560  0.1433  0.1311 -0.0189
 4438W        W21286  11.190  14.887   4.288 -0.0512 -0.1299  0.0860
 4439W        W21287  11.833   3.971   4.156 -0.1937  0.0043 -0.0150
 4440W        W21288  10.446  17.428  14.373  0.2965  0.2552 -0.0527
 4441W        W21289   6.564   8.728  11.111  0.1535 -0.2297  0.2777
 4442W        W21290  15.882  13.625   5.518  0.2723  0.1795  0.0310
 4443W        W21291   7.821   0.565   0.751  0.1053 -0.0939  0.3096
 4444W        W21292   8.893   2.326   1.943  0.2762  0.0592 -0.3052
 4445W        W21293   7.386   1.318   1.584  0.0370  0.3465 -0.1692
 4446W        W21294  16.526  17.555   1.790 -0.0492  0.0597 -0.2701
 4447W        W21295  16.744   5.779  14.735 -0.1556  0.0983  0.0442
 4448W        W21296   7.246   9.150  14.348 -0.0887 -0.0120  0.1849
 4449W        W21297  14.797  13.886   3.026 -0.0486  0.2746  0.2561
 4450W        W21298  13.372   6.312   0.858 -0.3860  0.1807  0.3178
 4451W        W21299   7.241  11.952   4.874  0.0031  0.1703 -0.4800
 4452W        W21300   1.641   8.931  16.268  0.1108 -0.1005  0.0691
 4453W        W21301   8.431   8.810  15.303  0.3360  0.2788 -0.4774
 4454W        W21302  14.499   2.190  11.454  0.0301  0.1304  0.2189
 4455W        W21303   0.169   9.382  13.114  0.1756 -0.0859 -0.0094
 4456W        W21304   4.713   2.636   1.351  0.0371  0.2636  0.1675
 4457W        W21305   8.644  11.900   3.896 -0.2474 -0.1616  0.0971
 4458W        W21306   6.907   2.032   5.118 -0.0412  0.0763  0.0029
 4459W        W21307   9.850   8.050  15.606  0.0530 -0.1406  0.1367
 4460W        W21308   5.277  14.050  11.993  0.1427  0.0454 -0.0656
 4461W        W21309   4.797   1.688  12.310 -0.0095  0.1737  0.0212
 4462W        W21310  10.721   9.481   5.543  0.2966 -0.3026 -0.0881
 4463W        W21311   0.272   1.351  15.256  0.1741 -0.1097  0.1645
 4464W        W21312   5.327  14.491  10.769 -0.1306 -0.3428 -0.1210
 4465W        W21313   6.633   0.230  12.411 -0.0111 -0.0200 -0.0389
 4466W        W21314   7.135   7.300  14.634 -0.3070  0.1571 -0.1476
 4467W        W21315   8.628  13.800  11.754  0.0198 -0.0692  0.4309
 4468W        W21316   7.631   5.274  15.370 -0.3074  0.1588 -0.1770
 4469W        W21317   6.941  10.451  13.385 -0.1394  0.1722 -0.1067
 4470W        W21318  14.325  11.491   3.704 -0.1880 -0.0094 -0.1507
 4471W        W21319  16.198   6.023  15.920  0.0008  0.0039  0.0227
 4472W        W21320  14.444  15.461  11.119  0.0898 -0.1203 -0.4926
 4473W        W21321   2.677   7.713  13.150  0.0507  0.1170 -0.0839
 4474W        W21322  11.361  12.995  12.265  0.0801 -0.0653 -0.0785
 4475W        W21323  16.350  15.351  15.736  0.0264 -0.0919  0.1118
 4476W        W21324   9.679   5.641  13.125 -0.0221  0.1038 -0.1973
 4477W        W21325   2.713  12.687  13.844 -0.1844 -0.1504 -0.6633
 4478W        W21326   4.660   5.962   3.429 -0.3219 -0.1033  0.0506
 4479W        W21327  13.525   0.541  10.520  0.2713  0.0072 -0.0157
 4480W        W21328  17.445   9.993  12.925  0.1569 -0.1153  0.3099
 4481W        W21329  12.532   6.600   3.516  0.1718 -0.3420  0.0192
 4482W        W21330  13.440   0.740  13.484  0.0629 -0.0738  0.0444
 4483W        W21331   7.081  15.528  11.962  0.2148  0.0830  0.0394
 4484W        W21332  10.072   5.251  12.540 -0.1156  0.0705 -0.1752
 4485W        W21333  10.352  15.246   0.876 -0.2698  0.2346  0.1321
 4486W        W21334   5.242   1.564  13.795 -0.1647 -0.1729  0.0405
 4487W        W21335  10.791  14.871  14.743  0.0148  0.5878 -0.1503
 4488W        W21336   4.811  13.698  15.907  0.1057 -0.0451  0.4058
 4489W        W21337  12.354  11.980  15.458  0.2533  0.0558  0.0134
 4490W        W21338  14.696   6.433  12.862 -0.0896  0.2548  0.1474
 4491W        W21339  16.244  17.195  15.518  0.2294  0.0480  0.1927
 4492W        W21340  15.637   5.694   6.190 -0.0308  0.0929 -0.1269
 4493W        W21341   5.162  16.368   4.026 -0.1769 -0.0444  0.1138
 4494W        W21342   3.714  13.746  11.507  0.3367  0.1752 -0.2764
 4495W        W21343  15.665   6.923   1.906 -0.0244 -0.0939 -0.0117
 4496W        W21344   9.718  11.118   0.065  0.0122  0.0526  0.3177
 4497W        W21345  13.527   5.372   4.310 -0.0892 -0.0303  0.1800
 4498W        W21346  13.086  10.348   3.495 -0.1934  0.2619 -0.0724
 4499W        W21347   7.493  14.621   2.250 -0.1261  0.1648  0.2364
 4500W        W21348   7.707  10.942   0.736 -0.0297 -0.0644  0.2070
 4501W        W21349  15.191   3.792  14.424  0.1190 -0.1290  0.2629
 4502W        W21350  13.367  10.973   3.951  0.2886  0.2517 -0.0088
 4503W        W21351  15.213   9.979   4.643  0.0683  0.2258 -0.1144
 4504W        W21352  12.921   2.439   0.387 -0.1293 -0.0353 -0.0480
 4505W        W21353   8.512  17.441   1.729 -0.3175  0.0144 -0.1071
 4506W        W21354  14.563   3.245   4.824 -0.1033  0.0745  0.2529
 4507W        W21355   7.025   1.432   1.986 -0.2346  0.1652  0.0567
 4508W        W21356  10.984  14.521   1.023 -0.0998  0.2880 -0.0676
 4509W        W21357   0.201   4.235   2.731 -0.1153  0.0307  0.1044
 4510W        W21358   1.805   6.134  12.009  0.2603  0.1689  0.0095
 4511W        W21359   8.597  17.172   3.228 -0.1166  0.1703 -0.0959
 4512W        W21360   1.008   9.759   0.137 -0.0923 -0.1736  0.0174
 4513W        W21361   9.502   6.343  15.865 -0.0749  0.0801  0.0978
 4514W        W21362  16.241  11.169  15.201 -0.1953  0.2614  0.0132
 4515W        W21363  15.232  17.796  12.358  0.2789  0.2838 -0.2145
 4516W        W21364   7.826  12.385  13.633  0.0236 -0.1677 -0.1256
 4517W        W21365   0.695   2.025  13.996 -0.2010 -0.0815  0.0145
 4518W        W21366  11.943   9.373   3.087  0.0972 -0.0890  0.0204
 4519W        W21367  13.582  17.576  14.776 -0.0799 -0.0456 -0.0114
 4520W        W21368  10.336  14.369   2.755  0.2005 -0.1415 -0.2587
 4521W        W21369   1.311   8.054   3.943 -0.0376  0.0494 -0.4588
 4522W        W21370  13.132  12.222  13.904  0.1152 -0.1852  0.0562
 4523W        W21371   8.887   7.249  12.489  0.0849 -0.1336  0.0422
 4524W        W21372   7.001   1.685  11.279 -0.1122 -0.1651 -0.0809
 4525W        W21373  17.883   9.078   1.514  0.0797  0.0722  0.2786
 4526W        W21374  17.618   5.762   2.094 -0.0711  0.0284 -0.1291
 4527W        W21375  16.941  15.224  12.243  0.0209 -0.0413  0.1545
 4528W        W21376  14.540  16.003  14.658  0.2203  0.0397 -0.0804
 4529W        W21377   7.631  13.113   0.072 -0.3840 -0.3240 -0.0304
 4530W        W21378   3.503   6.194  11.947  0.3052  0.0876 -0.0410
 4531W        W21379   4.998  16.021  12.465  0.0270  0.2440  0.0336
 4532W        W21380   4.115  14.955  15.032  0.0987 -0.0412  0.1937
 4533W        W21381  10.481   8.572  11.278 -0.0750  0.0731 -0.2718
 4534W        W21382  15.610   2.102   1.099 -0.1024  0.2887 -0.1568
 4535W        W21383  14.040  11.979   0.604  0.0470 -0.1260  0.0293
 4536W        W21384  16.854  16.943   0.056  0.0342  0.2217 -0.0937
 4537W        W21385   3.531   1.825   1.859 -0.2281 -0.2929 -0.0650
 4538W        W21386  17.316   5.110   3.080  0.3341 -0.4674  0.3441
 4539W        W21387   4.726  17.265  14.775 -0.1482  0.2344  0.1178
 4540W        W21388  12.854   4.299  10.834  0.4260 -0.1011 -0.1680
 4541W        W21389   6.661   6.304  12.428 -0.1456 -0.5225  0.0510
 4542W        W21390  12.871  17.945   4.013  0.2563 -0.2527 -0.0196
 4543W        W21391   6.221   8.518  15.665 -0.1024  0.0663 -0.1872
 4544W        W21392  12.550  17.997   3.628  0.1487  0.3824 -0.0798
 4545W        W21393   9.872   5.456   3.175  0.1728  0.1800 -0.2840
 4546W        W21394  13.735   5.914   1.047 -0.0041 -0.2982  0.0047
 4547W        W21395   6.340   8.009   2.018  0.1926  0.0603  0.0535
 4548W        W21396   9.777   6.541  12.660  0.1989 -0.0084 -0.2480
 4549W        W21397  17.345  17.913   3.213 -0.3883 -0.3253 -0.0575
 4550W        W21398   6.498   6.621  13.415 -0.2629 -0.2141  0.1286
 4551W        W21399   5.019  12.024   1.519  0.1673  0.3869  0.0445
 4552W        W21400   1.239   3.777  13.327 -0.2375 -0.2726 -0.0010
 4553W        W21401  16.909   8.302   1.062 -0.0211  0.1403 -0.1455
 4554W        W21402  11.537   5.530  11.793 -0.1856  0.2942  0.2281
 4555W        W21403   1.148   3.730  16.093 -0.0480  0.1581 -0.2254
 4556W        W21404   0.536   7.273  14.670  0.0896  0.0548 -0.1858
 4557W        W21405   0.235   8.161  16.207  0.1337 -0.2416  0.1678
 4558W        W21406  16.148   7.866  11.276  0.1259  0.0061  0.1637
 4559W        W21407   1.999   6.258  13.295 -0.0872 -0.2077  0.0863
 4560W        W21408   2.560   5.585   0.033 -0.2372 -0.2134  0.0723
 4561W        W21409  11.554   6.059   2.633 -0.1072 -0.0057 -0.0544
 4562W        W21410  12.905   1.313  13.228  0.1418 -0.1793 -0.1786
 4563W        W21411   1.389  15.741  15.166 -0.1092 -0.2175 -0.0383
 4564W        W21412   9.355  15.254   1.300 -0.2194 -0.0230 -0.0965
 4565W        W21413   8.804  10.402   4.974 -0.2172 -0.3162  0.1124
 4566W        W21414   2.280  15.392   2.677  0.2094 -0.2590 -0.0866
 4567W        W21415   0.803   4.644   0.068  0.2234 -0.2296 -0.1222
 4568W        W21416   7.348   3.396  12.141 -0.1054 -0.1986 -0.1721
 4569W        W21417   5.924   8.897  15.514  0.0379  0.1471  0.1020
 4570W        W21418  17.877  15.381  12.678  0.0594 -0.1977 -0.0632
 4571W        W21419   2.499   8.519  14.168 -0.2841  0.0944  0.0622
 4572W        W21420  13.267  11.656   5.206 -0.0351 -0.2421 -0.1593
 4573W        W21421   3.829  10.143   3.694 -0.0485 -0.4084  0.0060
 4574W        W21422   3.627  10.578   6.094  0.0409  0.1550  0.0136
 4575W        W21423  12.770  16.799  15.300  0.2902 -0.0024 -0.0098
 4576W        W21424   1.006  12.520   5.051 -0.5344 -0.0550 -0.0735
 4577W        W21425   1.127   1.904  12.569 -0.0783  0.0896  0.2676
 4578W        W21426   5.241   0.919   2.557  0.1116 -0.2312 -0.0763
 4579W        W21427   1.348  13.325   4.127  0.0327 -0.0869  0.0116
 4580W        W21428  12.531  12.358   2.255 -0.2140 -0.1069  0.1088
 4581W        W21429  12.549  10.766  15.177  0.1058  0.3892 -0.0785
 4582W        W21430   1.019  17.929  12.336 -0.0326  0.0247 -0.0301
 4583W        W21431  15.319  12.967   4.054 -0.0208 -0.1509  0.0985
 4584W        W21432  15.298   1.129  13.078 -0.0157  0.0388 -0.2234
 4585W        W21433   2.866   9.933  15.507  0.0278 -0.1090 -0.0982
 4586W        W21434   5.720  10.581  11.411 -0.2501  0.1069 -0.0015
 4587W        W21435  14.684   2.699   2.464  0.1617 -0.0231  0.0211
 4588W        W21436   4.229  12.342   4.281 -0.0763 -0.1966 -0.0437
 4589W        W21437   1.246  15.814   0.665  0.1653 -0.0808 -0.5189
 4590W        W21438  13.792   4.307  11.955  0.1906 -0.0138 -0.1190
 4591W        W21439   1.724   1.487   4.392  0.0755 -0.2772  0.1151
 4592W        W21440   0.041  12.759   2.181 -0.2134 -0.1153  0.0092
 4593W        W21441  17.592   9.605   1.272 -0.1409  0.1750 -0.0588
 4594W        W21442   1.289  12.880   2.296  0.0061 -0.0543 -0.0629
 4595W        W21443   9.890  16.755  11.202  0.0029  0.0589 -0.0243
 4596W        W21444   8.430   4.291   5.395  0.1301 -0.0245 -0.1738
 4597W        W21445   3.322   6.709  11.495  0.3767 -0.0078 -0.0036
 4598W        W21446  13.032  15.916  13.250  0.0687 -0.0700  0.0037
 4599W        W21447  15.266   3.685   3.126  0.0756  0.2211  0.2990
 4600W        W21448   3.719  13.509   0.744  0.0792  0.1094  0.1807
 4601W        W21449   6.910   5.831  13.705  0.1328 -0.1243  0.3722
 4602W        W21450  10.494  17.762  16.162 -0.1165  0.1297  0.3303
 4603W        W21451  10.762  14.525   5.046 -0.0212  0.1016 -0.1590
 4604W        W21452   5.855  17.702   3.718 -0.1283 -0.1632  0.1656
 4605W        W21453   1.543   1.933   4.573  0.3047  0.0810  0.1693
 4606W        W21454   5.054   6.729  11.581  0.2282 -0.1403 -0.1373
 4607W        W21455   6.641   0.623   4.296 -0.3592 -0.3636 -0.0338
 4608W        W21456  16.767  17.937   3.520 -0.1485  0.0904  0.3033
 4609W        W21457  16.040   0.330  12.377  0.3633  0.2334 -0.1652
 4610W        W21458  11.952  13.310   2.863 -0.1428 -0.1867  0.0359
 4611W        W21459   4.280  14.489  12.032  0.1938  0.0664 -0.1381
 4612W        W21460  12.116   7.897  11.025 -0.0175  0.0144  0.3784
 4613W        W21461   8.029   9.583   4.190  0.0980 -0.2932 -0.1495
 4614W        W21462   4.465  12.555  12.708 -0.0045 -0.0625 -0.0043
 4615W        W21463  15.266  11.302  14.215 -0.0785 -0.1841 -0.1739
 4616W        W21464  15.099  15.173  15.346  0.0498  0.0845 -0.1600
 4617W        W21465  16.796  12.784   4.388  0.2308 -0.2212  0.1020
 4618W        W21466   1.078   3.443  15.680 -0.1662 -0.3833  0.1082
 4619W        W21467   1.112   7.027  13.608  0.1505 -0.2885 -0.1584
 4620W        W21468   6.835   9.471   5.418 -0.0929 -0.0083 -0.1500
 4621W        W21469  12.134   4.494  13.980 -0.1743 -0.0651  0.0220
 4622W        W21470   6.511   5.987   2.977  0.0709  0.1934  0.0185
 4623W        W21471  17.906  15.904   4.925  0.1090 -0.0212  0.2374
 4624W        W21472   9.051   3.879   4.558 -0.1875  0.0729 -0.0041
 4625W        W21473  15.353  12.466  12.080  0.0556  0.1499  0.1288
 4626W        W21474   9.279  10.212  15.264 -0.0020 -0.2438 -0.1871
 4627W        W21475  11.678  10.606  12.033  0.1609  0.1760 -0.1633
 4628W        W21476  14.718   7.862  14.968 -0.1213 -0.0546 -0.0972
 4629W        W21477   8.484  15.883  15.644 -0.1805  0.1503 -0.0856
 4630W        W21478  15.055  16.499  15.165 -0.0286  0.3195 -0.1724
 4631W        W21479   5.858   0.109  13.281  0.1603 -0.0684 -0.2193
 4632W        W21480   7.643  10.786   0.267 -0.1578 -0.3518 -0.1604
 4633W        W21481   6.979   4.470   1.502  0.0731 -0.0670 -0.0757
 4634W        W21482   0.945   1.674   3.599 -0.1368 -0.0229  0.3231
 4635W        W21483  11.617  10.947  11.132  0.0642  0.2679 -0.0504
 4636W        W21484   1.214   2.690   4.214 -0.1976 -0.2915  0.0425
 4637W        W21485  17.697   2.208  13.572  0.0089 -0.1354 -0.2008
 4638W        W21486   2.881   5.564  11.348  0.0576 -0.1887  0.2417
 4639W        W21487   5.802  15.919   4.214 -0.0782 -0.0745  0.1571
 4640W        W21488   5.153   8.150  12.655 -0.0695 -0.2955  0.0413
 4641W        W21489   0.816  17.455   3.613  0.0778  0.3289  0.1620
 4642W        W21490   7.782   3.282  15.493  0.1154 -0.0135 -0.0263
 4643W        W21491  11.372   1.595   3.962 -0.3855  0.1876 -0.0829
 4644W        W21492   6.158   4.231  12.539 -0.0119  0.1469  0.3479
 4645W        W21493  14.455   3.108  11.681 -0.1025 -0.2322  0.0726
 4646W        W21494   6.648   8.367   3.719 -0.1019 -0.2298  0.2868
 4647W        W21495   4.662  17.075   2.507 -0.1188 -0.2425  0.0028
 4648W        W21496  15.552   7.160  11.621 -0.1743 -0.0160 -0.0220
 4649W        W21497  16.295   3.436  11.609  0.2758 -0.1263 -0.3646
 4650W        W21498   1.399  17.056  15.572  0.1005 -0.1861 -0.2093
 4651W        W21499   2.770  13.782   1.921  0.1934  0.2809  0.2089
 4652W        W21500  11.179   9.377  14.332  0.1122 -0.2884 -0.1630
 4653W        W21501   8.352   1.388   1.805  0.0664 -0.3534 -0.0436
 4654W        W21502  15.126   2.674   4.240  0.3460 -0.0197 -0.0167
 4655W        W21503  10.853  17.169   1.782  0.1954  0.1106  0.1503
 4656W        W21504  13.690  10.744   2.231  0.1173 -0.1318  0.1351
 4657W        W21505   0.018   2.288   6.190 -0.0754  0.0094  0.1192
 4658W        W21506   1.159   8.329  11.344  0.1487 -0.0688  0.1822
 4659W        W21507   1.345  12.554  12.261 -0.2317 -0.1402 -0.0473
 4660W        W21508  14.001  10.068  12.127  0.1056  0.3091 -0.1910
 4661W        W21509  12.257   1.788   0.249  0.2315  0.3139  0.0300
 4662W        W21510   6.560   2.471   3.897 -0.1167  0.0746  0.1958
 4663W        W21511   0.146  15.387   4.409  0.3192  0.1791 -0.1510
 4664W        W21512  12.894   4.482   1.691 -0.1846 -0.1744  0.0492
 4665W        W21513   0.109  16.274   4.727  0.0383  0.1401  0.0738
 4666W        W21514   6.537  16.934   3.051 -0.0105 -0.1231 -0.2816
 4667W        W21515   7.351   5.978   1.545  0.0750 -0.0856  0.5231
 4668W        W21516   9.639   9.421  15.281 -0.3170  0.3105  0.3308
 4669W        W21517   2.338  10.506  12.704  0.0220  0.2485 -0.0360
 4670W        W21518  13.176  14.958  12.638 -0.0754  0.2122 -0.1276
 4671W        W21519   1.301   8.973   4.674 -0.0384  0.1819 -0.0997
 4672W        W21520   4.788   2.739  12.494 -0.3580 -0.3221 -0.2567
 4673W        W21521   7.103   4.100  10.441 -0.0191 -0.1565  0.3622
 4674W        W21522   6.644  11.895   0.708  0.0773  0.0838  0.1506
 4675W        W21523   5.670   9.919  12.549  0.1157 -0.0537 -0.2351
 4676W        W21524   9.809  15.187   2.151  0.0136  0.1439 -0.0035
 4677W        W21525   9.046   3.009  13.478 -0.1111 -0.0017 -0.0033
 4678W        W21526   9.042  14.561   5.595  0.2173 -0.1074 -0.1691
 4679W        W21527   4.651  17.591   0.542 -0.1354  0.2178  0.3378
 4680W        W21528  12.773   6.934  12.327  0.4121  0.2895  0.0275
 4681W        W21529  14.583  15.689   3.790 -0.1412 -0.2657  0.1227
 4682W        W21530  16.776   3.718  13.197  0.1092  0.1071  0.1774
 4683W        W21531   4.783  16.423  15.017  0.0284 -0.2611  0.0406
 4684W        W21532  16.429   1.863   0.543 -0.1583  0.1107  0.1198
 4685W        W21533  11.810  12.893   1.007 -0.2605 -0.2070 -0.0275
 4686W        W21534  11.028   3.795  13.252 -0.2091 -0.4128  0.0812
 4687W        W21535   6.357  11.481   3.015 -0.1356  0.0973 -0.1238
 4688W        W21536   7.686   2.540  15.081 -0.0349 -0.2319 -0.1024
 4689W        W21537  14.407  13.506   3.792 -0.0308 -0.3087 -0.2058
 4690W        W21538   8.575   2.761   5.085 -0.2329  0.0249  0.1590
 4691W        W21539  10.657   7.632   0.239 -0.2809  0.0768  0.0471
 4692W        W21540   6.302   5.118   2.933  0.1264  0.0858 -0.1028
 4693W        W21541  14.665  11.987  12.942  0.2907 -0.0920 -0.1865
 4694W        W21542   1.509   0.476  12.247 -0.1725  0.0883 -0.2813
 4695W        W21543  13.018   2.813  13.219 -0.2672  0.1869  0.4340
 4696W        W21544  15.159  13.948   0.756 -0.3090 -0.1101  0.0889
 4697W        W21545   4.566   7.731   3.540 -0.1931  0.2280  0.3393
 4698W        W21546  16.726   1.675  11.762 -0.4831 -0.1513  0.0038
 4699W        W21547  13.421  13.484  13.425  0.0436 -0.2267 -0.2662
 4700W        W21548  13.898  11.705  14.950 -0.1651  0.0864 -0.1949
 4701W        W21549  10.812   6.587  12.327  0.1332 -0.2691 -0.1245
 4702W        W21550  16.848   8.710  13.425  0.0951 -0.2150 -0.1991
 4703W        W21551  16.844  18.027   4.183  0.0001 -0.0835 -0.0338
 4704W        W21552  14.039  11.090   3.378 -0.0501  0.0873  0.0261
 4705W        W21553   6.110  16.101   4.815 -0.0054  0.0737  0.0469
 4706W        W21554   2.304   1.714   1.123 -0.1773 -0.1616 -0.1100
 4707W        W21555   8.383   2.338   4.752 -0.2296  0.0912  0.1371
 4708W        W21556   2.520  14.670  14.985 -0.0884 -0.3123 -0.2366
 4709W        W21557  16.315   7.778  14.481  0.0761 -0.1171  0.2584
 4710W        W21558  13.117  15.619   3.520  0.2822  0.0969  0.1214
 4711W        W21559  16.761   9.691   2.197 -0.0825 -0.2112 -0.1174
 4712W        W21560   8.749   0.926  13.427  0.3268  0.0173 -0.2806
 4713W        W21561  16.438  11.030   2.265  0.5218 -0.7347  0.0421
 4714W        W21562   8.135  15.337   0.372  0.3074  0.0536 -0.1606
 4715W        W21563   2.097  13.283  12.207  0.0329  0.0454  0.0965
 4716W        W21564   8.617   8.220  15.910 -0.2473 -0.2986  0.1131
 4717W        W21565   4.595   3.782   2.229  0.0046  0.0504 -0.0405
 4718W        W21566   2.164  14.504  12.879 -0.1999 -0.0248  0.1502
 4719W        W21567   0.148   1.783  11.325  0.0092 -0.4663 -0.0420
 4720W        W21568   6.460   8.910   0.763 -0.0523  0.0429 -0.3559
 4721W        W21569  14.352  16.087  13.036  0.1275 -0.2358  0.1022
 4722W        W21570   0.602   3.740   2.526  0.2375  0.1024  0.0017
 4723W        W21571   0.506  11.752   3.539 -0.0410 -0.2403  0.2234
 4724W        W21572   5.408  10.371  12.642 -0.0503  0.1592  0.1552
 4725W        W21573   2.656   8.872   4.227  0.0581 -0.1316 -0.0063
 4726W        W21574   3.976  15.713  12.520 -0.1773  0.1891  0.2547
 4727W        W21575   1.169  14.027   3.399  0.0361  0.1642  0.1800
 4728W        W21576   1.787  16.307   5.014 -0.2657  0.0221 -0.1054
 4729W        W21577   0.775  10.545   1.558  0.0715 -0.2686  0.2865
 4730W        W21578   6.896  16.667   2.810 -0.0299 -0.0226 -0.2784
 4731W        W21579   2.339   6.800   4.262  0.2611 -0.0812 -0.0356
 4732W        W21580  17.048   3.359   2.105  0.0556 -0.0729 -0.0611
 4733W        W21581   6.858   9.256  15.549 -0.1233  0.0013  0.1202
 4734W        W21582  16.820   5.321  16.011 -0.2319  0.1829  0.1073
 4735W        W21583  18.008   4.387  14.398 -0.0485 -0.0174 -0.2078
 4736W        W21584  13.160  11.017   4.477  0.0113  0.1767 -0.1696
 4737W        W21585  13.134  13.947  15.447 -0.1944  0.2017 -0.0297
 4738W        W21586  15.115   1.581  14.707 -0.1452  0.0166  0.3022
 4739W        W21587  12.208   0.106  15.719 -0.0078  0.1021 -0.0335
 4740W        W21588  13.689   4.242   1.656  0.1825 -0.1320  0.1583
 4741W        W21589   7.379   8.888   5.222 -0.1482 -0.1972 -0.0154
 4742W        W21590  10.470   6.307  15.396 -0.2165  0.0341 -0.0053
 4743W        W21591   1.917  10.230  14.922 -0.1927 -0.1370 -0.0934
 4744W        W21592   5.743   3.725   2.392 -0.2759 -0.1203 -0.0044
 4745W        W21593   0.163   8.377  12.573 -0.0073 -0.2363  0.1017
 4746W        W21594  15.911   4.638  13.383 -0.0657  0.3056  0.0556
 4747W        W21595   3.397   5.984   2.746 -0.2627 -0.3624  0.3551
 4748W        W21596   5.412   2.426   2.691  0.1475 -0.1762 -0.0115
 4749W        W21597   8.254  14.225  14.130  0.2503  0.0475  0.1313
 4750W        W21598   4.160   0.742   3.139 -0.1853 -0.1256  0.2623
 4751W        W21599   0.015   8.280   1.571  0.0866  0.1803 -0.1371
 4752W        W21600   3.009   4.508  14.550 -0.1453 -0.0410  0.0703
 4753W        W21601  14.776  17.742   1.331 -0.1018 -0.0573 -0.1634
 4754W        W21602   9.311   5.578   2.176  0.1540 -0.2468  0.0394
 4755W        W21603   7.044   8.847  14.697  0.2394 -0.1069  0.1301
 4756W        W21604  12.332  10.719  12.747 -0.0694 -0.1946 -0.0238
 4757W        W21605   7.513   4.251  11.809 -0.1237  0.0260  0.1336
 4758W        W21606  14.123   2.637  15.896 -0.0611  0.4712 -0.0930
 4759W        W21607  12.373  11.483   2.104 -0.0093  0.3347 -0.0113
 4760W        W21608   8.817  12.415  12.242  0.0789 -0.3814 -0.0002
 4761W        W21609   8.616  13.519   6.224  0.0382 -0.0864  0.1059
 4762W        W21610   1.592  12.163   3.517  0.2038 -0.3744  0.0213
 4763W        W21611   1.313  11.271   4.338 -0.0307  0.5185  0.1974
 4764W        W21612   2.433   4.443   1.037 -0.0437  0.0469  0.3218
 4765W        W21613   0.789   1.253   3.179  0.0581  0.1702  0.2066
 4766W        W21614  15.297   7.136  12.726  0.0357  0.0941  0.2682
 4767W        W21615   6.644   9.717  14.581  0.1086 -0.1993  0.0137
 4768W        W21616   4.381   9.633  14.412  0.0461  0.1070 -0.0634
 4769W        W21617  17.628  15.907  11.976 -0.0627  0.1051 -0.1007
 4770W        W21618   4.450   1.976  15.635  0.0354 -0.1071 -0.0773
 4771W        W21619   3.393   0.517   1.980  0.1814  0.2291 -0.0030
 4772W        W21620  14.544   8.544  11.905  0.1032 -0.3361  0.1520
 4773W        W21621   5.593  14.488   3.301 -0.0254 -0.2685  0.1646
 4774W        W21622   2.553   2.211  11.513 -0.0329  0.1093  0.2432
 4775W        W21623  17.905   0.917   0.677 -0.4731 -0.0191 -0.0216
 4776W        W21624   5.268  16.377   3.473 -0.1159 -0.1550  0.2948
 4777W        W21625  12.642  15.124  10.437 -0.0260  0.0883 -0.3894
 4778W        W21626  17.699   3.001   3.509  0.1477 -0.1798  0.0089
 4779W        W21627  14.330  11.101   0.889 -0.2674  0.1404  0.1174
 4780W        W21628   1.347   5.090  13.858  0.1297  0.0547 -0.2212
 4781W        W21629   8.604   2.364  12.724  0.2891 -0.2071 -0.2363
 4782W        W21630   2.853  13.136  15.504 -0.0545 -0.2039  0.0157
 4783W        W21631  16.193  14.675  10.932  0.0939 -0.2777  0.0310
 4784W        W21632   2.230   0.018  15.172  0.1013  0.0569  0.1847
 4785W        W21633   0.796   8.767  16.015  0.0025 -0.0243 -0.0064
 4786W        W21634   8.267  11.465  14.499 -0.2215  0.0734 -0.1609
 4787W        W21635  12.465   9.983   4.382  0.0329 -0.1392 -0.2073
 4788W        W21636   0.126  11.914   1.104 -0.1629 -0.1825 -0.0149
 4789W        W21637   5.760   1.623   3.468  0.1820  0.2399  0.1288
 4790W        W21638   6.554   9.754   2.405 -0.2964 -0.1473  0.2948
 4791W        W21639  16.019  11.146  11.825 -0.3892  0.1289 -0.1476
 4792W        W21640   5.090   2.090   2.599 -0.2144  0.0560  0.0013
 4793W        W21641  17.603  16.057   2.938  0.1596 -0.2089 -0.2544
 4794W        W21642  15.190  14.143  12.945  0.0340 -0.0680  0.0437
 4795W        W21643  13.621  14.216  13.977  0.2087 -0.1888  0.0370
 4796W        W21644   2.992  12.533  14.789 -0.0289  0.1725  0.0439
 4797W        W21645   0.586   3.200  14.258  0.1253  0.0009 -0.0762
 4798W        W21646  15.764   8.122  14.973 -0.2568  0.3483 -0.0117
 4799W        W21647  11.459   0.858  11.236 -0.0211 -0.2474 -0.0073
 4800W        W21648   2.801   9.370   3.651 -0.3296 -0.1732  0.0607
 4801W        W21649   2.616  10.872  13.372 -0.2465  0.0288  0.3595
 4802W        W21650  10.512   4.373  10.916  0.0194  0.0413 -0.3349
 4803W        W21651   2.827   4.564  13.197 -0.2789  0.0024 -0.3813
 4804W        W21652  16.999   9.484  14.939  0.4232 -0.1123 -0.0768
 4805W        W21653   2.596   7.576   3.812 -0.0577 -0.3641  0.0574
 4806W        W21654  17.060  17.411   4.789 -0.3240 -0.2283 -0.5108
 4807W        W21655   4.877  10.985  11.562 -0.1141 -0.0288 -0.0766
 4808W        W21656   4.697   0.014  12.484  0.1467 -0.1175 -0.0846
 4809W        W21657  13.196   5.411   4.652  0.1786  0.2465  0.0192
 4810W        W21658   5.432   2.080   0.116 -0.1871  0.1168  0.2125
 4811W        W21659   5.937   2.821  15.869 -0.0360  0.0645  0.0505
 4812W        W21660   7.857  12.714   0.270 -0.0508 -0.3181 -0.2017
 4813W        W21661   2.564  10.069   3.259 -0.2114 -0.0333  0.2559
 4814W        W21662   3.920   8.771   3.295 -0.0346  0.2345 -0.1990
 4815W        W21663   1.741   9.658   3.449 -0.2123 -0.2299  0.1526
 4816W        W21664  14.002   7.076   2.411  0.0013 -0.1823  0.0208
 4817W        W21665  15.927   2.675  14.192 -0.0491 -0.0331 -0.1696
 4818W        W21666  10.908  13.652  13.450  0.3065  0.0482  0.2338
 4819W        W21667  10.471  14.609  13.607  0.0474 -0.2780  0.2443
 4820W        W21668  15.185   6.168  15.321  0.1971  0.0952  0.3284
 4821W        W21669  16.918   5.885  15.873 -0.2807 -0.0054  0.2966
 4822W        W21670   0.069   0.934   2.477  0.1259 -0.2455 -0.0706
 4823W        W21671   7.526  12.564  15.698  0.0078 -0.0570 -0.0901
 4824W        W21672   2.134  10.778  11.844 -0.2312 -0.1007  0.1565
 4825W        W21673   1.298   2.956   0.760  0.2486 -0.0168  0.0580
 4826W        W21674   2.414  14.359   0.507 -0.0855  0.0046  0.3986
 4827W        W21675   8.817   1.009   4.107  0.2199  0.1544 -0.0050
 4828W        W21676   2.270  10.598   2.818 -0.1257 -0.0813  0.3510
 4829W        W21677  16.394   1.137   4.590 -0.0619  0.1149 -0.0951
 4830W        W21678   0.764   6.256  11.935 -0.0794 -0.0113 -0.0469
 4831W        W21679  15.659   2.748   5.027  0.3401  0.0219 -0.0631
 4832W        W21680  12.385   4.619   1.129 -0.3737 -0.0284 -0.1605
 4833W        W21681   7.062  11.494  15.914 -0.2428  0.3136  0.0923
 4834W        W21682   4.382  13.064   3.823 -0.0100 -0.0402 -0.0603
 4835W        W21683   3.525  15.145   0.215 -0.4544 -0.2241 -0.2263
 4836W        W21684  17.497  11.952  10.640 -0.1194  0.1227  0.1858
 4837W        W21685   5.303  12.816   3.581 -0.1849  0.1067 -0.3835
 4838W        W21686   7.893   1.552   0.978 -0.0133 -0.2394  0.0598
 4839W        W21687   9.949  11.942   2.859  0.1118  0.0874  0.0886
 4840W        W21688  10.074  15.494  15.127  0.1836 -0.1967 -0.2053
 4841W        W21689   6.907  15.346   4.859  0.1614  0.2156 -0.0819
 4842W        W21690   7.236  17.612  14.751 -0.0861  0.1194  0.0349
 4843W        W21691  15.553  16.897   3.787  0.0535 -0.0028  0.0797
 4844W        W21692   0.907  16.107  13.982 -0.0781  0.1320  0.1213
 4845W        W21693  10.145   5.438   2.791  0.0495  0.1920  0.0777
 4846W        W21694  14.599   8.432   2.734 -0.0855 -0.0439  0.2113
 4847W        W21695   2.017   5.202   1.002 -0.2777  0.0561  0.3209
 4848W        W21696   0.291   3.263  16.192  0.0921 -0.1792 -0.3026
 4849W        W21697  15.042  16.298   3.046  0.0630  0.3078  0.2293
 4850W        W21698   9.399  15.071  12.012  0.0387 -0.0151 -0.1960
 4851W        W21699  17.377  15.266  16.033 -0.6071  0.0709 -0.0076
 4852W        W21700  13.329  14.174   4.136  0.0641 -0.4938  0.1966
 4853W        W21701   0.519  15.941  15.682  0.3573 -0.0435  0.1969
 4854W        W21702  17.643   8.858  13.106  0.0595 -0.0940 -0.1373
 4855W        W21703   0.667   7.219  13.223  0.2499 -0.0275 -0.0067
 4856W        W21704   5.836   0.238   3.734  0.2540 -0.2919 -0.0634
 4857W        W21705  13.170  11.408  12.527 -0.3227  0.0331 -0.0252
 4858W        W21706   0.751  14.230  15.263 -0.0036  0.0290 -0.0837
 4859W        W21707   1.524   2.405  14.182  0.0804  0.0514  0.2549
 4860W        W21708   1.355  12.139  12.529  0.2551  0.1563  0.3495
 4861W        W21709  12.749   4.960   4.667  0.2086  0.1535  0.2307
 4862W        W21710  12.863   3.571  14.950  0.2339 -0.0553 -0.0886
 4863W        W21711   0.639   9.244   3.488  0.3048 -0.4544  0.1504
 4864W        W21712  11.181  10.116  10.905  0.2014  0.2393 -0.2134
 4865W        W21713   3.648  11.622  11.729 -0.3486 -0.0254 -0.0480
 4866W        W21714  17.178   7.109  11.654  0.5016  0.2544  0.0382
 4867W        W21715  14.808   4.926  12.489 -0.1359  0.1900  0.2307
 4868W        W21716   2.216  12.173  14.820 -0.0729 -0.2298 -0.3180
 4869W        W21717   9.741  11.558  13.687  0.3514  0.0425  0.0679
 4870W        W21718   4.801  10.625  11.965  0.1201  0.0966  0.2170
 4871W        W21719  14.194   5.725  15.871  0.1741 -0.1728  0.1152
 4872W        W21720   5.239  14.581  13.399  0.2056 -0.2605 -0.0662
 4873W        W21721   3.311   2.934   0.655  0.0848  0.2744  0.2742
 4874W        W21722   3.019  12.145   0.650  0.1994  0.0775  0.1650
 4875W        W21723  10.688   8.660   2.737 -0.0936  0.0842 -0.0420
 4876W        W21724  14.654   5.645   3.754 -0.1611  0.1717 -0.4669
 4877W        W21725   3.799   0.913   2.723  0.1294 -0.0013  0.2445
 4878W        W21726   5.440   8.951  12.817 -0.1059 -0.2519  0.0071
 4879W        W21727  16.643  11.034   1.778  0.0360  0.3542 -0.3165
 4880W        W21728  13.977   0.144   1.153  0.2079 -0.2714 -0.2914
 4881W        W21729   8.652   8.721   2.354 -0.0034 -0.0398  0.1436
 4882W        W21730   7.819  13.038   1.107 -0.0573  0.0691  0.0286
 4883W        W21731  16.353   7.281  13.257 -0.0604  0.0447 -0.3125
 4884W        W21732   2.636   0.087   5.385  0.1286  0.2562 -0.0345
 4885W        W21733  13.918  10.730  12.816 -0.0798  0.1497 -0.0816
 4886W        W21734   4.726   5.220   3.246 -0.0747  0.0432 -0.0284
 4887W        W21735   5.679  13.107   5.665  0.1612  0.0676  0.1674
 4888W        W21736   5.903   9.959  14.702 -0.3152  0.2024  0.3340
 4889W        W21737   7.454  17.419   2.652 -0.1388  0.0232  0.0358
 4890W        W21738   9.755   9.731   3.603 -0.1542 -0.1018  0.0791
 4891W        W21739   3.549  17.397  15.220  0.1820 -0.1737  0.1957
 4892W        W21740  14.511   5.440   1.802 -0.2342  0.2156  0.0136
 4893W        W21741   7.121  12.759   3.819 -0.0640 -0.2310  0.4514
 4894W        W21742   1.776   7.058   1.268  0.2162  0.0688 -0.2719
 4895W        W21743  15.327  17.733   2.295 -0.2578  0.1267 -0.0109
 4896W        W21744   4.756  13.420   4.646 -0.0612  0.2043 -0.1360
 4897W        W21745  16.036  14.126  10.972 -0.1981  0.3803  0.0226
 4898W        W21746  16.244  12.352   3.488 -0.3212  0.0094  0.2370
 4899W        W21747  15.636  11.949   3.901  0.1762  0.4467  0.1496
 4900W        W21748  12.355   5.129  13.666 -0.0389  0.0019  0.0286
 4901W        W21749   1.676  15.396   3.817 -0.1248  0.1626 -0.2483
 4902W        W21750   4.858   6.624   2.146  0.2164  0.1785 -0.0175
 4903W        W21751   4.336   0.943  15.543  0.4982 -0.1141  0.1322
 4904W        W21752   2.585  13.167  14.042  0.0317 -0.1602  0.3098
 4905W        W21753   6.072  13.708   2.178 -0.0067 -0.0008  0.1942
 4906W        W21754  12.342   0.663  14.981  0.0488 -0.1909 -0.1024
 4907W        W21755   8.247   3.538   1.839 -0.2478  0.0041 -0.5115
 4908W        W21756  13.817  10.682   0.168 -0.2935 -0.1542 -0.0184
 4909W        W21757  14.063   2.735   4.860  0.3325 -0.0695  0.3236
 4910W        W21758  17.500   9.009   4.767  0.4285  0.4144  0.1773
 4911W        W21759  14.628   0.105  11.703  0.0261  0.0157  0.0619
 4912W        W21760  12.396  15.011   4.216  0.0594 -0.2405 -0.0290
 4913W        W21761   8.341   1.017   4.339 -0.4082 -0.0781  0.0708
 4914W        W21762  17.801   6.319  15.942  0.1659 -0.0650  0.3065
 4915W        W21763   6.489  14.345  15.416 -0.0475 -0.1790 -0.0085
 4916W        W21764   1.240   2.957  13.474 -0.1518 -0.0699 -0.0163
 4917W        W21765   9.459   6.796  12.994  0.2007 -0.3159 -0.1815
 4918W        W21766   0.455   0.292   4.578  0.0334  0.3412  0.0354
 4919W        W21767   7.874   4.716   5.256  0.1930  0.1014  0.1077
 4920W        W21768   1.544  15.128   1.705 -0.4591 -0.1484 -0.0151
 4921W        W21769  12.820  18.015   2.279 -0.2641  0.2179 -0.0006
 4922W        W21770   8.027   7.510   1.008  0.1916  0.1865 -0.2702
 4923W        W21771  16.842  10.827  14.238  0.3778  0.1107  0.2046
 4924W        W21772  15.462   2.385  13.502  0.0740 -0.2402  0.0789
 4925W        W21773   2.144   0.488   4.715  0.0385  0.1919  0.1364
 4926W        W21774   1.470   5.969   2.377  0.2549  0.1116  0.1306
 4927W        W21775  16.822  12.535   2.906  0.1429  0.0899 -0.4324
 4928W        W21776   6.435  16.513   4.628 -0.1618  0.2016 -0.3617
 4929W        W21777  17.481   7.538   2.264  0.0702 -0.1495  0.1561
 4930W        W21778   2.077  12.556  14.476  0.1372 -0.1859 -0.0977
 4931W        W21779   1.876  15.978  16.257  0.4036  0.1533 -0.0515
 4932W        W21780  16.839   4.795  14.711  0.0221  0.0074 -0.0827
 4933W        W21781   1.762  13.013  16.100  0.2796  0.0667 -0.0878
 4934W        W21782  12.081  17.179  11.276  0.4145  0.1622 -0.0184
 4935W        W21783  11.310   9.297   0.423  0.0767 -0.1103 -0.0880
 4936W        W21784   2.240  14.799  13.844  0.4673 -0.0857 -0.0569
 4937W        W21785   6.187   4.503   4.596 -0.1042  0.3219 -0.0564
 4938W        W21786   1.185  10.666  14.663 -0.0316 -0.0960 -0.1935
 4939W        W21787   5.080   8.600   4.369  0.1126 -0.3071  0.2270
 4940W        W21788  12.017  10.556   0.918  0.2588  0.0764 -0.0638
 4941W        W21789   7.428   8.716  12.140 -0.1006  0.0175 -0.0135
 4942W        W21790  16.477  17.862   0.841  0.2608  0.0853 -0.1393
 4943W        W21791   3.654  16.909   6.010  0.1991  0.0779  0.2998
 4944W        W21792   1.419  13.666   3.673 -0.2771  0.1396  0.0585
 4945W        W21793  17.001   0.287  13.185 -0.1446 -0.2402 -0.0226
 4946W        W21794   5.033   3.819  12.565  0.2230  0.2357 -0.1435
 4947W        W21795   7.090  16.817  13.153 -0.0638  0.1576 -0.0973
 4948W        W21796  16.339  17.629   5.116  0.1082 -0.1783 -0.2201
 4949W        W21797   8.417  15.317   5.211 -0.0322 -0.1263  0.0188
 4950W        W21798  13.462   5.843  11.440 -0.2229 -0.3329  0.0086
 4951W        W21799   7.198  15.067   5.643  0.0068 -0.1031 -0.0094
 4952W        W21800  11.397  10.015  11.994 -0.1812 -0.1583  0.2635
 4953W        W21801  14.814   6.696  10.321  0.1056 -0.0898  0.0811
 4954W        W21802  17.332   4.119   2.814  0.0654 -0.2207 -0.0354
 4955W        W21803   4.741   8.536   0.642  0.0495 -0.1573  0.2905
 4956W        W21804   7.913   2.088   3.335 -0.1003  0.3041 -0.1928
 4957W        W21805   5.736   5.237  16.078  0.3811  0.2461 -0.0020
 4958W        W21806  10.023  15.922  11.640 -0.0457  0.2812 -0.2057
 4959W        W21807  11.348   0.452   0.985  0.3483 -0.1536  0.1414
 4960W        W21808   2.059   2.591  12.931  0.0360  0.2471 -0.2322
 4961W        W21809  17.157  11.260   1.098  0.0697  0.2996 -0.1047
 4962W        W21810   3.910  18.027   0.326 -0.0951 -0.1154 -0.3381
 4963W        W21811   9.256   6.911   2.158 -0.1509 -0.2126 -0.1142
 4964W        W21812   4.641   6.546  15.949 -0.0195  0.0111  0.3118
 4965W        W21813   5.147  12.174  12.802 -0.0441 -0.1368 -0.0513
 4966W        W21814  11.994  10.820  13.557  0.1428 -0.4025 -0.1340
 4967W        W21815   4.642  13.817   4.988  0.1781  0.1222  0.0339
 4968W        W21816   0.987   6.862  15.203 -0.0492 -0.1091  0.3071
 4969W        W21817  15.662   1.386  12.816  0.1014 -0.0040  0.1952
 4970W        W21818   1.159  14.514   3.670 -0.4653 -0.1904 -0.0329
 4971W        W21819  16.150   4.027   0.607 -0.3299  0.1737  0.2692
 4972W        W21820   4.074   7.071   5.623 -0.1226  0.2051 -0.0813
 4973W        W21821  16.942   8.836   2.838  0.0919 -0.1471 -0.1159
 4974W        W21822   4.286   0.316  15.331  0.0875 -0.4373 -0.0904
 4975W        W21823  15.031  12.234  15.554 -0.0032  0.0194 -0.2367
 4976W        W21824  12.711   1.466   0.997 -0.0103 -0.0510  0.0528
 4977W        W21825  11.098  15.003   1.751 -0.0549 -0.0556 -0.0662
 4978W        W21826  17.666   5.366  10.465  0.0289 -0.2847 -0.1754
 4979W        W21827  10.340   9.399  12.245  0.2026 -0.1810 -0.0756
 4980W        W21828   1.087  11.193  12.573 -0.1092  0.0528  0.1763
 4981W        W21829   9.246  10.041  10.855 -0.0753  0.0546 -0.1674
 4982W        W21830  11.004  12.968   0.214  0.1413 -0.2373 -0.0822
 4983W        W21831  16.547   7.699  12.931  0.0602 -0.1200  0.0095
 4984W        W21832  11.540   6.232   0.991 -0.2507  0.4548  0.2305
 4985W        W21833   7.559  15.182  11.893 -0.0722 -0.4511  0.1224
 4986W        W21834   4.277   5.590   2.046  0.2907  0.1316  0.4137
 4987W        W21835   9.445   0.415  15.856 -0.0773  0.0230  0.1428
 4988W        W21836   6.617   1.234  13.340 -0.1150  0.2855 -0.1296
 4989W        W21837   9.984  16.808  15.521 -0.0163  0.2390  0.2173
 4990W        W21838  16.678   7.594  15.427 -0.2254 -0.1144  0.1500
 4991W        W21839   2.406  14.581   5.864  0.0940  0.2131 -0.0061
 4992W        W21840   8.070  12.036  12.289  0.0004  0.0135 -0.0107
 4993W        W21841   1.153   0.772  12.037  0.0310 -0.0290 -0.1186
 4994W        W21842  15.744   6.985   0.578  0.4733  0.2457  0.1263
 4995W        W21843  17.784   8.558  14.347 -0.0823 -0.0312  0.0480
 4996W        W21844  13.636   8.899   4.143  0.1444  0.3252 -0.1468
 4997W        W21845   7.212  15.517  14.034  0.1143 -0.2873 -0.5089
 4998W        W21846  15.527   3.916   5.649  0.0432  0.2559 -0.1511
 4999W        W21847   9.520  11.371  13.136 -0.1673  0.1133 -0.1786
 5000W        W21848  10.242  12.067   4.673  0.1490 -0.0896 -0.2851
 5001W        W21849  15.951  12.215   1.260 -0.2289  0.0514 -0.0854
 5002W        W21850   7.483  10.167  11.282  0.0850 -0.2116  0.1256
 5003W        W21851   3.268   5.088   1.089 -0.1376  0.1109  0.1374
 5004W        W21852   6.282   9.822  16.129 -0.1374  0.1791 -0.2601
 5005W        W21853  16.151  17.442   3.858  0.1375 -0.0212  0.0540
 5006W        W21854   4.335  13.515  15.771  0.0072  0.1369 -0.2725
 5007W        W21855  12.706  10.710  14.643 -0.0448 -0.2488  0.0615
 5008W        W21856  14.153   4.136  13.269  0.3341 -0.1619 -0.0891
 5009W        W21857  17.051  17.568   3.833  0.1074  0.0220  0.1799
 5010W        W21858   2.809  15.080   2.466 -0.0229 -0.2997 -0.1218
 5011W        W21859   4.981   7.737   2.992 -0.2172  0.0642  0.4310
 5012W        W21860  17.889   8.934  15.735 -0.0578  0.2835  0.2544
 5013W        W21861  16.344   0.418   1.430 -0.3885 -0.2928  0.1457
 5014W        W21862   6.169  14.753   4.772 -0.0517  0.0590 -0.1260
 5015W        W21863   7.212  15.371   6.095 -0.0592  0.0733  0.0589
 5016W        W21864   2.441  15.661   3.114  0.2201 -0.1535 -0.1154
 5017W        W21865   3.671   9.411  16.067 -0.2087  0.1391 -0.1145
 5018W        W21866   0.797   5.112   1.794 -0.0412  0.2021  0.0520
 5019W        W21867  11.038   7.847  11.236  0.0373  0.0455  0.2345
 5020W        W21868   1.384   5.087  13.249  0.0048 -0.2039 -0.2613
 5021W        W21869  14.492  12.466  10.462 -0.3784  0.0730 -0.4176
 5022W        W21870  13.306  13.083  11.560 -0.0893 -0.3243 -0.2004
 5023W        W21871   1.919   4.962  12.461 -0.0711  0.0633 -0.1155
 5024W        W21872  10.490   9.014  11.817  0.0392  0.0294 -0.1138
 5025W        W21873   0.498  17.489   4.587 -0.0600  0.2470 -0.1103
 5026W        W21874  17.095   2.412   4.934 -0.2925 -0.0890  0.2454
 5027W        W21875  16.040   7.294  14.025 -0.1305 -0.1550  0.1119
 5028W        W21876   5.008  12.927   5.944 -0.0068  0.1157  0.0361
 5029W        W21877   5.186  12.136  11.215 -0.2785 -0.0128  0.4231
 5030W        W21878  12.183   4.072   0.407  0.1121  0.0779  0.0136
 5031W        W21879   3.411  13.655   1.498  0.3261  0.0537 -0.1682
 5032W        W21880   5.235   5.682  12.762  0.2584  0.3199  0.1699
 5033W        W21881   3.638  16.767  13.569 -0.0368  0.3646  0.3539
 5034W        W21882  11.420   1.065  12.045  0.0779 -0.0603 -0.0467
 5035W        W21883  11.976   6.551  16.079 -0.0618  0.4516  0.2428
 5036W        W21884   9.083   6.821  12.647 -0.1361 -0.0422  0.0365
 5037W        W21885   2.874   8.063   1.307  0.0047 -0.0041 -0.0736
 5038W        W21886   8.297  10.996   3.754 -0.1628  0.1784  0.1914
 5039W        W21887  13.094   0.412  10.227  0.0897 -0.2288 -0.0259
 5040W        W21888   6.655  11.140  12.714  0.3313 -0.0912 -0.0852
 5041W        W21889   5.588  17.235  14.999  0.0139 -0.4956 -0.0449
 5042W        W21890  14.773   1.330  14.373 -0.1908  0.1223 -0.1529
 5043W        W21891   0.951  15.104   2.930  0.0089  0.0404 -0.0453
 5044W        W21892   2.468   3.826  13.079 -0.1822  0.1844  0.0351
 5045W        W21893   5.278   6.792   4.901 -0.1845 -0.1071  0.1865
 5046W        W21894   5.584  11.410  13.819 -0.1285 -0.1903 -0.1005
 5047W        W21895  11.215  12.603   5.599  0.2220 -0.2503  0.0525
 5048W        W21896  10.988   0.006  14.522  0.1139 -0.0126 -0.0956
 5049W        W21897   6.475   2.266  11.758  0.1111  0.0684 -0.0610
 5050W        W21898  12.437  15.996   5.281 -0.1728 -0.1256 -0.3684
 5051W        W21899  14.566   1.218  11.398  0.0192  0.0474  0.0976
 5052W        W21900  14.348   5.694  13.005  0.1791 -0.3198  0.2005
 5053W        W21901   4.740  13.375   5.163 -0.0569 -0.1158  0.2760
 5054W        W21902  17.657  15.325  13.382 -0.3394  0.1167 -0.1669
 5055W        W21903   9.224   3.725   4.078 -0.0629 -0.1535 -0.0360
 5056W        W21904  12.234  10.868   5.166  0.0309  0.0814 -0.1292
 5057W        W21905  14.033  17.973   2.558 -0.2947 -0.3159 -0.0062
 5058W        W21906   0.013   0.448   1.737 -0.1361 -0.0712 -0.0136
 5059W        W21907  17.994   8.483   4.976  0.1169 -0.1607 -0.1494
 5060W        W21908  12.170   9.594   0.457 -0.3195  0.2502 -0.4774
 5061W        W21909  11.632   7.009  13.871 -0.1129 -0.2520 -0.1007
 5062W        W21910   2.136   0.446  13.774 -0.1421 -0.2334  0.0215
 5063W        W21911   8.638   4.574  10.223  0.2133 -0.2165  0.0632
 5064W        W21912  15.468   3.021  11.906  0.2069  0.1185 -0.1176
 5065W        W21913   9.261   7.638   3.207  0.0698 -0.0987  0.3237
 5066W        W21914  10.155   7.594   3.623  0.1539 -0.3172 -0.0760
 5067W        W21915   8.042   2.333   3.792  0.2651  0.1654 -0.2534
 5068W        W21916  14.157   6.130   1.291  0.2198  0.0749 -0.1287
 5069W        W21917   4.260   5.466  12.833  0.1255  0.0328  0.1130
 5070W        W21918  10.518   0.246   6.205 -0.1056  0.1157 -0.3290
 5071W        W21919   3.483   5.646  14.646  0.0719  0.1414 -0.1143
 5072W        W21920   2.083   7.771   0.266  0.0888  0.0257  0.0879
 5073W        W21921  17.700   5.907   0.780  0.1136  0.1858 -0.0051
 5074W        W21922   0.858  13.080   2.565  0.1239 -0.1264 -0.1112
 5075W        W21923  15.949  12.368  14.068 -0.4951  0.0475 -0.0847
 5076W        W21924  14.448   6.668   0.570  0.0172 -0.1011  0.2046
 5077W        W21925   8.294   3.298   4.987  0.0115 -0.0782 -0.0419
 5078W        W21926   6.494   7.185  15.723  0.2223 -0.0386  0.0558
 5079W        W21927  11.386  13.875  12.157 -0.0103  0.0621  0.3146
 5080W        W21928  13.237  16.695  15.094 -0.2221 -0.1785 -0.1419
 5081W        W21929  11.165   8.485  12.881 -0.0629 -0.2444  0.0915
 5082W        W21930   5.549   1.018   0.009 -0.3457 -0.2146  0.0668
 5083W        W21931  17.418   3.713  11.086  0.0735  0.0132 -0.0650
 5084W        W21932  12.001   1.931   0.734  0.0059 -0.1916  0.0031
 5085W        W21933   8.341  14.855   3.943 -0.0902 -0.2465  0.0959
 5086W        W21934  15.388  15.577   4.959 -0.1759  0.1094  0.1664
 5087W        W21935   8.949   8.731  15.344  0.3689  0.0306 -0.1817
 5088W        W21936  12.940   7.322  13.857 -0.0497  0.0325  0.1692
 5089W        W21937   6.546   7.832   0.560  0.0360  0.1341 -0.0994
 5090W        W21938  16.539  14.505   4.483  0.3034 -0.3690 -0.0756
 5091W        W21939   5.046  17.289   0.627 -0.0502 -0.0315 -0.3122
 5092W        W21940   7.878   0.837   4.215 -0.2449 -0.1538  0.1334
 5093W        W21941   4.863  11.343  11.100  0.1677 -0.2460  0.1464
 5094W        W21942  11.523  14.947  14.293 -0.0584 -0.0745 -0.1770
 5095W        W21943   9.436  18.027  10.904 -0.2330  0.0339  0.0462
 5096W        W21944  10.827   5.747   3.237 -0.2170 -0.0489 -0.2188
 5097W        W21945  17.345   5.976   2.489  0.1346  0.1787 -0.1725
 5098W        W21946   7.114   7.254  13.421 -0.0441  0.1556 -0.0634
 5099W        W21947   4.114   2.916  16.083 -0.0254  0.1465  0.0567
 5100W        W21948   4.656   8.833  15.497  0.1669  0.1009  0.1585
 5101W        W21949   2.310   0.904  14.636  0.1442 -0.0477  0.3818
 5102W        W21950   2.819  12.267   2.338  0.1905 -0.2784 -0.3673
 5103W        W21951   5.805   9.934   2.866 -0.2231  0.1185  0.2175
 5104W        W21952   8.122  11.358   3.340 -0.0274 -0.1956  0.1265
 5105W        W21953  10.872  13.215  13.120  0.2396 -0.1628 -0.0609
 5106W        W21954  16.335   8.123  14.778 -0.0172  0.0652 -0.3440
 5107W        W21955   8.366   8.609   3.257 -0.1245  0.4834 -0.1085
 5108W        W21956   8.662   8.198   3.443 -0.0231 -0.0432  0.1065
 5109W        W21957   6.310  12.899  14.515  0.0648 -0.3308  0.1293
 5110W        W21958   5.400   0.866  13.979 -0.2685 -0.2372  0.1293
 5111W        W21959   1.240   0.365  14.392 -0.2842 -0.2463  0.1710
 5112W        W21960   8.877   2.243   3.793  0.0511  0.0756 -0.0979
 5113W        W21961   0.823   3.731  13.670 -0.0375 -0.3415  0.0658
 5114W        W21962  16.823   2.435   4.367  0.1025  0.0604  0.3052
 5115W        W21963   9.147  13.820  11.760 -0.1294  0.1074 -0.3861
 5116W        W21964  14.939   6.421   4.898  0.0313  0.1210 -0.3183
 5117W        W21965  17.486  13.141  11.445  0.4393  0.1933 -0.1229
 5118W        W21966  13.423  11.008  16.235 -0.3718 -0.2073  0.2194
 5119W        W21967  11.030  12.605   4.320 -0.0428  0.2975  0.1436
 5120W        W21968   0.956   0.371   3.439  0.1471  0.1269  0.1187
 5121W        W21969   3.278   5.620  16.068  0.0473  0.0854  0.1897
 5122W        W21970  12.483   5.526   5.445 -0.2341  0.0435 -0.2957
 5123W        W21971   0.228  15.403   2.588  0.1846 -0.3486 -0.1351
 5124W        W21972   7.633   6.816  12.165  0.1539  0.3477  0.0063
 5125W        W21973   6.667   9.631   0.141 -0.3597 -0.0333  0.0211
 5126W        W21974   8.519  17.394   2.627 -0.1653  0.0559 -0.1094
 5127W        W21975  17.865  14.074   0.005 -0.0908 -0.0214 -0.2692
 5128W        W21976   6.772  12.678  14.699  0.3571  0.0075  0.0852
 5129W        W21977   7.664  14.423   0.612 -0.0456  0.1862 -0.0646
 5130W        W21978   8.458  17.729   4.948  0.0969 -0.0001  0.1261
 5131W        W21979   8.753   6.882   4.012  0.0515 -0.1316  0.0203
 5132W        W21980  16.446   4.068   2.582 -0.2200 -0.1489  0.0988
 5133W        W21981   0.985   3.176  12.085 -0.1496 -0.2142 -0.1739
 5134W        W21982   3.725   6.964  11.276 -0.2816  0.0671 -0.0339
 5135W        W21983  16.342   0.514   3.024 -0.1229  0.4007 -0.0363
 5136W        W21984   7.915  10.687  14.594 -0.0505 -0.0291 -0.0830
 5137W        W21985   5.232  14.425   2.476 -0.0574 -0.0209  0.0390
 5138W        W21986   3.817   4.668  13.328  0.0650 -0.4178  0.1473
 5139W        W21987   4.563  14.966   4.721 -0.4101 -0.0659  0.0436
 5140W        W21988   7.402   3.708  12.549  0.0010 -0.0964 -0.2598
 5141W        W21989  11.432   6.321  13.862 -0.1677  0.0370 -0.0290
 5142W        W21990  13.382   9.630   1.506  0.3419  0.3299  0.4391
 5143W        W21991   8.723   1.257  12.561  0.3089 -0.1480  0.1946
 5144W        W21992  10.600   5.457   3.762  0.2562  0.1744  0.1552
 5145W        W21993  16.177  16.065   0.515 -0.0135 -0.1332  0.1307
 5146W        W21994   9.674   8.823  13.442  0.1191  0.1133  0.0326
 5147W        W21995   7.389   0.520   2.049 -0.2035  0.0576  0.2031
 5148W        W21996   4.623   8.831   4.448  0.4355  0.0481 -0.1405
 5149W        W21997   4.778  14.502  11.228  0.0973 -0.1472 -0.1128
 5150W        W21998   5.672   9.226  13.495 -0.1048  0.2028 -0.0804
 5151W        W21999  13.179   4.247   2.442  0.0328 -0.0599 -0.2173
 5152W        W22000   7.240  16.745  14.657 -0.0057  0.1337  0.0474
 5153W        W22001   8.454   9.549  15.869 -0.1790  0.1695 -0.1511
 5154W        W22002  16.576  10.721  12.629  0.0909 -0.1367  0.1946
 5155W        W22003  16.105   5.710   3.847 -0.4033 -0.3129  0.3542
 5156W        W22004   4.705  15.136  12.819 -0.0209 -0.1920  0.0276
 5157W        W22005   4.960   5.221   0.342 -0.1668 -0.0997 -0.3187
 5158W        W22006   8.989  17.831  15.846  0.1796  0.2830  0.1189
 5159W        W22007   5.863   2.318   2.857 -0.0738  0.1885  0.0486
 5160W        W22008  17.096  11.299   1.880 -0.2556 -0.1611 -0.0853
 5161W        W22009  16.690   4.857   1.283  0.3504 -0.0723  0.1108
 5162W        W22010   1.646   6.838   3.870 -0.1264  0.1568 -0.0125
 5163W        W22011   0.280  11.452  16.115 -0.6190  0.0957  0.1567
 5164W        W22012   2.842  11.442  13.138 -0.1814 -0.1402 -0.1947
 5165W        W22013  14.114  11.412  15.804  0.1081 -0.1033  0.1596
 5166W        W22014   3.236  11.963   4.401  0.0303 -0.0706 -0.0823
 5167W        W22015  16.850   8.005   1.687 -0.1638  0.3446  0.0401
 5168W        W22016  12.658   9.930  14.885  0.0898  0.0994  0.0218
 5169W        W22017   0.764   8.891  13.605 -0.1948  0.2215  0.1826
 5170W        W22018   7.080   0.601   5.776 -0.3254  0.0432 -0.1014
 5171W        W22019   3.429   8.242  14.956 -0.2396  0.2260  0.1001
 5172W        W22020  10.542   9.150  13.970  0.1777 -0.0264  0.0627
 5173W        W22021  11.517   3.837  12.857  0.2103 -0.0934  0.1787
 5174W        W22022  16.158  14.063   2.983 -0.0387 -0.2177 -0.0720
 5175W        W22023  15.884  11.475   3.718 -0.2900  0.1352 -0.1291
 5176W        W22024   0.575   5.188  13.110  0.3139 -0.0344  0.2055
 5177W        W22025   9.086  14.937  16.275  0.0647 -0.0842 -0.1482
 5178W        W22026  10.350   3.762  11.570 -0.1453 -0.0495  0.2611
 5179W        W22027  14.061   0.580  15.429  0.0623 -0.1159  0.2007
 5180W        W22028   0.347   1.620   2.902 -0.1799 -0.3115 -0.0578
 5181W        W22029  14.135  11.853  14.260 -0.1326 -0.0634 -0.0758
 5182W        W22030   5.499  13.018  15.623 -0.0270  0.2343 -0.0046
 5183W        W22031   3.818  17.298  14.771  0.0580  0.2333 -0.0972
 5184W        W22032  14.168   4.548  14.393  0.0516  0.0500  0.1753
 5185W        W22033   2.310   5.797   3.462  0.2181  0.2450 -0.0297
 5186W        W22034   4.838   2.651  15.838 -0.3091 -0.2850 -0.2925
 5187W        W22035  12.167   5.111  12.820  0.1263  0.0314 -0.1300
 5188W        W22036   8.121   9.140   3.319  0.0153  0.0466 -0.0259
 5189W        W22037   9.675  11.589   0.398  0.1185 -0.0392  0.0236
 5190W        W22038  16.199  12.983   0.683  0.1053  0.0627 -0.4312
 5191W        W22039  17.411   1.576   2.694  0.0462  0.1642  0.0071
 5192W        W22040  16.470  13.482  15.877  0.0719  0.0391 -0.1452
 5193W        W22041  15.518  10.098  13.303 -0.0325  0.1312  0.0377
 5194W        W22042   7.406   1.349  15.243  0.4896  0.1285  0.0320
 5195W        W22043  15.465  12.698  11.281  0.1931  0.1792  0.0578
 5196W        W22044  13.454  13.875  14.398 -0.1603  0.0174 -0.1568
 5197W        W22045  14.831  15.359   4.504 -0.0989  0.0301 -0.2484
 5198W        W22046  10.847   5.719   1.629  0.2045 -0.0432 -0.1040
 5199W        W22047  11.094   1.446   4.419 -0.0975 -0.0363 -0.0152
 5200W        W22048   2.240   8.345   4.198  0.2365  0.1859 -0.2367
 5201W        W22049  10.585   1.371  12.819 -0.1659  0.3115 -0.0855
 5202W        W22050   6.771  13.147   3.938  0.1794  0.4677  0.1469
 5203W        W22051   6.614   5.555   2.170 -0.0954 -0.1667  0.0298
 5204W        W22052   7.935   2.459  15.569 -0.1855 -0.1940 -0.2546
 5205W        W22053   8.972   6.004  13.256  0.2776 -0.1105  0.1539
 5206W        W22054   4.820  10.440   4.699  0.1037  0.4349  0.0299
 5207W        W22055  13.923   8.512   5.119  0.0246 -0.0263  0.1069
 5208W        W22056   2.770  16.065   0.989  0.1932  0.1133 -0.1357
 5209W        W22057  11.187   0.244   3.189  0.2307  0.1548 -0.0025
 5210W        W22058   0.587   1.564   0.581 -0.1058 -0.0657 -0.4310
 5211W        W22059  15.394  12.162   1.239  0.0005  0.3300 -0.1222
 5212W        W22060   8.320   8.936   2.688 -0.0115 -0.1405 -0.2048
 5213W        W22061   2.101  10.069   3.469  0.2618 -0.0183  0.1516
 5214W        W22062   8.368   8.608  11.055  0.0990  0.0896  0.3202
 5215W        W22063   7.549   5.936  13.526 -0.2190  0.1341 -0.1562
 5216W        W22064   8.530   5.647  13.260 -0.0734 -0.1085 -0.0512
 5217W        W22065   4.061   8.845   4.626 -0.2329 -0.1242 -0.4405
 5218W        W22066  15.269  14.720  14.779  0.2377 -0.1327 -0.1233
 5219W        W22067  16.017  11.686   4.154  0.1514 -0.1611 -0.0973
 5220W        W22068  16.392   9.295  15.499  0.0540  0.0640  0.1186
 5221W        W22069  13.165  13.192   1.447  0.2724  0.0730 -0.1535
 5222W        W22070   9.313   7.900   3.941 -0.0481 -0.1995 -0.1333
 5223W        W22071  12.623   4.801   2.080 -0.3111  0.0583  0.2052
 5224W        W22072   0.968  14.001  14.870 -0.0137 -0.0729  0.3726
 5225W        W22073   7.879   6.306  13.004 -0.0413 -0.0876 -0.1075
 5226W        W22074  16.278   3.883  11.909  0.2015  0.1629 -0.0022
 5227W        W22075  15.704   3.515   3.005  0.0062 -0.0270  0.4818
 5228W        W22076  17.626  14.414  11.299  0.2301 -0.1207 -0.0120
 5229W        W22077  17.106   0.877   2.649 -0.1849  0.1565 -0.0017
 5230W        W22078   9.352  15.676  14.155  0.3285  0.1004 -0.2214
 5231W        W22079  13.208   6.361  12.717 -0.2792  0.3704  0.0568
 5232W        W22080   8.159  11.981   3.181  0.1376 -0.3203 -0.3585
 5233W        W22081  16.544   5.583  15.231 -0.0383 -0.0136  0.1295
 5234W        W22082  16.957   7.978  13.301  0.3386 -0.4260 -0.0426
 5235W        W22083  11.041   4.824   1.598  0.0992  0.1625 -0.0352
 5236W        W22084  15.042  14.176   2.651 -0.3377  0.2806 -0.2253
 5237W        W22085   4.495  16.415   5.159  0.1144  0.0848 -0.0730
 5238W        W22086   6.708   8.378   5.522 -0.0065 -0.3972  0.2148
 5239W        W22087   9.858   3.311   4.284  0.0828  0.1673  0.2257
 5240W        W22088   1.648   8.293  14.474 -0.0894  0.0622  0.3657
 5241W        W22089  14.817   9.097   4.888 -0.1642 -0.0156  0.2197
 5242W        W22090  10.718   0.487   0.471 -0.4053 -0.0165  0.0985
 5243W        W22091  16.370   5.850   4.418  0.1211  0.2311 -0.0287
 5244W        W22092  12.164   2.694   2.335 -0.1803  0.2307  0.1594
 5245W        W22093  12.516  17.772  13.344 -0.2306  0.1476  0.1591
 5246W        W22094  12.707   1.604   1.477  0.0071 -0.1083  0.2184
 5247W        W22095   4.459  10.503   3.925  0.1753 -0.3635 -0.0036
 5248W        W22096   7.524   8.961  11.646  0.2703 -0.0810 -0.3113
 5249W        W22097   9.910   4.354  14.730  0.3143 -0.0556  0.0793
 5250W        W22098   4.498   8.653  12.699 -0.1659 -0.2960  0.2796
 5251W        W22099   1.765   6.013   3.572 -0.1324 -0.1646 -0.0527
 5252W        W22100  13.245   0.672   4.007  0.2127 -0.0737 -0.1565
 5253W        W22101  14.828   9.683   1.677 -0.1592 -0.0710  0.1002
 5254W        W22102  15.288   2.441   0.255 -0.2478  0.0533  0.0471
 5255W        W22103   6.011  10.967  13.533 -0.0080  0.1425  0.2807
 5256W        W22104   7.116  12.612  13.024  0.3193 -0.0543 -0.1008
 5257W        W22105  12.813   0.434  14.939  0.2566 -0.1168  0.1437
 5258W        W22106   0.859   0.857  12.545 -0.3486  0.0540 -0.0789
 5259W        W22107   3.273   3.135  15.160 -0.1284  0.0321  0.2252
 5260W        W22108   6.473  16.457   2.916  0.0429  0.2473  0.1820
 5261W        W22109  12.333   3.649   5.342  0.2094 -0.0339  0.2635
 5262W        W22110  13.452  15.868   2.303 -0.0627  0.1495 -0.0962
 5263W        W22111  10.885   8.712  12.492  0.0803  0.0001 -0.1739
 5264W        W22112  15.026  11.510   4.383 -0.0177  0.0437  0.2667
 5265W        W22113  13.306   3.353   1.389  0.1599  0.0191  0.2045
 5266W        W22114   9.641  14.717   3.274  0.2033  0.0338 -0.3615
 5267W        W22115   1.715  11.608   3.585  0.0652  0.1982  0.0421
 5268W        W22116   4.234   5.507   0.120 -0.2125 -0.0747  0.0130
 5269W        W22117   5.171   2.608   3.548  0.0464  0.2981  0.3300
 5270W        W22118  16.344  13.089   1.904 -0.0812  0.0759 -0.5011
 5271W        W22119   3.233  12.541   2.383  0.5488  0.2439  0.0623
 5272W        W22120  17.425  17.939   3.714 -0.4008 -0.3144  0.0062
 5273W        W22121   7.965   4.229   3.034 -0.3955 -0.1550  0.2234
 5274W        W22122   6.176  14.474  12.507  0.3754 -0.2874 -0.0756
 5275W        W22123   2.803   2.444   4.257 -0.2391  0.1287  0.3631
 5276W        W22124  16.840  17.756   1.132 -0.0617 -0.1805 -0.1433
 5277W        W22125  11.474   3.903  10.746 -0.2983 -0.0474 -0.2258
 5278W        W22126   4.593   8.276   3.589  0.0791 -0.2352 -0.1429
 5279W        W22127   3.678  17.779  13.369 -0.2873 -0.1604  0.1802
 5280W        W22128   1.437   1.378  11.484  0.2374  0.0987  0.0789
 5281W        W22129  16.843  15.581  13.953  0.0278 -0.0766 -0.0715
 5282W        W22130   5.551  10.239   2.143 -0.0770 -0.0676 -0.0394
 5283W        W22131   6.264   8.808  12.844 -0.0620 -0.0151  0.0602
 5284W        W22132   7.728   4.416  12.475  0.3248  0.2602 -0.1152
 5285W        W22133  11.385  15.114  15.550 -0.2818 -0.0388  0.0860
 5286W        W22134  17.305   3.129  12.262  0.1952  0.1887 -0.2544
 5287W        W22135  11.747   7.682   3.823  0.5341 -0.0381 -0.0686
 5288W        W22136  15.432  11.410   2.881  0.1212  0.0485  0.1211
 5289W        W22137   7.696   7.285  14.683  0.3725 -0.1566  0.1003
 5290W        W22138  13.986  17.213   1.338  0.1291  0.1937  0.0494
 5291W        W22139   3.432   1.357  14.292  0.1935 -0.0092 -0.1661
 5292W        W22140   2.469  17.166  15.375  0.1416  0.0911 -0.1584
 5293W        W22141   0.264  16.963  12.884  0.2829  0.2696 -0.3230
 5294W        W22142   9.390   1.326  14.556 -0.2193 -0.0792  0.2220
 5295W        W22143   0.563  16.813   5.454  0.1791 -0.3048 -0.2354
 5296W        W22144   5.330  15.694  12.727 -0.1097 -0.4377 -0.3338
 5297W        W22145   9.368  14.714   0.481 -0.0032 -0.2205 -0.0886
 5298W        W22146  17.242   0.787   3.686  0.4008  0.0476  0.1965
 5299W        W22147   2.376   1.886   0.102 -0.0614 -0.1841 -0.0691
 5300W        W22148   5.877   9.905   1.910  0.2092  0.0801  0.1886
 5301W        W22149   8.020  10.664   1.687 -0.0478  0.0925 -0.0144
 5302W        W22150  14.515  10.542   1.190  0.0605  0.0752  0.0294
 5303W        W22151   1.003  12.200  12.152 -0.1106 -0.2194  0.1768
 5304W        W22152   3.260   9.946  13.332 -0.1420  0.0839 -0.2908
 5305W        W22153   3.068   4.117   1.216  0.0683  0.1097 -0.1090
 5306W        W22154   4.435   4.976   0.868  0.2134  0.0243  0.0853
 5307W        W22155   6.154  14.569  11.041  0.1813  0.0438 -0.1913
 5308W        W22156   1.253   6.971   5.044 -0.1376  0.1231 -0.0428
 5309W        W22157   4.777   6.469  14.783  0.4487 -0.3557  0.0349
 5310W        W22158   8.002  12.155   5.792 -0.2989 -0.2689  0.1976
 5311W        W22159  12.436  15.013   4.733 -0.0765  0.2216 -0.1302
 5312W        W22160   8.357   5.540  15.688  0.0729  0.2728 -0.0649
 5313W        W22161  12.473  15.841   4.391 -0.0275  0.1190 -0.0753
 5314W        W22162   4.031   1.499   4.379 -0.3299 -0.0720 -0.3234
 5315W        W22163  10.232  10.783   1.905  0.0200 -0.0928 -0.1992
 5316W        W22164   9.616  14.502   6.178 -0.3899  0.0599  0.4239
 5317W        W22165   2.595  10.523  13.770 -0.1778 -0.0405  0.2878
 5318W        W22166   3.873   5.711  14.323  0.0738  0.1452  0.2683
 5319W        W22167   6.006  17.401  12.605  0.1299 -0.0347  0.0605
 5320W        W22168  15.509  11.301  15.621 -0.0866  0.1565 -0.0305
 5321W        W22169   4.803  16.292   3.518  0.4807 -0.1473 -0.4207
 5322W        W22170   0.848   5.671   5.173  0.0620 -0.1017  0.4355
 5323W        W22171   0.240   8.894   1.168 -0.0011 -0.1717  0.0058
 5324W        W22172   4.005   2.204   5.620 -0.0561 -0.0107  0.1267
 5325W        W22173  14.974  15.262   3.601  0.2618 -0.0709  0.1166
 5326W        W22174   9.684  15.167   4.449  0.0386 -0.0931  0.4129
 5327W        W22175  15.865   5.036   0.955 -0.2150 -0.1348 -0.1890
 5328W        W22176   1.869   3.378   1.547 -0.0564 -0.0356 -0.2042
 5329W        W22177   1.671  10.584  12.561  0.0522 -0.1817  0.0802
 5330W        W22178   0.354   2.630  13.023 -0.1489  0.1272  0.1044
 5331W        W22179   8.818  17.776   0.001 -0.2050 -0.0087 -0.2296
 5332W        W22180   1.934  17.893   2.000 -0.1694 -0.1169 -0.1963
 5333W        W22181   0.648  15.765  14.377  0.1325  0.1463 -0.3607
 5334W        W22182   5.770   5.100  13.524 -0.2460 -0.2757 -0.1498
 5335W        W22183  11.447   2.834   4.455 -0.1572 -0.1731 -0.2931
 5336W        W22184   2.939   6.573  13.362 -0.0740 -0.1325  0.4796
 5337W        W22185   3.959   1.149  11.848 -0.2080  0.2725 -0.1997
 5338W        W22186   1.206   1.252  13.887 -0.0651 -0.2535  0.2880
 5339W        W22187  14.917   5.718  15.299 -0.3668 -0.0612 -0.0313
 5340W        W22188   9.958  12.767  12.838  0.0965 -0.0078  0.4015
 5341W        W22189   0.725  17.813   1.242 -0.1590  0.2186 -0.0344
 5342W        W22190   6.710   6.639   0.576  0.3137 -0.2901  0.1094
 5343W        W22191  17.703  13.686   0.653  0.2424 -0.0832  0.0824
 5344W        W22192  16.059   5.174  14.223 -0.0220 -0.2314  0.2114
 5345W        W22193   4.520  14.829   1.768 -0.1632  0.1898 -0.3144
 5346W        W22194   4.719  12.126  15.633 -0.0390 -0.0293  0.2733
 5347W        W22195   6.903  17.423   2.149  0.2607  0.1865  0.0453
 5348W        W22196  14.251   5.888   0.818 -0.0819  0.2582 -0.1533
 5349W        W22197   3.641   3.999   3.763  0.0250  0.3676 -0.3094
 5350W        W22198   4.784   7.134   2.126 -0.2274 -0.0519 -0.2880
 5351W        W22199   0.647   2.870   2.993 -0.3054 -0.1121  0.0619
 5352W        W22200   3.276   9.998   0.178  0.5397  0.2154  0.0437
 5353W        W22201  10.005  12.725  10.481 -0.0346  0.0875  0.2401
 5354W        W22202  14.177   7.988  15.049 -0.0466 -0.0409  0.0017
 5355W        W22203   2.603   6.351  14.518 -0.1737 -0.1786  0.1484
 5356W        W22204  17.968  14.843  12.666  0.0106  0.1071  0.2179
 5357W        W22205  15.429  12.344   3.126  0.2390 -0.0489  0.0201
 5358W        W22206   5.585   8.111  15.598  0.0627  0.1595  0.0930
 5359W        W22207  11.085  14.579   0.483 -0.0830  0.0094  0.1461
 5360W        W22208  16.449   3.033  13.687  0.0860  0.1035  0.0552
 5361W        W22209  17.960  16.292  11.905  0.0658  0.0416  0.1678
 5362W        W22210   6.049  15.592  13.424 -0.1321 -0.1342  0.2432
 5363W        W22211  10.361   7.199  10.436 -0.4691 -0.1037 -0.1670
 5364W        W22212   2.000  15.911  14.051 -0.1473 -0.0592  0.1256
 5365W        W22213  13.828  10.083   3.294 -0.3812 -0.4198 -0.0354
 5366W        W22214  11.143  11.723   2.646  0.2230 -0.0854 -0.1606
 5367W        W22215   0.094  14.996   2.331  0.1422  0.1378 -0.0951
 5368W        W22216   3.470  14.986  11.561 -0.1963 -0.0426 -0.1300
 5369W        W22217  12.555   8.963  14.308  0.1189  0.2815  0.0411
 5370W        W22218   6.602   4.153   3.843  0.1303 -0.0353  0.2413
 5371W        W22219  13.183  16.503   3.474 -0.1578  0.1235  0.2997
 5372W        W22220   7.188  10.259  13.790 -0.0569 -0.2456  0.0987
 5373W        W22221  14.439   4.141   2.272  0.0182  0.3371 -0.0598
 5374W        W22222   0.258   5.267  12.544  0.0297  0.0252  0.0593
 5375W        W22223   3.513  11.128  13.668 -0.4883  0.2002 -0.3123
 5376W        W22224   4.649   1.888  11.872 -0.0096  0.1616 -0.2237
 5377W        W22225  14.962   6.960  15.739  0.1905 -0.2691  0.3613
 5378W        W22226  12.569  14.124   1.358  0.0919  0.0447 -0.0278
 5379W        W22227   4.853  11.514   3.052  0.2160 -0.0184  0.2090
 5380W        W22228  10.803  11.981  12.163  0.2552 -0.0014 -0.1496
 5381W        W22229  12.211   2.778   2.839 -0.2585 -0.2288  0.0976
 5382W        W22230  14.362  13.565   5.238  0.1714  0.0389  0.3133
 5383W        W22231   7.277  16.386   2.861  0.2857 -0.0902 -0.2461
 5384W        W22232  17.716  16.276   2.439 -0.1920 -0.0832 -0.2371
 5385W        W22233  10.840   1.388  13.315  0.0212 -0.1346 -0.0036
 5386W        W22234  12.961  12.110   2.558  0.2583  0.1506 -0.0134
 5387W        W22235  15.262   5.424  14.274 -0.1316  0.0008  0.0616
 5388W        W22236   6.769  12.140  15.132  0.0627  0.3571  0.1165
 5389W        W22237  14.736   9.882  15.632 -0.0490 -0.0996  0.0446
 5390W        W22238   6.781   0.262   4.729  0.1965 -0.4004 -0.0050
 5391W        W22239  12.420   4.979   4.257 -0.0516  0.1132 -0.2947
 5392W        W22240   6.646   8.670   4.189  0.1209 -0.0320 -0.0318
 5393W        W22241  12.432  13.232  11.434  0.0397 -0.3904  0.0637
 5394W        W22242   9.868  13.553   1.773 -0.0707  0.0691 -0.0932
 5395W        W22243   2.499  15.832   4.507 -0.2187 -0.2344  0.1612
 5396W        W22244   2.916  14.064   4.048  0.1338  0.3390 -0.0564
 5397W        W22245  15.706   7.642  14.130 -0.2568 -0.2153 -0.0078
 5398W        W22246  17.808  10.726  14.411  0.0807 -0.2549 -0.1197
 5399W        W22247  14.681  17.005   4.931 -0.0378 -0.0220  0.0193
 5400W        W22248  17.637   8.458   2.178  0.0233  0.1136  0.1563
 5401W        W22249   0.756   5.315  12.614 -0.0421 -0.0884 -0.1576
 5402W        W22250   7.559  18.023   5.228  0.0652  0.1944  0.2214
 5403W        W22251   4.323   2.659  11.530 -0.2416  0.1525  0.1080
 5404W        W22252   2.733  15.283   2.946 -0.0953 -0.1601 -0.0539
 5405W        W22253   8.794  15.040  15.835  0.0289 -0.1264  0.0491
 5406W        W22254  13.359   9.375  10.464  0.2148 -0.3857  0.0418
 5407W        W22255   0.399   1.515   3.935  0.4509  0.0980  0.2067
 5408W        W22256   5.838  17.867   0.133  0.0881  0.3044  0.2049
 5409W        W22257   4.741  16.749  12.743 -0.0572  0.0226 -0.0160
 5410W        W22258  10.578   9.247   3.950 -0.1074 -0.0975  0.1383
 5411W        W22259   6.819   3.372   1.789  0.2730  0.1550  0.0460
 5412W        W22260   0.153  16.282   1.206  0.1111  0.2997  0.1867
 5413W        W22261  17.805   9.905   5.544 -0.1174  0.0110  0.0315
 5414W        W22262  17.515   2.107  14.597 -0.0603  0.2527 -0.4616
 5415W        W22263  12.129   7.992  13.243  0.0516  0.0167 -0.0249
 5416W        W22264  13.356  17.622  13.573  0.2783 -0.1151 -0.2524
 5417W        W22265   2.330   5.959  16.095 -0.0443 -0.2566 -0.1557
 5418W        W22266   3.140   0.914   4.750 -0.0928  0.1505  0.3239
 5419W        W22267   7.034   7.849   2.991 -0.0123 -0.4194  0.1788
 5420W        W22268  11.716   6.305   1.519  0.1020 -0.0551  0.1212
 5421W        W22269   6.629   2.211  12.620 -0.2445  0.1519  0.0135
 5422W        W22270   2.170  10.104   5.946  0.0361  0.0574 -0.0511
 5423W        W22271  16.350  16.169   0.999  0.0636 -0.1359 -0.0212
 5424W        W22272  16.245  14.100  14.594  0.0083  0.3817 -0.0879
 5425W        W22273   0.134  10.766  15.875  0.3972  0.0938  0.1555
 5426W        W22274  15.939   5.635   1.490 -0.3571  0.1653 -0.2592
 5427W        W22275   7.437   6.753  13.672  0.1855  0.0916  0.1411
 5428W        W22276  16.407   6.105  14.602  0.0404  0.0927  0.3143
 5429W        W22277   8.825   9.944   4.709 -0.3095  0.0460  0.1097
 5430W        W22278   2.699  12.583   3.194 -0.1511  0.1291 -0.0398
 5431W        W22279  16.243   7.107  15.871 -0.1306  0.0036  0.2047
 5432W        W22280  16.983  16.998   2.391  0.0665  0.1552 -0.0942
 5433W        W22281   2.544  15.140   1.723 -0.0667 -0.2778 -0.0776
 5434W        W22282   3.395  11.417   4.853 -0.0505 -0.2121 -0.0182
 5435W        W22283   5.024   3.905   2.394 -0.3235  0.2983 -0.1390
 5436W        W22284  15.029  12.893  12.909  0.0618  0.3122  0.0246
 5437W        W22285   3.352  17.630   3.546 -0.0309 -0.3009  0.1625
 5438W        W22286   9.439  18.009   3.017  0.0491  0.1419 -0.0249
 5439W        W22287   6.133  17.180  13.503  0.0899 -0.1043 -0.3526
 5440W        W22288   4.602   2.388  15.464 -0.2911 -0.1368  0.1095
 5441W        W22289   7.430  10.575  14.576  0.2287 -0.0176 -0.0065
 5442W        W22290  16.315   6.048   2.489 -0.0616  0.2340  0.1954
 5443W        W22291   0.345   5.826   0.149  0.0750 -0.1532  0.2469
 5444W        W22292   6.899   7.027  15.079 -0.1711  0.5309 -0.6813
 5445W        W22293   9.798   4.522   4.094  0.0154 -0.2155  0.0948
 5446W        W22294   9.299   0.105   4.352  0.1853 -0.2112  0.0840
 5447W        W22295  16.168  17.782  15.554  0.1820 -0.0302  0.2998
 5448W        W22296   4.706  15.155   0.726  0.1627  0.1032  0.2124
 5449W        W22297   5.929  15.515   2.350  0.0345 -0.0970 -0.1082
 5450W        W22298   8.229  10.683   2.652 -0.1011 -0.0367  0.3001
 5451W        W22299  12.467   2.890  15.208 -0.0669  0.2511  0.1731
 5452W        W22300  17.945   8.778   0.433 -0.1984 -0.0211 -0.2655
 5453W        W22301   3.149   0.960  12.952 -0.1683 -0.0539 -0.0660
 5454W        W22302   3.112   0.911   2.089 -0.2514 -0.3367 -0.2142
 5455W        W22303  13.029  17.444   1.082 -0.0591  0.1767  0.0384
 5456W        W22304   3.207   5.259  14.448  0.3306  0.0519  0.1308
 5457W        W22305   0.728   4.321   2.741  0.0749  0.2444 -0.1652
 5458W        W22306  11.848   0.768  13.762  0.0852  0.2156  0.0361
 5459W        W22307   9.893   9.695   0.960 -0.4016  0.2754  0.0813
 5460W        W22308  15.235   4.013   4.075  0.4722  0.0335 -0.2747
 5461W        W22309   9.539   9.951  14.471 -0.2621 -0.0187  0.1566
 5462W        W22310  15.911   1.766   0.317  0.0397 -0.0096 -0.2724
 5463W        W22311  14.683  16.441   0.292 -0.2268  0.1475  0.0828
 5464W        W22312   4.628  11.308   5.227 -0.0896 -0.0655 -0.1142
 5465W        W22313   2.729  13.792   5.437 -0.2793  0.1469  0.0751
 5466W        W22314   1.169  12.296   1.492 -0.1080  0.0373 -0.1927
 5467W        W22315  14.601  12.801  13.192  0.0343 -0.2022 -0.0818
 5468W        W22316  15.817  17.217  14.150 -0.0570 -0.1010  0.0165
 5469W        W22317   7.702  16.087  10.870 -0.0160 -0.0744 -0.1433
 5470W        W22318  13.941  10.566   3.505  0.2634 -0.0736 -0.0007
 5471W        W22319   2.477   4.430  14.558  0.0702  0.1182  0.0677
 5472W        W22320   2.850   1.342   0.328  0.1488 -0.1336  0.0645
 5473W        W22321   9.171   4.898   2.834  0.1300 -0.1035  0.1570
 5474W        W22322   2.427   7.834  11.969  0.2095 -0.2556 -0.3330
 5475W        W22323  17.499  11.491  14.720  0.2026  0.0786 -0.4479
 5476W        W22324  13.888   8.863  13.224 -0.1850 -0.3029  0.1519
 5477W        W22325   3.742  12.410   5.150  0.2500 -0.3015  0.1199
 5478W        W22326  17.885  11.291  11.542 -0.1038  0.0969  0.0650
 5479W        W22327   5.194   6.154  14.954  0.0550  0.1635 -0.1832
 5480W        W22328  13.255   6.751  12.363 -0.1775  0.0307 -0.0665
 5481W        W22329  16.206   3.009  11.849  0.2190  0.2077  0.2717
 5482W        W22330   8.587   6.760   2.454  0.1920  0.0818  0.0042
 5483W        W22331   0.874   9.399   3.955 -0.3601  0.0234  0.2238
 5484W        W22332  10.600  13.938   1.626  0.0316  0.1864  0.1985
 5485W        W22333   5.497  14.634   0.315 -0.0881 -0.2921  0.0536
 5486W        W22334   7.081   3.372   2.252 -0.0980  0.0757 -0.2988
 5487W        W22335   6.583   7.186   3.237 -0.0586 -0.1471 -0.0604
 5488W        W22336   8.763  17.580   3.501 -0.3616 -0.2198 -0.1071
 5489W        W22337   5.658   5.742   0.637  0.1455 -0.1455  0.1861
 5490W        W22338   6.526   0.414   3.134 -0.1715  0.0077 -0.1805
 5491W        W22339  15.512  12.462  14.206  0.0796  0.1372  0.0363
 5492W        W22340   6.692   1.923  13.041  0.3984  0.1882  0.0078
 5493W        W22341   8.475  13.589   2.484 -0.0052  0.2147  0.0380
 5494W        W22342  16.714   3.046   5.390  0.2814  0.1568 -0.0643
 5495W        W22343  17.579  16.303   5.054  0.1434 -0.0808  0.0167
 5496W        W22344   5.815   0.365   4.263  0.0851 -0.1144  0.0691
 5497W        W22345  14.992   6.170  10.493  0.1671  0.1139  0.0397
 5498W        W22346   3.238  10.932   3.810  0.3518  0.2349 -0.1570
 5499W        W22347   6.828   9.873  15.391 -0.1382  0.0844  0.4080
 5500W        W22348   9.623  17.186  16.161 -0.0497 -0.0841 -0.1019
 5501W        W22349   2.187  15.582  16.201  0.0649  0.0967  0.1882
 5502W        W22350  17.661  17.122  13.975  0.1722  0.1062  0.0430
 5503W        W22351   6.480   4.758   1.426 -0.0581  0.0704  0.0825
 5504W        W22352   7.493  15.854  16.001  0.2325  0.1539  0.1364
 5505W        W22353  11.187   5.313  13.835  0.0399 -0.0581 -0.0503
 5506W        W22354   3.795  13.472  12.848  0.1062  0.0821 -0.0810
 5507W        W22355   7.727  10.712   3.086  0.0955 -0.1869  0.2720
 5508W        W22356   9.094   0.737  13.764 -0.2660 -0.4669 -0.2059
 5509W        W22357   9.518   0.475  12.308 -0.0236 -0.1839 -0.3395
 5510W        W22358  16.183   0.162  14.080  0.0339 -0.0761  0.0570
 5511W        W22359   9.074  15.070  11.483  0.1584 -0.3251 -0.0996
 5512W        W22360  15.956   4.907   2.232 -0.1372  0.2908 -0.1581
 5513W        W22361   4.926  14.678   4.084 -0.1114  0.0347 -0.2795
 5514W        W22362  14.014  15.508  15.557 -0.0777 -0.4531  0.0223
 5515W        W22363   7.678  16.691  14.295  0.0653 -0.0819  0.0175
 5516W        W22364   5.032   0.417   2.667  0.0483 -0.1474 -0.2893
 5517W        W22365  11.157  13.515   1.570  0.0747 -0.1466 -0.2371
 5518W        W22366   6.330   3.970  15.074  0.0705 -0.1672  0.1079
 5519W        W22367   5.426   3.584   3.329  0.1018  0.1767 -0.1086
 5520W        W22368   3.682   5.075  11.363 -0.0812 -0.1118 -0.1571
 5521W        W22369   8.533  16.381   6.440  0.1060  0.4114  0.0516
 5522W        W22370   5.643  16.700  14.871 -0.0358  0.2633  0.0892
 5523W        W22371  17.578  12.471  15.159  0.1473  0.1819 -0.0008
 5524W        W22372   0.024   8.727  11.609  0.1442 -0.0433 -0.0974
 5525W        W22373  12.346  15.138  11.323 -0.2926  0.0025 -0.4238
 5526W        W22374   6.265   1.435  13.077  0.0286 -0.0451  0.1176
 5527W        W22375   5.190   2.447   2.220 -0.3235 -0.2442  0.4900
 5528W        W22376   5.906  17.474   2.346  0.1969  0.0693  0.2854
 5529W        W22377   7.473   3.594  13.770  0.1337 -0.1650 -0.0596
 5530W        W22378   0.219   8.945  13.285 -0.0618  0.0211 -0.1172
 5531W        W22379  13.132   7.251   3.167  0.0072  0.0925 -0.0845
 5532W        W22380  13.260  11.421  13.394  0.0975  0.0751 -0.1013
 5533W        W22381   3.633   5.558  15.518 -0.1117  0.0485  0.0329
 5534W        W22382   6.902   4.428   3.310  0.3150 -0.1588 -0.5636
 5535W        W22383   4.215   1.402   1.952 -0.1886 -0.0270  0.1208
 5536W        W22384  12.483   9.422  13.057  0.0447 -0.0074  0.0104
 5537W        W22385   4.942  11.290  14.617  0.1639 -0.2553 -0.0409
 5538W        W22386  17.784  17.581  12.452 -0.2015 -0.0837  0.0896
 5539W        W22387   8.295   7.072   1.982  0.2566 -0.0361 -0.2206
 5540W        W22388   9.639  17.797   1.112 -0.0491 -0.0507 -0.1530
 5541W        W22389  14.420  11.602  12.790  0.2806  0.4706 -0.0579
 5542W        W22390  13.893  14.924  15.574 -0.1531 -0.0321 -0.2268
 5543W        W22391   7.872   7.688  13.434 -0.4012  0.1499 -0.1952
 5544W        W22392   7.253  16.992   5.496  0.0267  0.1141 -0.0168
 5545W        W22393  10.706   9.595  14.079  0.2573  0.0436  0.0354
 5546W        W22394   7.428   4.142  12.835  0.0890 -0.0304 -0.2088
 5547W        W22395   4.015  11.847  14.707 -0.1047  0.0459 -0.3729
 5548W        W22396   9.905   5.734   4.404  0.2198  0.0878 -0.0672
 5549W        W22397   5.644  15.758   5.753 -0.1303  0.2592  0.1658
 5550W        W22398   2.812   9.165   0.343  0.0484  0.0508  0.1252
 5551W        W22399  11.251  16.837   3.022 -0.0695 -0.3052 -0.1806
 5552W        W22400   3.961  16.244   2.379  0.0219  0.0043 -0.2554
 5553W        W22401  17.557   7.117   0.117  0.2795 -0.3343 -0.1647
 5554W        W22402   2.885   5.076  11.055 -0.0524  0.0931  0.2258
 5555W        W22403  16.145   8.374   2.757 -0.3510 -0.1758 -0.0091
 5556W        W22404  10.038   1.408   3.776 -0.0702 -0.1336 -0.0080
 5557W        W22405  17.903  10.709  11.881  0.1373  0.2309  0.0660
 5558W        W22406  11.115  17.092  13.608  0.2516 -0.1939 -0.0971
 5559W        W22407  11.487   9.809  11.150 -0.0773 -0.0813 -0.1458
 5560W        W22408  16.616  15.724   3.221  0.0595  0.0854 -0.1897
 5561W        W22409   3.344   7.579  15.269  0.1932  0.2723  0.0439
 5562W        W22410   1.687  11.657   4.213  0.1210 -0.0936  0.0978
 5563W        W22411   4.950   6.048  15.397  0.0620 -0.0700 -0.0057
 5564W        W22412  17.847  10.778   2.375  0.3050 -0.2616 -0.0172
 5565W        W22413  17.998  16.896   1.701  0.0435 -0.0875  0.0834
 5566W        W22414   9.146  17.213   3.338 -0.3555  0.0845  0.0398
 5567W        W22415  17.876   9.197  13.986  0.0321 -0.1495  0.2316
 5568W        W22416  10.470   0.822  12.325 -0.2055 -0.0794  0.0960
 5569W        W22417  12.839   6.082  16.267 -0.2762  0.4545 -0.2619
 5570W        W22418   3.519   7.667  12.125 -0.0241 -0.1691  0.0620
 5571W        W22419  11.848   8.365  16.161  0.3142 -0.0982  0.0915
 5572W        W22420   3.359  11.304  14.503  0.4834  0.3133  0.1025
 5573W        W22421  15.370  15.439  15.732 -0.0122  0.1828  0.1890
 5574W        W22422  15.293  15.636  15.238 -0.0062 -0.1725  0.3105
 5575W        W22423   5.790   0.778   3.784 -0.1356  0.0382  0.3632
 5576W        W22424  15.278  17.863  13.367 -0.0424  0.3350 -0.1874
 5577W        W22425  17.356  10.451   0.437 -0.2004  0.1767  0.0099
 5578W        W22426   4.085   0.528   0.471  0.0465 -0.0149 -0.2724
 5579W        W22427   1.628   3.876   1.706  0.0464  0.1280  0.2382
 5580W        W22428   0.615  17.390  13.631 -0.1418  0.3339 -0.4865
 5581W        W22429  14.075  15.832   4.130 -0.2958 -0.0051 -0.0916
 5582W        W22430   5.231   6.155   2.931 -0.1513  0.0393 -0.0069
 5583W        W22431   9.507  10.012   4.402  0.0398 -0.3507  0.4421
 5584W        W22432  15.045   1.026  14.711  0.3939  0.0592 -0.2446
 5585W        W22433   4.305   9.329  15.880 -0.0030  0.1261  0.2673
 5586W        W22434  17.270   2.017  12.497  0.0123  0.0822 -0.1904
 5587W        W22435   1.623   7.834   5.473  0.0309 -0.0896 -0.1712
 5588W        W22436  16.569   0.183  13.775 -0.1237 -0.1393  0.1491
 5589W        W22437   6.184   8.524   0.740 -0.0996  0.3322  0.0684
 5590W        W22438  12.162  17.949  13.702 -0.2395 -0.2626  0.1240
 5591W        W22439   1.678  13.774   4.805 -0.2445 -0.1061  0.2153
 5592W        W22440  10.590  10.714   1.086  0.0637  0.0926  0.0942
 5593W        W22441   2.033  17.061  14.091 -0.2191 -0.1075 -0.0902
 5594W        W22442   6.152  11.852  14.443  0.0814  0.3242 -0.0026
 5595W        W22443  17.331  14.885  14.172 -0.2161 -0.0130  0.0555
 5596W        W22444   3.313   7.508   0.023  0.0464 -0.2687 -0.3448
 5597W        W22445   3.097  13.782  12.345 -0.1501 -0.1142 -0.3316
 5598W        W22446  13.775   4.682   4.619  0.4131 -0.2167  0.4772
 5599W        W22447  14.035   2.191  13.129  0.0270  0.2521  0.1834
 5600W        W22448  12.958   0.487   3.223  0.0250 -0.0776  0.0528
 5601W        W22449  13.464   4.336  15.007 -0.3568 -0.1668 -0.0731
 5602W        W22450   7.417   4.090   5.095 -0.0256  0.0755 -0.0604
 5603W        W22451   5.301  18.025   1.786 -0.0685  0.0401 -0.0280
 5604W        W22452   4.618   1.478   4.917  0.0655  0.0273  0.0242
 5605W        W22453  15.358   7.936   3.108  0.2242  0.0716  0.0679
 5606W        W22454   9.730  14.685   1.854  0.0012 -0.0495 -0.2127
 5607W        W22455   4.975  14.173  15.868  0.0562 -0.0449 -0.0414
 5608W        W22456   8.882   0.996  12.951 -0.1257 -0.0914 -0.0724
 5609W        W22457  12.658   2.064   0.226 -0.4616  0.1106  0.1910
 5610W        W22458  17.864   5.637  12.371 -0.1404 -0.0678  0.2206
 5611W        W22459   4.218   2.002  16.103 -0.0811 -0.0549 -0.0616
 5612W        W22460   3.047  10.089   0.645 -0.0248 -0.0727  0.2501
 5613W        W22461  17.282   4.036   3.805  0.1200 -0.1203 -0.0394
 5614W        W22462  12.827   9.873  12.897 -0.0075 -0.1908 -0.0808
 5615W        W22463   0.027  15.832  16.029 -0.0621  0.2729 -0.0160
 5616W        W22464  12.327  14.453   2.741  0.1100 -0.2401 -0.0542
 5617W        W22465  10.070   6.299  12.337  0.2964 -0.4860  0.0681
 5618W        W22466   8.421   4.364   0.576  0.0692  0.0465 -0.1712
 5619W        W22467  17.615  17.697   5.538  0.0939  0.0389  0.0377
 5620W        W22468   4.186  10.962   3.076 -0.0062 -0.0199 -0.3354
 5621W        W22469  16.341   7.669   3.983 -0.2632 -0.1885 -0.0118
 5622W        W22470  10.794  12.712   5.332  0.3003 -0.1450 -0.0581
 5623W        W22471  17.796   9.509   3.748 -0.1342 -0.1326 -0.1556
 5624W        W22472   5.920  14.337   0.790  0.1891 -0.0889  0.1907
 5625W        W22473  17.816   5.944   1.577 -0.0167  0.0820  0.1297
 5626W        W22474  12.534   2.581   0.068  0.1324 -0.0626  0.1533
 5627W        W22475  17.373   6.195   1.068  0.0257 -0.2970  0.2254
 5628W        W22476   0.496  15.124   1.502  0.1001 -0.0622  0.1187
 5629W        W22477   8.039  10.224  12.469  0.2287  0.3275 -0.2054
 5630W        W22478  11.545  16.378   0.376  0.1749 -0.2192 -0.0198
 5631W        W22479  17.412  13.706   1.457 -0.0862  0.0621  0.0444
 5632W        W22480  11.234   1.319  14.807 -0.2460 -0.0809  0.3376
 5633W        W22481  12.612  10.494   4.319  0.0875  0.1029  0.0781
 5634W        W22482   8.521  12.870  12.083  0.0046  0.2140  0.1180
 5635W        W22483   9.613  18.013  12.919 -0.0339 -0.3114  0.1137
 5636W        W22484   8.974   0.841  10.858  0.1186 -0.2429  0.1566
 5637W        W22485   5.270  15.897   2.392  0.1825 -0.0368  0.2513
 5638W        W22486  17.920   5.923  14.869  0.3290 -0.0080 -0.1671
 5639W        W22487  14.894   3.239   1.349 -0.3082  0.3994 -0.2111
 5640W        W22488   3.969   0.602  13.998  0.1916  0.2962  0.2011
 5641W        W22489   1.040  16.150  15.660  0.2701 -0.0602 -0.1690
 5642W        W22490   2.082   0.965  13.542  0.1063  0.2935  0.4274
 5643W        W22491  16.810  17.930  15.380 -0.0712 -0.2064  0.1215
 5644W        W22492   2.114   4.060  12.106  0.1428  0.0353 -0.3304
 5645W        W22493   5.356  11.520  15.399  0.2277 -0.0884  0.0036
 5646W        W22494   6.043   6.002  11.822 -0.0973 -0.2811  0.2619
 5647W        W22495  10.199   5.745   1.020 -0.1050 -0.0730  0.1038
 5648W        W22496  14.009  12.116  12.303 -0.1522  0.1982 -0.3504
 5649W        W22497   4.541  16.080   1.235 -0.1315 -0.1777  0.0893
 5650W        W22498  12.147  12.428  16.047  0.0083 -0.0453  0.5421
 5651W        W22499   3.902   0.356  16.107  0.0691  0.3773 -0.1467
 5652W        W22500  10.270  12.591   3.618 -0.1777 -0.0115 -0.0732
 5653W        W22501   5.624   5.414   1.723 -0.1603  0.1678 -0.0595
 5654W        W22502  17.851   6.746   3.437 -0.0570  0.1037  0.1480
 5655W        W22503  16.417   6.596  12.022  0.1005  0.1951  0.0494
 5656W        W22504   1.936  17.834   4.509 -0.2115  0.0378  0.4824
 5657W        W22505  16.717  10.136  15.518 -0.0746 -0.0854 -0.1910
 5658W        W22506   0.696   0.002  16.085  0.0306 -0.1605 -0.5261
 5659W        W22507   1.749  11.238   3.955  0.0237 -0.0299  0.3085
 5660W        W22508  17.190   8.308   6.075 -0.0399 -0.5249 -0.1500
 5661W        W22509  16.486   8.085   0.906 -0.1969  0.1098 -0.3099
 5662W        W22510   2.235  16.371  13.502  0.1523 -0.0496  0.0095
 5663W        W22511   2.639   0.453  11.978 -0.0351 -0.1312  0.1014
 5664W        W22512   1.545   8.242   3.463 -0.0656  0.1684 -0.0786
 5665W        W22513   7.074   8.289   4.110 -0.1155 -0.0935 -0.3210
 5666W        W22514   7.320  12.675   0.267 -0.1924 -0.1224 -0.0061
 5667W        W22515  13.609  11.050  11.828  0.1211  0.0262  0.1826
 5668W        W22516   4.128   6.091   3.366 -0.2568 -0.1615  0.0680
 5669W        W22517   9.150  10.269  13.335 -0.1362 -0.0378  0.4408
 5670W        W22518   7.936   5.397   4.769  0.1492 -0.0438 -0.0233
 5671W        W22519   2.364  11.025  12.815  0.1864  0.0182 -0.2527
 5672W        W22520  10.526   9.753   3.829 -0.4314 -0.1871 -0.3102
 5673W        W22521   0.342  16.474  12.765 -0.1954 -0.4475  0.0864
 5674W        W22522   2.468  12.917  15.227 -0.0987  0.1975 -0.0838
 5675W        W22523   4.786  15.300   1.669  0.0813 -0.2297  0.0200
 5676W        W22524   6.842  14.278  11.811  0.0193 -0.1812  0.3677
 5677W        W22525   0.385  16.057  11.850 -0.3359  0.3401  0.1072
 5678W        W22526   1.758   4.358  11.927  0.1597 -0.1291 -0.1290
 5679W        W22527   8.494  17.481  14.357 -0.1480 -0.1826 -0.0577
 5680W        W22528   0.251   2.092  13.813  0.1686  0.1241 -0.2797
 5681W        W22529   4.077   8.770   6.161  0.3070 -0.3570 -0.2650
 5682W        W22530   3.309  17.201   0.821 -0.1793  0.1764 -0.0310
 5683W        W22531   6.216   9.241  11.511  0.0438 -0.0879  0.1374
 5684W        W22532  12.271  11.423   0.656 -0.2083 -0.0483 -0.3159
 5685W        W22533  16.502   2.232  12.836 -0.0552  0.1135  0.2302
 5686W        W22534   8.497   6.268  11.111  0.2321  0.0086 -0.0708
 5687W        W22535   3.631  13.750   4.758  0.2069  0.3690  0.1636
 5688W        W22536  17.409  17.498   3.466 -0.1586  0.0706 -0.2218
 5689W        W22537  11.585  14.897  11.483  0.2148  0.1092  0.1169
 5690W        W22538   2.846   6.198  12.997  0.0971 -0.0272  0.1582
 5691W        W22539   3.620   4.247  14.586  0.1829 -0.0639  0.0696
 5692W        W22540  13.158  12.373  15.249 -0.0770  0.2279 -0.1925
 5693W        W22541  14.377  11.185   5.702  0.2807 -0.0109  0.2304
 5694W        W22542  14.783  14.997   0.498 -0.2069 -0.1841 -0.2041
 5695W        W22543  11.581   2.013  13.340 -0.1357 -0.3336  0.2388
 5696W        W22544  14.956   4.620  14.107  0.1374 -0.0774  0.2206
 5697W        W22545  12.876  12.523   4.799  0.5166  0.2594 -0.0304
 5698W        W22546   9.950  13.243  10.478  0.1709  0.3604  0.0407
 5699W        W22547  14.771   9.096  14.590  0.1007  0.1334  0.0217
 5700W        W22548   5.239   2.704  13.584  0.0204  0.2657  0.0681
 5701W        W22549  14.172  10.803   1.615 -0.1538 -0.1842 -0.2669
 5702W        W22550   0.399  13.043  10.674 -0.2712  0.1008  0.2341
 5703W        W22551   7.904   0.438   0.251 -0.0212 -0.0476  0.1145
 5704W        W22552  11.265  15.115   2.178  0.1312 -0.0373 -0.0877
 5705W        W22553   4.670   5.457  11.460  0.0183  0.3292  0.1872
 5706W        W22554  16.499  13.997   3.788  0.1977 -0.1374  0.2946
 5707W        W22555  15.994  14.756  11.960  0.1992  0.1434  0.0343
 5708W        W22556   8.616  15.828   1.408  0.1709  0.2177 -0.2082
 5709W        W22557   7.673   2.153   0.356  0.0751  0.1208  0.0473
 5710W        W22558   2.767   2.822   4.603  0.1632 -0.0241 -0.2306
 5711W        W22559   8.756  14.591  15.630  0.3371  0.2397  0.1704
 5712W        W22560   9.312  14.206   0.496  0.1520 -0.0540  0.1102
 5713W        W22561   7.876   9.618   2.472 -0.0365 -0.0667 -0.0626
 5714W        W22562   9.907  16.761   3.522 -0.2760  0.2010 -0.1842
 5715W        W22563  13.703   1.311  15.627  0.1100 -0.1714  0.3260
 5716W        W22564   2.330   7.299   3.434 -0.1371  0.0290 -0.1140
 5717W        W22565   4.961  16.444   0.677 -0.0435 -0.1281  0.1618
 5718W        W22566  13.511   9.312  10.030 -0.0079 -0.2394  0.0805
 5719W        W22567   4.456  11.567   3.830  0.1331  0.1847  0.0365
 5720W        W22568   0.616  16.666  12.084 -0.0277  0.1845  0.1667
 5721W        W22569  17.755   3.709  13.147 -0.1132 -0.0427  0.0355
 5722W        W22570  14.391   9.442   4.105  0.0343  0.2104 -0.3053
 5723W        W22571  13.432  14.123  15.765 -0.3048 -0.2622 -0.1230
 5724W        W22572   3.467  17.399  12.118 -0.1604 -0.1723 -0.3042
 5725W        W22573  12.057  11.896   0.642  0.2458 -0.0707 -0.0583
 5726W        W22574   4.136   5.064   1.230 -0.0205 -0.3740 -0.1801
 5727W        W22575   6.376   7.325  10.834 -0.0366  0.0861 -0.1104
 5728W        W22576  16.934   4.498   5.363  0.1187  0.1847  0.1199
 5729W        W22577  10.803   3.476  12.752 -0.1029 -0.1269 -0.1375
 5730W        W22578   8.249  13.406   2.934  0.2406 -0.0722  0.1489
 5731W        W22579   8.218   2.415  11.652  0.3989 -0.3433 -0.0455
 5732W        W22580   2.606   0.791   3.977  0.1817 -0.2774  0.0536
 5733W        W22581  10.911   0.008  13.349 -0.0193  0.1617  0.3462
 5734W        W22582   4.235  12.376   1.212 -0.0571 -0.1954 -0.2316
 5735W        W22583   2.275  17.297   1.193  0.1359  0.0223  0.2935
 5736W        W22584  11.504  10.085  13.834 -0.1620  0.0777 -0.1306
 5737W        W22585   6.168   8.004  15.715  0.1424 -0.2106 -0.4771
 5738W        W22586  11.317  14.034  15.460 -0.0863 -0.1613  0.1722
 5739W        W22587   3.812   5.945  11.634  0.0695 -0.0783  0.0305
 5740W        W22588  13.757  13.181   2.715  0.1189  0.1766 -0.0739
 5741W        W22589  11.187   3.172   1.035  0.1356 -0.0815  0.1590
 5742W        W22590   2.972   7.738   1.722 -0.1437 -0.1911  0.0281
 5743W        W22591  12.213  14.868  15.727  0.1153 -0.0647 -0.0201
 5744W        W22592  12.305  15.115  13.972  0.1151 -0.2030 -0.2287
 5745W        W22593   7.036   1.109  13.536  0.0846  0.2828 -0.0947
 5746W        W22594   3.243  17.547  14.238  0.3513  0.3180  0.1245
 5747W        W22595   7.448   5.778   2.856 -0.4091 -0.1390  0.3434
 5748W        W22596   4.465   0.070  11.522  0.1383 -0.0891 -0.0607
 5749W        W22597   1.660  15.994   3.832  0.1163 -0.3327 -0.1935
 5750W        W22598  14.440  13.805   0.386 -0.1924 -0.2744  0.0276
 5751W        W22599   2.402   4.276  13.087  0.2226  0.0208 -0.0520
 5752W        W22600   6.736   2.538  13.790  0.0317 -0.1177  0.1314
 5753W        W22601   3.071  11.536  15.661 -0.0024  0.0590 -0.2532
 5754W        W22602   9.256  14.460   0.953 -0.1876  0.0149 -0.2497
 5755W        W22603  16.562  15.102  10.676 -0.1099  0.0116  0.3635
 5756W        W22604  10.518  16.456   3.219  0.0024 -0.1907 -0.0974
 5757W        W22605   9.245  11.655   2.526 -0.1661 -0.0714  0.0968
 5758W        W22606   5.951  16.956   3.565  0.4087  0.1638  0.0376
 5759W        W22607   4.025   4.619  15.325  0.0941  0.4260  0.2097
 5760W        W22608   5.395  17.834   5.989 -0.2494 -0.1636 -0.1289
 5761W        W22609   6.270   1.747  14.559  0.2208  0.1410  0.1977
 5762W        W22610  13.559  17.664  12.674 -0.2795 -0.2808 -0.1807
 5763W        W22611  13.454  11.424  15.864  0.0824  0.0430 -0.3378
 5764W        W22612   0.136   9.620  12.008 -0.0416  0.1517 -0.1113
 5765W        W22613   6.089   8.585  11.037 -0.1047 -0.4373 -0.0857
 5766W        W22614   1.688   0.869   0.266 -0.1600  0.1810 -0.4219
 5767W        W22615  14.173   7.596   2.510  0.1429  0.0344  0.2480
 5768W        W22616   3.150  10.691   1.444 -0.1249  0.2702  0.2508
 5769W        W22617  14.103  11.648  12.306 -0.0730 -0.0927  0.0585
 5770W        W22618   4.902   2.849  14.735  0.3010 -0.1755 -0.0120
 5771W        W22619  15.030   8.397  15.311 -0.0433 -0.0625 -0.0945
 5772W        W22620   3.443   2.784  12.724  0.0333 -0.0624  0.0128
 5773W        W22621  15.167   4.498  15.769  0.2829  0.0416  0.0668
 5774W        W22622   9.710  15.381  13.938 -0.0423 -0.2069 -0.2182
 5775W        W22623  17.422   5.815  14.658 -0.1712  0.1317 -0.2160
 5776W        W22624   1.560   1.119   5.290  0.1873 -0.0033  0.1815
 5777W        W22625  12.219   5.096   0.462  0.0710 -0.1074 -0.0300
 5778W        W22626   7.728  17.710   2.359 -0.1650  0.1474  0.0865
 5779W        W22627   2.549  13.200   1.301  0.1303 -0.0820  0.2345
 5780W        W22628  16.814   6.699   3.734 -0.0709  0.0943 -0.3120
 5781W        W22629   9.118  17.560   2.557  0.0943 -0.3622 -0.1503
 5782W        W22630  14.083  14.230   3.170 -0.2138  0.0784 -0.2405
 5783W        W22631  16.092   3.323  10.244  0.0964  0.0624 -0.0662
 5784W        W22632   7.018   2.957   5.486 -0.0439 -0.0430  0.0092
 5785W        W22633  12.254   7.208   0.396  0.0644  0.2601  0.1732
 5786W        W22634  11.551   9.561   1.286 -0.0989 -0.2277 -0.1483
 5787W        W22635  18.029   0.576   0.250  0.0191  0.3172 -0.3293
 5788W        W22636   8.923   3.707   2.483  0.2018 -0.0227 -0.1262
 5789W        W22637   5.041  16.426  13.037  0.1844  0.2046  0.2116
 5790W        W22638   6.087   7.837  14.450  0.1882  0.0149  0.0306
 5791W        W22639  13.007   7.446   2.677 -0.5002  0.1324 -0.2253
 5792W        W22640  11.101  14.588  14.364  0.1402  0.2118  0.0238
 5793W        W22641  12.150  11.146   2.906 -0.1576 -0.0137  0.0049
 5794W        W22642  15.726   2.143   1.568  0.0852 -0.0322 -0.1034
 5795W        W22643  17.009  18.036  14.531 -0.0901 -0.3088 -0.1685
 5796W        W22644   5.440   6.899  13.769  0.0455 -0.0955 -0.3062
 5797W        W22645   1.171   5.129   6.374  0.1405 -0.0091 -0.0550
 5798W        W22646  16.553   0.006   5.054 -0.0596  0.0509  0.1708
 5799W        W22647   4.530  14.655  12.921 -0.2817  0.2328  0.1949
 5800W        W22648  16.740   5.084  15.524  0.2704  0.3737 -0.0241
 5801W        W22649   4.224  14.049   0.314  0.0293  0.0961 -0.0356
 5802W        W22650   4.685   0.490   4.580  0.1205  0.2189  0.0986
 5803W        W22651  17.656  14.591  10.443 -0.1345  0.0672  0.4189
 5804W        W22652  16.390   4.434   2.261 -0.2359  0.2922  0.0828
 5805W        W22653   5.729  13.436   0.598  0.0063  0.1327 -0.1251
 5806W        W22654   6.150   1.429  13.654  0.2698  0.0931  0.2683
 5807W        W22655  12.104   0.946  12.467 -0.0502  0.2854  0.1071
 5808W        W22656  13.115   5.205   0.171  0.1360  0.0011  0.3408
 5809W        W22657   4.791  14.683  13.822  0.1271  0.1416 -0.0083
 5810W        W22658  13.954   2.562   0.076  0.2329 -0.0870  0.0782
 5811W        W22659  14.757  10.712   4.462 -0.2294  0.1303  0.3195
 5812W        W22660  15.246   5.066   2.926  0.1886  0.2627  0.1790
 5813W        W22661   0.641  17.482   4.096  0.3519  0.0387  0.1235
 5814W        W22662  17.848  11.461   2.391 -0.0506 -0.2296  0.0267
 5815W        W22663   3.036   6.831   4.022  0.3277  0.0412  0.0664
 5816W        W22664  11.526  15.700   2.054  0.2096  0.0219  0.1722
 5817W        W22665   5.908  12.631   4.261 -0.0039 -0.5037  0.0921
 5818W        W22666   9.934  16.197   1.007 -0.1113  0.1598 -0.3119
 5819W        W22667   8.636   0.588  11.962 -0.1141  0.3849 -0.2975
 5820W        W22668   8.931   8.638  12.692  0.2027  0.2147 -0.4175
 5821W        W22669  11.581   7.180   3.563 -0.1117 -0.2917  0.2786
 5822W        W22670   8.999  14.491   4.764 -0.2763  0.0059 -0.3307
 5823W        W22671  16.875  16.061   4.648  0.0460 -0.1999  0.0307
 5824W        W22672   4.223  12.279  14.676  0.1799 -0.2037  0.2464
 5825W        W22673   7.955   2.697   1.945  0.1192 -0.1388  0.2449
 5826W        W22674   3.672   7.221  15.378 -0.0983  0.0420 -0.0557
 5827W        W22675  17.186  13.292   3.342  0.1515 -0.0048 -0.0978
 5828W        W22676  15.570  16.394  13.949  0.2394 -0.2110 -0.1634
 5829W        W22677  11.949   2.378   1.475 -0.1482  0.1432  0.3772
 5830W        W22678  17.271  10.587   3.951  0.0967  0.1804  0.2399
 5831W        W22679  14.729   9.279   2.006 -0.0744  0.1348 -0.1431
 5832W        W22680  11.920  15.416  15.260  0.0206 -0.1014 -0.1469
 5833W        W22681  12.731  10.480   3.134  0.3013  0.0740 -0.2237
 5834W        W22682   0.375  11.484  12.177  0.2650 -0.0777  0.0070
 5835W        W22683  17.613   1.660  15.332  0.0845 -0.3780  0.0237
 5836W        W22684  10.185   6.479  11.199 -0.2392  0.2247  0.0547
 5837W        W22685  15.978   2.519   2.816 -0.0290  0.0114 -0.0001
 5838W        W22686   8.395   4.687  15.421 -0.0178 -0.0325 -0.0124
 5839W        W22687  10.788   2.028  14.990 -0.0112  0.0257 -0.2495
 5840W        W22688  10.260   8.294  10.921 -0.1037 -0.1875 -0.0766
 5841W        W22689   8.242   9.430   4.837 -0.2337 -0.1140  0.3667
 5842W        W22690  10.429   8.345  14.505  0.5766  0.1313 -0.0673
 5843W        W22691  12.759  14.188  13.641 -0.1740  0.0521  0.2773
 5844W        W22692   8.875  14.179   3.439  0.1845  0.1697  0.0134
 5845W        W22693  12.753  11.339  13.376  0.1795 -0.0988  0.4606
 5846W        W22694   4.004   0.122  12.043 -0.1624  0.0057  0.3015
 5847W        W22695   9.026  11.639  13.245  0.1801  0.0883 -0.0722
 5848W        W22696  16.217   3.762  13.499  0.1229 -0.0586 -0.2482
 5849W        W22697   1.386  13.382  13.418  0.1198 -0.1247 -0.0368
 5850W        W22698   9.535   4.205   1.928  0.3352  0.2602 -0.2049
 5851W        W22699  12.717   5.373   1.883  0.1272 -0.1368 -0.2333
 5852W        W22700  13.698  11.040  13.231  0.0068 -0.1348 -0.1973
 5853W        W22701   5.188   9.297  12.243 -0.0532 -0.0204  0.1897
 5854W        W22702   0.208  14.228   3.037 -0.1017 -0.1015  0.1943
 5855W        W22703   0.930  13.161  11.820  0.0077  0.1013  0.0082
 5856W        W22704  10.530  10.554   2.237 -0.1670 -0.0298  0.2294
 5857W        W22705  15.626  13.625   4.443  0.1594 -0.1771 -0.2148
 5858W        W22706  15.493   7.581   2.729 -0.1360 -0.2154 -0.1568
 5859W        W22707  14.232   2.504  12.164 -0.0020 -0.2989  0.0980
 5860W        W22708   6.010  10.437  11.789  0.0490 -0.0368  0.0198
 5861W        W22709   0.391  11.296   0.574  0.3453 -0.2916  0.0247
 5862W        W22710   9.680   0.944  11.634 -0.1303  0.4267  0.1426
 5863W        W22711   1.742   0.021   1.103  0.1029  0.0048  0.2370
 5864W        W22712   2.498   1.134   1.251 -0.0186 -0.2844 -0.2636
 5865W        W22713   1.629   9.701  12.750  0.4356  0.0014  0.0587
 5866W        W22714  17.406   0.326  15.850 -0.1334  0.0340  0.0534
 5867W        W22715   4.312   1.678   4.014  0.0650  0.0431  0.1624
 5868W        W22716   9.508  15.749  14.627  0.2105 -0.0926 -0.0798
 5869W        W22717   8.709  14.719   1.223 -0.0163 -0.0526  0.0462
 5870W        W22718  15.349   4.201   3.186 -0.1843 -0.2093  0.0709
 5871W        W22719  15.960   5.698   2.883 -0.0468  0.3659  0.3504
 5872W        W22720  12.905   1.274   5.774  0.0060  0.0499  0.1433
 5873W        W22721  14.041   5.428   9.891 -0.2242 -0.0454 -0.0421
 5874W        W22722  17.648   1.689   5.052  0.1353 -0.1917 -0.1291
 5875W        W22723  15.055  10.669   3.252  0.2174 -0.2105 -0.3203
 5876W        W22724   8.933   8.228   3.028  0.1356 -0.0455  0.1727
 5877W        W22725   3.822   7.380   1.794  0.0946 -0.3910  0.2089
 5878W        W22726   3.495   4.856   4.196  0.0922  0.1972 -0.3360
 5879W        W22727  17.155   5.773   0.741 -0.0047 -0.1222 -0.0120
 5880W        W22728  17.061   1.959  15.541 -0.1651  0.1368  0.3096
 5881W        W22729  17.264   9.471  13.229  0.2906  0.0980  0.2347
 5882W        W22730  10.839   8.214   1.458  0.1447  0.1102  0.2458
 5883W        W22731   4.664  16.905  13.787  0.0370 -0.1245 -0.0123
 5884W        W22732  11.925  14.800   0.921 -0.1682 -0.2232  0.2005
 5885W        W22733  14.543   3.039   0.415  0.0927  0.1604 -0.3916
 5886W        W22734   0.659  12.433  11.821  0.3828 -0.3654 -0.0005
 5887W        W22735  15.057   2.779   1.546 -0.0324  0.1203 -0.1762
 5888W        W22736   8.595  10.119   4.136  0.1372  0.2196 -0.1215
 5889W        W22737  11.914  10.270  15.248 -0.0101 -0.0433  0.0246
 5890W        W22738   5.569   9.180  15.324 -0.2260  0.2231  0.0925
 5891W        W22739  14.719   6.084   3.424  0.1589 -0.1593 -0.1817
 5892W        W22740   4.124  15.511  12.936  0.2071 -0.5237  0.0910
 5893W        W22741  15.651  10.528   3.903 -0.1659 -0.1648  0.1125
 5894W        W22742  14.324   1.051  14.516  0.0628 -0.0362  0.0639
 5895W        W22743   6.923  14.445  15.228 -0.0913  0.1912 -0.1620
 5896W        W22744  13.982   8.696  13.782  0.4188 -0.1721  0.1531
 5897W        W22745  17.819  11.631  15.500  0.0777 -0.2234 -0.1298
 5898W        W22746   8.334  12.772   0.284 -0.3268  0.2332 -0.0944
 5899W        W22747   3.504   3.261   4.202  0.3470  0.2103  0.2832
 5900W        W22748  17.071  14.464  11.220 -0.0527 -0.1611 -0.2872
 5901W        W22749  12.806   8.173   0.159  0.0698 -0.0078 -0.0975
 5902W        W22750  10.549   7.931   1.104  0.0070 -0.1764  0.0507
 5903W        W22751   2.770  12.759   2.171 -0.1703 -0.0363 -0.2013
 5904W        W22752   1.014  16.529   0.227  0.0427  0.2054 -0.0778
 5905W        W22753   2.314  14.684  15.901 -0.0973  0.0310 -0.0824
 5906W        W22754  10.968  13.829  10.870  0.0327  0.0559  0.1795
 5907W        W22755  17.802   6.670  13.421  0.2586  0.0843  0.1418
 5908W        W22756   3.890   1.153   3.240 -0.2084  0.1406  0.0178
 5909W        W22757   8.954  13.472   5.313 -0.0950 -0.2048 -0.2948
 5910W        W22758  12.112   8.466  13.729 -0.0333  0.1880 -0.0406
 5911W        W22759   8.280  11.774   4.921  0.1878 -0.0582 -0.0379
 5912W        W22760   4.260  14.237  14.932 -0.1785  0.0982  0.2037
 5913W        W22761  11.928   9.699   3.578 -0.1899 -0.3889 -0.1204
 5914W        W22762   7.658   8.197   1.604 -0.1762 -0.1094 -0.0834
 5915W        W22763   7.551   1.951  12.698  0.0862  0.0552 -0.1618
 5916W        W22764   5.888   0.242   4.904  0.0905 -0.1847 -0.1126
 5917W        W22765  15.986  16.047  13.500 -0.2527 -0.0256 -0.1346
 5918W        W22766  17.085  11.261  10.842  0.0739 -0.1760  0.1193
 5919W        W22767   8.393  13.267   3.443 -0.0280  0.1689 -0.1987
 5920W        W22768  16.106   0.148  13.554 -0.3646 -0.3527 -0.1189
 5921W        W22769  11.558  11.022  13.372 -0.1779 -0.1438 -0.0749
 5922W        W22770   8.600   3.125   3.531  0.1256 -0.1757 -0.2745
 5923W        W22771   5.330  11.554   2.932  0.1278 -0.1674  0.0713
 5924W        W22772   9.186  13.702  15.999  0.0062  0.2682 -0.0054
 5925W        W22773  16.438   6.915   4.803 -0.1980  0.3296 -0.1629
 5926W        W22774   4.948   3.764   3.600 -0.1598  0.2437  0.6119
 5927W        W22775  12.631   6.325   5.292 -0.1641 -0.1998 -0.1016
 5928W        W22776  12.263  17.131  14.691  0.1026 -0.3569  0.0118
 5929W        W22777   4.516   8.004   5.772 -0.1906 -0.2068 -0.0817
 5930W        W22778   3.119  12.459  12.298  0.6307 -0.3305 -0.2297
 5931W        W22779   1.424   4.684  15.217 -0.3013  0.1379  0.0387
 5932W        W22780  16.946   4.132   2.448  0.2153  0.3762 -0.1322
 5933W        W22781  13.100  16.567   4.022  0.3607 -0.2059  0.0421
 5934W        W22782   5.303  10.126  11.593 -0.0071 -0.2235 -0.1369
 5935W        W22783  15.227  14.107  15.611  0.1392 -0.0903  0.1801
 5936W        W22784   8.812  15.095  12.815 -0.0159 -0.0986 -0.1034
 5937W        W22785   9.498  14.957  12.796  0.0866  0.1143  0.0959
 5938W        W22786   6.537  11.243   1.927 -0.3918 -0.2799  0.2230
 5939W        W22787   4.501   6.046   1.633 -0.1478 -0.1451  0.1859
 5940W        W22788   9.003  13.888   6.370 -0.1452 -0.0094  0.0049
 5941W        W22789  12.795   1.728  12.444  0.1691 -0.0280  0.1798
 5942W        W22790   5.275  11.983  15.599 -0.0424  0.1177 -0.1039
 5943W        W22791  10.629   4.353  13.881 -0.0933  0.0046 -0.1048
 5944W        W22792  15.035   1.646  16.167 -0.0868 -0.2061 -0.1275
 5945W        W22793   8.971  10.437   2.758  0.0546  0.0229 -0.0095
 5946W        W22794   9.423  10.719   4.118 -0.0091  0.0419  0.0687
 5947W        W22795   0.226  10.641   4.283  0.0745  0.1493  0.1389
 5948W        W22796  11.084  16.874   0.981 -0.1070 -0.1983 -0.0357
 5949W        W22797  17.464   8.747   5.201  0.1382 -0.3635 -0.2219
 5950W        W22798  13.933  15.735   1.091 -0.0679  0.0476  0.1579
 5951W        W22799  14.271   4.851  14.871  0.3917 -0.0506  0.4641
 5952W        W22800   7.061   4.890   3.179  0.1213  0.1623  0.0922
 5953W        W22801   4.882   9.993   4.500 -0.0116  0.0955  0.0662
 5954W        W22802  12.058  11.547   2.531  0.0428 -0.3824  0.1237
 5955W        W22803  14.606   9.933  14.250 -0.1753 -0.3154 -0.1611
 5956W        W22804   5.825   2.479   4.394 -0.2278  0.0358  0.1233
 5957W        W22805   2.586  15.530  15.872 -0.2144  0.0489  0.0651
 5958W        W22806   6.452   0.459  13.403 -0.0930 -0.1260 -0.1757
 5959W        W22807  16.171   5.732   0.208 -0.1846 -0.2201 -0.0596
 5960W        W22808   4.751   9.214  15.020  0.1209  0.0757  0.1965
 5961W        W22809  12.228  17.610   0.980 -0.1226 -0.0634  0.1783
 5962W        W22810  15.139  16.751   3.292 -0.2396 -0.3315 -0.0008
 5963W        W22811  11.016   8.887  14.163  0.2555  0.2598  0.0135
 5964W        W22812  15.140   5.033  11.402 -0.0826  0.2294 -0.2388
 5965W        W22813   5.595  13.306  13.343 -0.0960 -0.0412 -0.1711
 5966W        W22814   2.090   2.027  12.938  0.1906  0.0548  0.1764
 5967W        W22815  14.098  12.594   3.964 -0.1146  0.0977  0.1447
 5968W        W22816  12.542  15.626  13.804  0.1115  0.1538  0.1231
 5969W        W22817  17.824   8.905   5.468  0.1291  0.0949  0.1245
 5970W        W22818   4.853   1.304  15.858  0.1740  0.0561 -0.0195
 5971W        W22819  10.697  14.850   4.149  0.1918 -0.1170 -0.0192
 5972W        W22820   5.190   3.961   5.008  0.0628 -0.0205  0.1473
 5973W        W22821   4.167   1.935   3.551 -0.0265  0.3648  0.4322
 5974W        W22822  10.028  13.366   3.392  0.2325  0.2659 -0.0377
 5975W        W22823   8.119  15.250   2.118 -0.2450 -0.0601 -0.2657
 5976W        W22824  15.656   4.752   0.534 -0.2463  0.1484  0.0681
 5977W        W22825   8.613   5.019   3.719 -0.0894  0.0970  0.0376
 5978W        W22826   4.669   7.797   1.333  0.0478 -0.0546  0.1107
 5979W        W22827  11.313  17.917  14.120 -0.1358 -0.1301  0.0629
 5980W        W22828   6.444  11.009   4.482 -0.2305  0.1633  0.0857
 5981W        W22829  10.893   2.092   2.761 -0.0595 -0.0715 -0.2011
 5982W        W22830   5.778  14.555  14.293 -0.1163 -0.2837 -0.0786
 5983W        W22831  10.780   1.261  12.361  0.1067 -0.3265 -0.0022
 5984W        W22832   2.204  17.806  15.599  0.3887 -0.0481 -0.0268
 5985W        W22833   1.664   3.733   2.661  0.2755  0.4490 -0.0638
 5986W        W22834   4.053  12.576  11.445  0.1426  0.1954  0.3992
 5987W        W22835   1.260  17.196  11.449  0.1397  0.0426  0.0676
 5988W        W22836   3.739  15.160  16.041 -0.1889  0.3580 -0.1299
 5989W        W22837   7.647  16.979   4.160 -0.0004 -0.1079 -0.0081
 5990W        W22838   3.692  10.585   2.480  0.0086  0.0859  0.2669
 5991W        W22839   1.837   0.804  12.542  0.0324  0.0427  0.0341
 5992W        W22840  13.318  10.444  10.993  0.0357 -0.1487 -0.0594
 5993W        W22841   0.537  13.571  16.086  0.0726  0.1485 -0.1293
 5994W        W22842   9.971  13.742  12.955  0.0108 -0.2239 -0.2692
 5995W        W22843  11.925  14.815   4.406 -0.2782 -0.0197 -0.0409
 5996W        W22844   4.832   5.418  15.918 -0.2608 -0.0284  0.0149
 5997W        W22845   7.049   9.386  13.599 -0.2794 -0.1684  0.2406
 5998W        W22846   5.659   4.176   4.905  0.2385  0.1891  0.2528
 5999W        W22847   9.963   6.347  13.802 -0.0485  0.0400 -0.0774
 6000W        W22848  15.692  14.750   2.544  0.0795  0.0843  0.1754
 6001W        W22849   0.377  14.163  12.522 -0.0567  0.1077 -0.2268
 6002W        W22850  16.952  14.194  14.188 -0.0729 -0.2625  0.2856
 6003W        W22851  12.262  15.922  11.829  0.3218  0.1128 -0.1566
 6004W        W22852  10.659   7.899  13.555  0.0169 -0.0743  0.2588
 6005W        W22853   6.995  13.692  14.967  0.0201 -0.0401 -0.1350
 6006W        W22854  13.573   6.575  15.869 -0.3434 -0.1798 -0.0242
 6007W        W22855   8.101  11.031  15.583  0.1575 -0.4182 -0.0255
 6008W        W22856  15.658  11.834   9.744 -0.3365  0.0425 -0.2426
 6009W        W22857   0.980   4.934  12.982  0.0846 -0.1325  0.1336
 6010W        W22858  17.106   4.703  10.685  0.4337  0.1466  0.0554
 6011W        W22859   0.973   7.001  14.537  0.3400  0.1646  0.0540
 6012W        W22860  11.407   9.186   3.051 -0.0401 -0.0898 -0.0700
 6013W        W22861   6.809   2.381   3.065 -0.3351 -0.0521  0.2881
 6014W        W22862  11.685   9.133   3.475  0.1836  0.2944  0.1667
 6015W        W22863   0.748   0.423  14.436 -0.3300  0.0965  0.2784
 6016W        W22864   8.133  17.723   3.932 -0.0017  0.2933  0.1744
 6017W        W22865   8.901   2.548   4.676  0.1044 -0.3203  0.1444
 6018W        W22866  11.246  16.417   1.777  0.3161 -0.2128 -0.0894
 6019W        W22867   2.733  15.752   1.504  0.0141 -0.0250  0.2477
 6020W        W22868  12.272  17.610  11.495 -0.1745  0.1739  0.0706
 6021W        W22869  12.941   3.114  14.754 -0.1804  0.1011  0.3230
 6022W        W22870   3.942   6.224  14.398  0.1369  0.1455  0.0036
 6023W        W22871  17.796  12.670  16.075  0.1952  0.1498  0.4050
 6024W        W22872   7.931   6.630   3.522  0.0248  0.2329 -0.1274
 6025W        W22873   7.675  15.235   0.229  0.0163  0.0590  0.0314
 6026W        W22874   2.127   3.431   2.845  0.1414  0.2029  0.1321
 6027W        W22875  11.124   5.997  15.906  0.0174  0.1997 -0.2678
 6028W        W22876   7.999   4.376  11.561  0.2425  0.1303 -0.0212
 6029W        W22877  16.237   0.680  12.830 -0.0794  0.0717 -0.2252
 6030W        W22878  15.673  11.148  12.853 -0.2563  0.1296  0.0213
 6031W        W22879  12.691  15.177  13.595  0.0603 -0.1017 -0.0115
 6032W        W22880   5.291  15.316  14.176 -0.3634  0.2846  0.0302
 6033W        W22881   9.056   5.782   5.730  0.1354 -0.3674  0.0412
 6034W        W22882  17.357   6.023   1.525  0.0560  0.2220 -0.1181
 6035W        W22883   1.854   5.102   3.009 -0.3209  0.1471  0.1379
 6036W        W22884  11.115   9.502  11.458 -0.2826  0.2941  0.0647
 6037W        W22885   0.077   5.400  14.125  0.0647  0.0708  0.1879
 6038W        W22886   7.861   0.646   2.252  0.0195  0.1295 -0.0955
 6039W        W22887   6.913   9.637   1.879 -0.0822  0.0844 -0.4680
 6040W        W22888   5.113   2.487  12.051 -0.0178  0.0489 -0.0618
 6041W        W22889   2.104  16.849  13.543  0.0239 -0.0180  0.1075
 6042W        W22890   6.725  12.855  14.169  0.2256  0.1095  0.3198
 6043W        W22891  15.327  17.406  14.993  0.2149 -0.1595  0.0636
 6044W        W22892  12.490  11.364   1.640 -0.0892  0.3027  0.0786
 6045W        W22893  11.590  11.993  14.700  0.1358  0.1286 -0.1718
 6046W        W22894  17.186  10.732  10.722 -0.0425  0.0811 -0.0070
 6047W        W22895   3.627   9.433  12.618  0.0931 -0.0886  0.0957
 6048W        W22896  11.838   7.522   3.236  0.1656  0.0504  0.1068
 6049W        W22897  16.902   9.240  12.209 -0.0808  0.2032 -0.2547
 6050W        W22898   2.626   4.561   0.298  0.0407  0.1004 -0.1062
 6051W        W22899   7.411   0.154   2.432  0.0250 -0.0718  0.1214
 6052W        W22900  17.927  13.986   3.466 -0.0542  0.0904 -0.1361
 6053W        W22901  10.024  15.451  11.516 -0.6175 -0.1037  0.2802
 6054W        W22902   3.594   5.112  13.225 -0.1586 -0.1361 -0.1386
 6055W        W22903  10.548   2.571  15.761 -0.2418  0.1983  0.1391
 6056W        W22904  17.081   7.976  11.973  0.1872 -0.0519 -0.0031
 6057W        W22905  15.758  10.483   2.720 -0.0029 -0.1758  0.0202
 6058W        W22906  17.096  17.748   1.958 -0.2040  0.1569  0.1699
 6059W        W22907   5.195  16.227  10.391 -0.1773 -0.3597 -0.0183
 6060W        W22908  10.287   7.752  14.323 -0.1156 -0.2117  0.3744
 6061W        W22909  10.945   3.894  14.621  0.2298 -0.0362  0.2915
 6062W        W22910  12.601   2.229  15.792 -0.1863 -0.0616 -0.3543
 6063W        W22911  17.861  13.226   4.021 -0.1824 -0.0653  0.5001
 6064W        W22912  17.073  17.504  14.432 -0.1376  0.4065 -0.2270
 6065W        W22913   4.920   8.047   0.369  0.0132  0.0585  0.0002
 6066W        W22914   5.904   4.636   0.416  0.1054 -0.1790  0.1333
 6067W        W22915  14.278   2.340   3.215 -0.0291  0.0806 -0.0864
 6068W        W22916  11.230  17.380  12.208  0.1939  0.2037  0.1607
 6069W        W22917   0.441  13.492  13.458  0.0612  0.1525  0.2140
 6070W        W22918   0.802   4.454  15.896 -0.0779 -0.0879  0.0739
 6071W        W22919   5.978   3.443   4.446  0.3136 -0.1224  0.1014
 6072W        W22920  15.011   2.530   2.136 -0.5422 -0.0655 -0.0005
 6073W        W22921   1.872   6.114  11.184 -0.3147  0.2610 -0.0420
 6074W        W22922   9.550  11.209   2.792 -0.1369 -0.3654 -0.0380
 6075W        W22923  11.476   5.306   1.036 -0.0547 -0.1255 -0.2585
 6076W        W22924  17.733   5.081  15.379  0.0525 -0.0401 -0.1850
 6077W        W22925   6.252  17.082   0.100 -0.0418 -0.0243 -0.0486
 6078W        W22926  14.696   5.683  11.446 -0.0307 -0.4244  0.1118
 6079W        W22927   5.376  14.961  14.547 -0.2957  0.3305  0.0202
 6080W        W22928  16.203  11.222   4.101  0.0683 -0.1043 -0.0117
 6081W        W22929  15.633   3.330   3.457  0.0727  0.0004 -0.3394
 6082W        W22930  15.004   9.141   3.556 -0.1684 -0.2693  0.0717
 6083W        W22931   3.666  15.623   0.910 -0.1090 -0.0692  0.0464
 6084W        W22932   9.513   7.453   0.993  0.0196 -0.1477  0.2599
 6085W        W22933   2.729   4.260  13.977  0.2541  0.1796  0.2119
 6086W        W22934  13.843  17.489  13.577  0.2585 -0.1677 -0.0888
 6087W        W22935   7.407   0.085  15.540 -0.2757 -0.1181  0.2847
 6088W        W22936  15.670   9.220  16.259  0.2043  0.1708 -0.0862
 6089W        W22937   9.393  17.598  15.896 -0.0270  0.0709  0.1400
 6090W        W22938   6.742  15.951  15.336 -0.0582  0.0226  0.0758
 6091W        W22939   6.556   3.659   0.045 -0.1884 -0.2989 -0.3686
 6092W        W22940   5.049  15.648  13.479 -0.3437 -0.4028 -0.1080
 6093W        W22941  15.623  17.376   0.716 -0.3557  0.0134  0.0136
 6094W        W22942  11.363   5.472   1.481  0.0467  0.2376 -0.3697
 6095W        W22943   5.115  13.441   1.715  0.2536  0.0809  0.0978
 6096W        W22944   8.033   9.288   2.853 -0.0648  0.0620 -0.2342
 6097W        W22945   5.050  10.034  10.984  0.2017 -0.3447 -0.1876
 6098W        W22946  13.982   4.975   2.610 -0.0945 -0.2000 -0.2371
 6099W        W22947   6.092   8.520   4.227  0.1609 -0.2413 -0.1890
 6100W        W22948   8.600   2.516  12.270 -0.2356  0.2552  0.1170
 6101W        W22949  11.968   9.559   5.351 -0.0470  0.0888  0.1708
 6102W        W22950  16.607   5.822  12.118 -0.0666 -0.1071  0.0179
 6103W        W22951  14.809  17.101   3.487 -0.4962 -0.0364 -0.2967
 6104W        W22952   4.268  10.739   1.905 -0.0070 -0.0941  0.0675
 6105W        W22953   8.301  13.432  11.411 -0.0133  0.2202  0.0881
 6106W        W22954   2.100   3.801   3.723  0.1132 -0.1179 -0.0470
 6107W        W22955  11.773  11.866  12.274 -0.0458 -0.0550  0.0679
 6108W        W22956  10.894  16.041  13.363  0.0512 -0.3092 -0.1088
 6109W        W22957  16.508  10.558   2.133 -0.1246  0.0361 -0.0265
 6110W        W22958   5.523  12.804   4.666 -0.1224  0.0518 -0.1838
 6111W        W22959  14.916   4.392   3.273  0.0951 -0.3190 -0.0727
 6112W        W22960   5.402  16.385  14.519 -0.1416  0.0190  0.0688
 6113W        W22961   6.682  12.743  12.798  0.1304 -0.1448  0.7007
 6114W        W22962  14.085   0.885  12.079  0.3535  0.1089  0.2203
 6115W        W22963   0.376   0.070  11.145 -0.0145  0.2245 -0.0515
 6116W        W22964   4.434   6.100  15.598  0.0577 -0.0047  0.0940
 6117W        W22965   2.805  17.218   2.328  0.1160  0.1163  0.2196
 6118W        W22966  17.564   1.307   3.663  0.2622 -0.1773 -0.2411
 6119W        W22967  16.537  10.990  15.566  0.1838  0.0402 -0.0070
 6120W        W22968   0.938   8.670   4.547  0.0381  0.0066 -0.0020
 6121W        W22969  12.884   7.537  11.788  0.0740  0.0519  0.2658
 6122W        W22970   9.265  10.218   2.456  0.0093 -0.1758  0.0341
 6123W        W22971   9.616   2.606  12.616  0.0699  0.1419 -0.0185
 6124W        W22972   2.313   5.934  14.600  0.2104  0.0524  0.1488
 6125W        W22973   1.721   2.692  11.644  0.2311 -0.2364  0.0479
 6126W        W22974   5.397  15.369   4.932 -0.6300  0.0103  0.0315
 6127W        W22975  16.487  12.312   2.519 -0.0679 -0.3080 -0.1369
 6128W        W22976   0.317  15.466  12.513  0.0873  0.1819  0.0988
 6129W        W22977  13.131   5.540  10.873 -0.1740 -0.1685 -0.1335
 6130W        W22978  11.163   0.155  11.850 -0.0058  0.1515  0.1346
 6131W        W22979  13.981   8.017  10.218  0.3047 -0.0518 -0.0657
 6132W        W22980  13.979   7.279   0.157  0.0738  0.1555  0.4520
 6133W        W22981   8.352  14.034   5.095 -0.2614 -0.2434 -0.1294
 6134W        W22982  17.899   8.065  15.355 -0.2375 -0.1466  0.0190
 6135W        W22983  12.666   0.585  13.338 -0.0589 -0.1486 -0.0699
 6136W        W22984   7.814   6.760  13.011  0.4229  0.1197 -0.0579
 6137W        W22985   3.958   4.629  14.606  0.1713  0.1871  0.4785
 6138W        W22986  13.697  13.736   0.962 -0.0722  0.1815 -0.4652
 6139W        W22987  15.302   4.059  11.202  0.0105 -0.0769 -0.2356
 6140W        W22988   1.101   6.826  16.070  0.1001 -0.2534  0.1293
 6141W        W22989  17.260   6.991  13.458 -0.0736 -0.0775  0.0395
 6142W        W22990   0.327   4.370  12.959  0.0263 -0.0471  0.0717
 6143W        W22991   9.659   8.253  12.761 -0.2289  0.0046  0.0280
 6144W        W22992  15.240  17.891  16.172  0.0017  0.2241 -0.0359
 6145W        W22993  13.248  15.818   3.099  0.1214  0.0552  0.4141
 6146W        W22994   9.322  14.166  12.224 -0.1687  0.1732  0.1115
 6147W        W22995   1.662   4.286  12.818  0.0669 -0.2265  0.1384
 6148W        W22996   7.842   6.684   2.612 -0.1996  0.2684  0.1101
 6149W        W22997  11.013   7.319   0.067  0.1531  0.1804  0.1660
 6150W        W22998  10.374   4.919  15.356  0.0554  0.0875 -0.0182
 6151W        W22999  14.246   5.325   3.856 -0.0628 -0.1620  0.2056
 6152W        W23000   8.700   0.527  14.745  0.1075  0.0125  0.1136
 6153W        W23001   3.796  16.715   3.641  0.2186  0.0080 -0.0063
 6154W        W23002   6.299  14.635  15.777 -0.0919  0.2703 -0.2840
 6155W        W23003  10.018   8.662  15.236  0.2291 -0.1227 -0.0603
 6156W        W23004   9.831  17.184  11.507 -0.0294 -0.1753  0.1600
 6157W        W23005  16.503  10.911  11.896 -0.1218  0.1775 -0.0422
 6158W        W23006  17.563  16.020   3.997  0.0222 -0.3510  0.0906
 6159W        W23007  13.547   8.783  13.574  0.0664 -0.0248  0.1000
 6160W        W23008  13.419  11.670   2.856  0.0248 -0.1585 -0.1228
 6161W        W23009   8.604   6.101   0.182  0.1192 -0.1325  0.0546
 6162W        W23010   4.933   2.600   4.715 -0.3028  0.1935 -0.0971
 6163W        W23011   0.288  11.564   1.467 -0.0340 -0.1664  0.0102
 6164W        W23012   6.879  17.115   3.926 -0.1275 -0.2015 -0.2650
 6165W        W23013   8.221  17.764   2.145  0.0793 -0.0811  0.0054
 6166W        W23014   6.197   8.411  11.899 -0.0186  0.0562 -0.4282
 6167W        W23015   2.591  14.905  15.395 -0.1652 -0.1035  0.0674
 6168W        W23016  15.533   2.464  15.852 -0.1423 -0.5104  0.3802
 6169W        W23017  11.962  10.313   2.616  0.1114 -0.0575  0.2519
 6170W        W23018  13.163   8.790   1.105  0.0140 -0.1878 -0.1726
 6171W        W23019  14.287   7.543   3.121  0.2104  0.0702  0.4239
 6172W        W23020   9.021   1.812   2.138 -0.1176 -0.5116 -0.1431
 6173W        W23021   2.167  17.060   4.101  0.1965  0.0170 -0.1894
 6174W        W23022   7.438   6.357   0.713  0.0998  0.0558  0.1301
 6175W        W23023   0.287  15.180  12.891 -0.0003 -0.1072  0.3958
 6176W        W23024  14.716  14.290   3.302  0.1296 -0.0209  0.1433
 6177W        W23025   0.277  10.976   0.100  0.0261 -0.0533 -0.1796
 6178W        W23026   3.378   9.626  12.012 -0.1272 -0.0140 -0.0536
 6179W        W23027   5.907   3.736   4.087 -0.0478 -0.1525  0.1678
 6180W        W23028   6.291   0.217   2.147 -0.3564  0.0272  0.1032
 6181W        W23029   4.164  17.879   3.693 -0.1922  0.1424  0.0491
 6182W        W23030   4.552  15.757   1.690  0.1007 -0.0404  0.0031
 6183W        W23031   5.508   1.486  13.127  0.1756  0.2620 -0.1004
 6184W        W23032   1.693  12.283  16.016  0.1556  0.0586  0.0358
 6185W        W23033  15.757   0.648   3.259  0.1232 -0.0008 -0.0234
 6186W        W23034   5.425   1.389   2.483 -0.2881  0.1169  0.3424
 6187W        W23035  15.386   6.174   4.255  0.1355 -0.0019 -0.5378
 6188W        W23036   6.354  15.314  12.660 -0.0128  0.2908  0.2988
 6189W        W23037   5.317  15.308   4.467  0.0888  0.1377 -0.0295
 6190W        W23038  15.214  12.194   2.402 -0.0097 -0.0180  0.1848
 6191W        W23039  15.311   5.057   4.285  0.2758 -0.0286 -0.4792
 6192W        W23040   6.197  11.846  16.124 -0.0174 -0.1668 -0.1395
 6193W        W23041   6.523   1.503   2.754 -0.1504  0.1301 -0.2646
 6194W        W23042   3.093   4.207   0.693 -0.0390  0.1178  0.0487
 6195W        W23043  10.438  16.726  14.006  0.4400  0.0835  0.0573
 6196W        W23044   5.150   5.861   1.132 -0.0579  0.2455 -0.1527
 6197W        W23045  12.229   1.695  12.796 -0.1924  0.0017  0.0569
 6198W        W23046   7.539  11.687   0.302 -0.1882 -0.1842 -0.0898
 6199W        W23047   3.825  16.250  10.868 -0.1718  0.5080  0.0668
 6200W        W23048   7.690   7.306  11.928  0.1739  0.0036 -0.0434
 6201W        W23049   9.767   0.792   5.201  0.1114 -0.0471  0.2383
 6202W        W23050   4.573  10.645  13.081 -0.2855  0.0022 -0.0053
 6203W        W23051   3.240  17.190  12.671  0.0418 -0.4044  0.1411
 6204W        W23052  13.296  17.310   4.373  0.2603 -0.2318  0.0974
 6205W        W23053  12.088   6.182   2.650 -0.1467 -0.0020  0.1437
 6206W        W23054  10.543   2.872   4.840  0.0519  0.1148  0.0309
 6207W        W23055   4.179   5.672   1.526  0.0503  0.0501 -0.0011
 6208W        W23056  17.869  14.801  11.471  0.0776  0.1349  0.2402
 6209W        W23057  12.749  15.235  12.761  0.4068  0.3601 -0.1056
 6210W        W23058   9.340   8.672  15.887 -0.0471  0.0476  0.2258
 6211W        W23059   4.515  11.690  16.065 -0.2378  0.2851  0.4519
 6212W        W23060  11.527  12.253   4.520 -0.0047  0.0852 -0.2220
 6213W        W23061  15.641   7.924   5.235 -0.3504  0.2671 -0.0293
 6214W        W23062  10.889   6.996  11.293  0.0232 -0.1800 -0.3213
 6215W        W23063  15.768  13.021   2.434 -0.0532 -0.0911 -0.0778
 6216W        W23064   3.070   0.699   4.192 -0.3268 -0.0538  0.2894
 6217W        W23065   0.860  15.481  12.675  0.3121  0.0714 -0.1076
 6218W        W23066   0.288   3.409  15.644  0.1327 -0.1668  0.4110
 6219W        W23067   6.710  15.008   3.179 -0.0341  0.1355 -0.1906
 6220W        W23068  10.613   5.802  14.243  0.4516  0.0496  0.3766
 6221W        W23069   5.258   5.349  16.162  0.1982 -0.0871  0.0751
 6222W        W23070  17.641   4.155  14.688 -0.1252 -0.2619 -0.1763
 6223W        W23071   5.373  17.357   1.000  0.2283  0.0451 -0.1124
 6224W        W23072   0.333   9.480   1.716 -0.1717  0.0265  0.2104
 6225W        W23073   6.151   6.526   2.913 -0.2057  0.1222 -0.0965
 6226W        W23074  12.142   5.574  12.721 -0.3749  0.0629  0.2197
 6227W        W23075   6.759   0.677   1.537  0.1807  0.1531  0.2004
 6228W        W23076  10.594  13.069  14.472  0.0142 -0.0534  0.1380
 6229W        W23077  10.530   4.200   0.233  0.1066 -0.0978 -0.0901
 6230W        W23078  11.493  12.503  12.872  0.1955 -0.2341  0.2255
 6231W        W23079  15.764   9.359   1.335 -0.0489  0.0300 -0.0065
 6232W        W23080   3.007  10.838  13.691  0.2336  0.4065  0.0231
 6233W        W23081   8.344  17.586   3.086  0.0070 -0.1296  0.0608
 6234W        W23082  17.821   5.303   3.883 -0.0161  0.1580  0.0026
 6235W        W23083   8.082  16.275  15.652  0.2550  0.2777 -0.5125
 6236W        W23084   6.524   0.676   0.646  0.0244  0.0350  0.1256
 6237W        W23085  15.806   6.303   4.512  0.0285 -0.0384  0.0614
 6238W        W23086  17.992  15.459   3.336  0.1803  0.2680  0.1163
 6239W        W23087   3.814  14.884  11.171  0.1310  0.3838  0.0024
 6240W        W23088  14.961  10.297   1.503 -0.1802 -0.1524  0.0644
 6241W        W23089  12.838  15.364  12.273  0.0991  0.1260  0.0035
 6242W        W23090   0.789   4.398  13.758  0.1737  0.0483 -0.2019
 6243W        W23091   2.910   6.301  15.971  0.1712  0.2288 -0.0465
 6244W        W23092   5.942  14.625  11.532  0.0262  0.0682  0.2436
 6245W        W23093   1.294   4.796   0.215 -0.0608  0.0744 -0.3268
 6246W        W23094   6.420   5.301   0.721  0.0933 -0.0834  0.0566
 6247W        W23095  17.579   2.612  13.213  0.2189  0.1010 -0.1031
 6248W        W23096   8.595  10.778  13.720  0.0324 -0.1660 -0.3595
 6249W        W23097  12.906   3.071   2.688  0.1161  0.1101 -0.3792
 6250W        W23098   9.812   3.343  16.073 -0.0719  0.1337 -0.0389
 6251W        W23099  17.657   7.281  14.841  0.3169  0.1423 -0.1947
 6252W        W23100   7.386   8.852   2.377  0.0659 -0.0973  0.1510
 6253W        W23101  17.304   1.104  13.463  0.1442  0.0445  0.2671
 6254W        W23102  10.139   4.687   0.774  0.1988 -0.0270  0.0029
 6255W        W23103   6.998   2.855   3.085  0.2240 -0.1961  0.0616
 6256W        W23104   2.821   6.711  15.728 -0.0338  0.0760  0.1549
 6257W        W23105   9.793   0.172   0.908 -0.1460  0.0767  0.1699
 6258W        W23106  12.618   4.057   5.130 -0.2546  0.1239  0.0563
 6259W        W23107  16.191   6.590   3.207  0.1739  0.0087  0.0874
 6260W        W23108   3.211  12.976  15.171  0.2133 -0.1932  0.0253
 6261W        W23109   9.561   5.232  11.034  0.2393 -0.0423  0.0804
 6262W        W23110   1.295  13.867  12.224  0.1008  0.1516 -0.1038
 6263W        W23111  13.798   6.356   1.671  0.1885 -0.0243 -0.1392
 6264W        W23112   1.752  12.092  15.468 -0.1414  0.0271 -0.0413
 6265W        W23113  11.243   9.229  16.001 -0.1678  0.0834  0.0929
 6266W        W23114  17.458  14.499   0.816 -0.1171 -0.0938 -0.0576
 6267W        W23115   5.814  15.068  11.729 -0.1128 -0.1945 -0.0684
 6268W        W23116  16.336   4.758  14.171 -0.2825  0.1959  0.3936
 6269W        W23117  16.608  16.990   0.968  0.1282  0.3888 -0.2414
 6270W        W23118  12.089  10.803   1.415  0.2165 -0.0519 -0.1285
 6271W        W23119  14.593   9.025   5.809  0.0842 -0.2294 -0.2539
 6272W        W23120  11.218   0.478  11.027 -0.1086  0.0177  0.1722
 6273W        W23121  16.390   9.002  16.164 -0.0154  0.1902 -0.1341
 6274W        W23122  17.916   1.844   2.969 -0.1353 -0.1354 -0.4487
 6275W        W23123   4.089  13.088  13.938  0.1815  0.3029 -0.0725
 6276W        W23124   5.711   8.425   4.933  0.4872  0.1765 -0.1090
 6277W        W23125   7.829  12.503  14.170 -0.1165 -0.0005 -0.2535
 6278W        W23126  13.908   4.426   3.438  0.1449 -0.0543 -0.4352
 6279W        W23127   8.553   5.970   4.150 -0.4085  0.0983  0.0755
 6280W        W23128   9.560   5.066   1.497 -0.0371 -0.1225  0.1061
 6281W        W23129   1.486   4.961   4.406  0.0522 -0.1629 -0.3501
 6282W        W23130   3.141  15.535  12.855  0.0295 -0.1308  0.0956
 6283W        W23131   5.819  16.008  15.786 -0.4298  0.0460 -0.3123
 6284W        W23132   7.811  15.762  14.697  0.1557 -0.0174  0.3279
 6285W        W23133   6.250  10.308  16.100  0.1796 -0.2181  0.0635
 6286W        W23134   8.660   6.030   1.267  0.0291  0.1865  0.0638
 6287W        W23135   8.798   4.166  14.552 -0.0880 -0.4088 -0.0388
 6288W        W23136  13.751   2.184  15.981 -0.4133  0.0357 -0.3213
 6289W        W23137  10.732   5.869  15.560 -0.1230  0.1215 -0.0334
 6290W        W23138  14.180   1.451   2.477 -0.0199  0.4197 -0.1194
 6291W        W23139   0.431   7.826  13.837  0.1514 -0.0847  0.3099
 6292W        W23140   8.746  14.033   4.814 -0.0750  0.0229 -0.2618
 6293W        W23141  14.851  15.777   3.152  0.0375 -0.3148 -0.3282
 6294W        W23142  11.802   5.785   0.806 -0.1981 -0.1224 -0.1123
 6295W        W23143  14.556   7.916   1.499 -0.1754  0.0522 -0.2837
 6296W        W23144   3.560  10.182   2.104  0.1518 -0.0253 -0.0229
 6297W        W23145  16.757  11.794  15.234 -0.0812 -0.2049  0.2692
 6298W        W23146   8.389   6.436   3.413  0.1832 -0.0148  0.0744
 6299W        W23147   2.185   4.601  16.203 -0.2050  0.1099 -0.1760
 6300W        W23148  16.475  15.069   2.659  0.3422  0.1253 -0.1181
 6301W        W23149  12.897  10.041  11.306  0.0297 -0.1890  0.1675
 6302W        W23150   6.877  10.669   2.535 -0.1260 -0.3424  0.0252
 6303W        W23151  13.641   7.021   1.207  0.0617 -0.0627 -0.4833
 6304W        W23152  13.023   4.064   4.772  0.5046  0.0093  0.2854
 6305W        W23153   3.131  14.017   1.711  0.1402 -0.0019  0.0526
 6306W        W23154   3.351  16.249   0.419 -0.0508  0.0882 -0.0190
 6307W        W23155  11.282  16.587  15.839 -0.2302  0.1865  0.3370
 6308W        W23156   8.706  11.034  11.637 -0.0318  0.3663 -0.1528
 6309W        W23157  14.002  13.986   4.754 -0.1082  0.2011  0.2975
 6310W        W23158  13.505  14.146  14.838 -0.5512  0.1902 -0.2419
 6311W        W23159  16.027   3.258   2.590  0.0805  0.3766 -0.0194
 6312W        W23160  16.372   6.243  11.235 -0.1489  0.0328  0.1146
 6313W        W23161   2.885   8.508  11.713  0.2761  0.4775  0.0745
 6314W        W23162  14.610   2.372   1.164 -0.0162  0.3419 -0.5769
 6315W        W23163   7.668   5.125  15.850  0.0871  0.1601 -0.2618
 6316W        W23164  12.536  15.775   0.951 -0.0868  0.1143 -0.2118
 6317W        W23165   3.560  15.388  12.628 -0.1111 -0.3040  0.0319
 6318W        W23166  10.745  12.901  11.577 -0.0430  0.1627 -0.2727
 6319W        W23167  13.634  12.722  12.999 -0.0849 -0.3053  0.0452
 6320W        W23168   9.010  14.760  10.785  0.1903 -0.3323  0.1512
 6321W        W23169   3.763   3.334   2.465 -0.1519 -0.2653  0.2894
 6322W        W23170   6.058   6.667   3.835  0.0483 -0.1288 -0.1299
 6323W        W23171   2.804   8.162   0.833  0.2078 -0.3584  0.0780
 6324W        W23172   4.491   4.391  14.518 -0.1572 -0.0578 -0.1281
 6325W        W23173   7.856  10.389   1.099  0.1805  0.1272  0.0971
 6326W        W23174  14.352   5.304  15.663 -0.2448  0.0631  0.0459
 6327W        W23175   1.627   1.108  12.877  0.1523  0.1313  0.1615
 6328W        W23176  17.213   4.807   4.881  0.0906  0.1088 -0.1599
 6329W        W23177   3.726   3.944   2.466  0.2991  0.2690 -0.4182
 6330W        W23178   2.583  15.229  13.819  0.3015 -0.1065 -0.0524
 6331W        W23179   9.232  12.662   2.621  0.2831  0.0704  0.2581
 6332W        W23180   1.255   8.651  11.724  0.0754  0.1159  0.0322
 6333W        W23181   6.174   8.621  15.085 -0.0181 -0.2204 -0.0963
 6334W        W23182  14.343  13.055   3.981 -0.0205  0.1404 -0.0151
 6335W        W23183   9.292  14.726   1.423 -0.0336  0.4767  0.1105
 6336W        W23184   8.173  11.035  11.689  0.1998  0.1421 -0.1539
 6337W        W23185  14.258   0.339   2.431  0.0478  0.1598 -0.0703
 6338W        W23186   7.714   9.375  11.331 -0.0679  0.3741  0.0520
 6339W        W23187  15.712  11.774   4.585 -0.4673  0.3475 -0.1918
 6340W        W23188   0.718   8.757   1.338 -0.1283 -0.5416  0.0256
 6341W        W23189   3.841   5.790   0.573 -0.0261 -0.1089 -0.1285
 6342W        W23190  13.663   9.359   0.191  0.0780 -0.0043  0.1377
 6343W        W23191   9.832  10.590  14.708  0.1078  0.0201 -0.0419
 6344W        W23192   7.686  11.274   3.154 -0.2119 -0.1698  0.2460
 6345W        W23193  11.142   7.259  14.596  0.0675 -0.2003 -0.0964
 6346W        W23194  15.381  16.222  14.507 -0.0298  0.2225 -0.0133
 6347W        W23195  15.769   8.820   2.074  0.0582 -0.1948  0.0568
 6348W        W23196   5.802   9.847   3.389  0.3772 -0.2615  0.1796
 6349W        W23197   5.076   7.881  11.247  0.0025  0.0968 -0.1530
 6350W        W23198   6.867  11.101   2.250 -0.3629 -0.1664 -0.1560
 6351W        W23199  13.429  12.842   4.432  0.0840  0.1355 -0.0375
 6352W        W23200   8.565   0.567   5.076 -0.3864  0.1325  0.1152
 6353W        W23201  12.863  10.783  12.598 -0.1985  0.0297 -0.0514
 6354W        W23202  15.349   9.530   3.114  0.1544 -0.2015 -0.0252
 6355W        W23203   7.901   2.439   5.191  0.0758 -0.3670  0.2556
 6356W        W23204  11.453  12.484  14.869 -0.2762  0.2068 -0.0447
 6357W        W23205  11.109  13.540  12.798  0.1408 -0.0690 -0.0377
 6358W        W23206   1.500  16.302  10.295 -0.1696 -0.1773  0.0378
 6359W        W23207   0.428   4.449   4.495 -0.1560 -0.0940  0.0456
 6360W        W23208  17.350  16.684   2.176 -0.0765  0.0316 -0.2700
 6361W        W23209   7.899   5.808   5.057  0.2065 -0.1284  0.0315
 6362W        W23210  16.408   4.139   5.435 -0.1770  0.0279 -0.2138
 6363W        W23211   5.030   6.146   3.714 -0.1857 -0.2843 -0.0730
 6364W        W23212   8.616  18.022   0.531  0.3110  0.1967  0.1013
 6365W        W23213  16.028  15.316   5.462 -0.2429  0.1825  0.1842
 6366W        W23214  14.853   6.627  15.391 -0.1262 -0.0388 -0.1155
 6367W        W23215   2.697  13.194   4.118 -0.3362 -0.0745 -0.0819
 6368W        W23216   8.899  14.505  16.087 -0.1949 -0.0330  0.2290
 6369W        W23217  13.662  14.814  11.806 -0.0831  0.0054  0.1201
 6370W        W23218  16.919   9.896  14.651 -0.1869 -0.0040  0.2223
 6371W        W23219   3.869   4.344  11.843 -0.0586 -0.1002 -0.1167
 6372W        W23220  10.736  14.656  15.775  0.1234  0.3411  0.0055
 6373W        W23221   5.176   4.743  13.920 -0.1622  0.2484  0.0196
 6374W        W23222  14.397  16.675   4.098 -0.2847  0.0699 -0.0877
 6375W        W23223   5.229  14.544  14.838 -0.1451 -0.0004 -0.2436
 6376W        W23224   9.939   2.617   0.307 -0.0152 -0.5222  0.2948
 6377W        W23225   5.887   3.680   1.595 -0.0885  0.1084 -0.3481
 6378W        W23226   2.831   9.593  15.200 -0.1776  0.0703 -0.1160
 6379W        W23227  14.519   3.398  13.605  0.2519 -0.4525  0.0855
 6380W        W23228   7.614  10.578   2.534 -0.0661  0.0941  0.0418
 6381W        W23229   8.869   0.144  10.826 -0.0710 -0.1216  0.1540
 6382W        W23230   4.099   6.237  15.300 -0.0478  0.0621 -0.0903
 6383W        W23231   5.762   6.292  12.758  0.0913 -0.1064  0.2282
 6384W        W23232   0.826  13.460   4.393 -0.1179 -0.0253 -0.2921
 6385W        W23233   5.028   5.708  15.001 -0.0618  0.0824  0.1021
 6386W        W23234   6.724   1.442   3.776 -0.3449  0.0803  0.0066
 6387W        W23235  16.733   7.074  15.496 -0.2693 -0.0594 -0.2837
 6388W        W23236   6.270   3.757   3.138  0.0302  0.1986  0.3039
 6389W        W23237  16.932  16.586   3.345  0.3703 -0.0438 -0.0648
 6390W        W23238  14.952  17.430  15.344  0.0584  0.0451 -0.1171
 6391W        W23239  12.043  13.585  14.997  0.2412  0.0971  0.2036
 6392W        W23240   2.701   8.870  15.137 -0.0588 -0.0234  0.1424
 6393W        W23241   0.431   1.802  15.933  0.2986 -0.0472 -0.0336
 6394W        W23242   7.333  13.442   3.093  0.0046  0.3960  0.0105
 6395W        W23243  13.591  14.145   2.324 -0.0473  0.0396  0.1034
 6396W        W23244   7.519   0.520   5.550  0.2607  0.2636 -0.1574
 6397W        W23245   0.412   3.554  11.356  0.2583  0.0628 -0.2366
 6398W        W23246  11.050   6.399   2.888 -0.4164 -0.2691  0.1067
 6399W        W23247  15.310  16.424  12.680  0.2375 -0.2403  0.2088
 6400W        W23248   6.273  16.345   5.894 -0.1267  0.3626 -0.0898
 6401W        W23249   0.961   7.059   4.658  0.0765  0.1007 -0.2096
 6402W        W23250  11.490   8.780   3.745 -0.1683 -0.0473  0.1044
 6403W        W23251   8.900  15.012   5.328 -0.1750 -0.0683 -0.2168
 6404W        W23252  13.442  14.673  14.883  0.3012  0.2155 -0.1238
 6405W        W23253   8.779   0.236   3.926 -0.0523  0.0818 -0.1347
 6406W        W23254  10.089   2.261   4.065  0.2452  0.5654  0.1240
 6407W        W23255  17.390  16.939   4.763 -0.1347  0.1325  0.0259
 6408W        W23256   4.615  11.805  13.873  0.1828 -0.1700  0.0306
 6409W        W23257   9.982  14.810  14.457  0.1578 -0.0926 -0.2062
 6410W        W23258   0.104   6.576   1.394 -0.0532  0.1135 -0.2430
 6411W        W23259   2.279  15.228  14.189  0.2061 -0.1027 -0.6486
 6412W        W23260  16.782   4.128  15.253  0.0744  0.0817 -0.1482
 6413W        W23261  12.791  17.467  13.063 -0.0373 -0.1566  0.0558
 6414W        W23262  10.221   8.669   5.885  0.1117  0.2208 -0.1903
 6415W        W23263  11.927   6.607   2.891  0.1318  0.1115  0.0344
 6416W        W23264  17.075  13.031  14.014  0.0651  0.0560  0.0502
 6417W        W23265   8.451   7.353  15.631 -0.1255 -0.0825  0.2683
 6418W        W23266  13.494   4.242  11.448  0.1791  0.0468  0.0407
 6419W        W23267   7.247   2.304  11.913 -0.0106  0.0491 -0.2317
 6420W        W23268   9.375  16.464  16.073  0.0132  0.0414  0.2051
 6421W        W23269  16.674   3.478  13.627  0.2393  0.1954 -0.0733
 6422W        W23270   6.515   8.742  13.772 -0.2773  0.0629 -0.0759
 6423W        W23271  13.770  16.965  14.028  0.2136  0.1310  0.1725
 6424W        W23272  13.900   1.031  14.853 -0.3562  0.0857  0.0190
 6425W        W23273   5.553   7.137   1.828  0.4846 -0.5038 -0.1716
 6426W        W23274   9.127  16.957  13.951 -0.1954  0.2058 -0.0399
 6427W        W23275   0.115  14.578  12.318 -0.2918  0.0599 -0.4017
 6428W        W23276   5.612   6.125   4.417 -0.0527 -0.2316 -0.2660
 6429W        W23277   5.105   5.052   1.590 -0.1143 -0.2639  0.1508
 6430W        W23278  16.416  11.261   2.881 -0.3024  0.1799  0.0375
 6431W        W23279  17.317   4.615   2.966 -0.2271  0.1728  0.1191
 6432W        W23280   8.429   2.672   1.859 -0.1329 -0.0753  0.1060
 6433W        W23281  11.105   9.803   0.394 -0.0448 -0.1675 -0.0685
 6434W        W23282  10.008   4.146   4.390 -0.1554  0.2454  0.1684
 6435W        W23283   9.002   4.981   5.073 -0.2220 -0.0887 -0.0211
 6436W        W23284   1.370  16.266   0.804 -0.1044  0.2663 -0.2553
 6437W        W23285  16.526  13.371   4.533 -0.2278 -0.1780 -0.1827
 6438W        W23286   3.415   6.136  16.090  0.0744 -0.0465 -0.1310
 6439W        W23287  14.877  14.390  13.935  0.0218  0.1789 -0.1996
 6440W        W23288  14.584   8.691  12.872  0.0598  0.0457 -0.1599
 6441W        W23289   4.033   9.034  14.711 -0.3050  0.1294 -0.0831
 6442W        W23290   3.313  14.745  12.205 -0.0740 -0.0807 -0.3553
 6443W        W23291  15.589   7.690   2.214  0.1188  0.3385 -0.1277
 6444W        W23292   4.296  12.954   2.087 -0.0417  0.0796 -0.0033
 6445W        W23293   0.781  15.853   3.824 -0.0889 -0.0002 -0.3144
 6446W        W23294  10.120   1.437  15.595 -0.0693 -0.2612  0.0863
 6447W        W23295  15.832   5.212  12.126 -0.0506 -0.0027 -0.0023
 6448W        W23296   3.909   0.212   1.197 -0.0024 -0.0095 -0.0461
 6449W        W23297  11.828  12.796   2.129 -0.1207  0.0941  0.2332
 6450W        W23298  14.574   7.623  13.202 -0.1653 -0.1914  0.0596
 6451W        W23299   2.945   9.645   0.356  0.0397  0.0997 -0.1952
 6452W        W23300   5.191   6.937   1.224 -0.0696  0.0755  0.1053
 6453W        W23301  14.007   9.705   1.134  0.0181 -0.1467 -0.0818
 6454W        W23302  14.896   1.506  10.868 -0.3066 -0.0996  0.0928
 6455W        W23303  15.433   6.372  14.298 -0.0230  0.1013  0.0871
 6456W        W23304  13.325  13.479  12.470  0.3262 -0.0927 -0.3583
 6457W        W23305   1.927   8.491  11.743  0.1115 -0.1088  0.0605
 6458W        W23306  13.986  10.237   0.952  0.3421 -0.0480 -0.2536
 6459W        W23307  14.282  17.965   3.489  0.1530 -0.1087 -0.3201
 6460W        W23308  13.125   3.170  15.299 -0.1207  0.0427  0.0351
 6461W        W23309   9.422   2.676  10.395 -0.0284  0.3287  0.3177
 6462W        W23310  17.944  15.335  15.367 -0.1259  0.2276  0.1490
 6463W        W23311   7.829   1.649  15.041  0.2397 -0.1496  0.0363
 6464W        W23312  12.168  16.409  11.945 -0.2549 -0.3602 -0.3620
 6465W        W23313  14.964   3.580   4.626  0.2738 -0.0948 -0.1385
 6466W        W23314   4.718  15.784  11.036  0.0013 -0.0480 -0.3555
 6467W        W23315   0.074  17.602   1.736 -0.0994  0.0520 -0.2122
 6468W        W23316  10.912   7.662  13.157  0.1778  0.0545 -0.2567
 6469W        W23317  12.591   2.722  15.669 -0.1041  0.0398  0.3503
 6470W        W23318   8.047  11.013  10.812  0.1460  0.1733 -0.1282
 6471W        W23319   2.609   2.834  11.987 -0.2201  0.1798  0.0060
 6472W        W23320   9.216   9.159  12.514 -0.0524  0.0780  0.1972
 6473W        W23321   6.955  11.730   4.496  0.2438 -0.2653 -0.3620
 6474W        W23322  12.857   5.072  13.495 -0.3201  0.1431 -0.0812
 6475W        W23323  11.335   3.418  11.446 -0.0653 -0.4740 -0.0145
 6476W        W23324   0.640   4.877   3.617  0.0964  0.0756  0.2648
 6477W        W23325  11.516   8.890   4.862  0.0297 -0.0050 -0.1771
 6478W        W23326   9.235   8.208   0.536 -0.1246  0.2277 -0.0460
 6479W        W23327   4.961  11.747  13.076 -0.0412  0.0499  0.2210
 6480W        W23328  16.529   4.825   1.805  0.0200 -0.0657 -0.0793
 6481W        W23329  13.612   9.957   2.894 -0.1105  0.3153 -0.3991
 6482W        W23330   2.925   6.720   0.436 -0.0542 -0.1258 -0.0643
 6483W        W23331   6.105  10.015   1.482  0.1327 -0.1165  0.0757
 6484W        W23332  12.441  12.797  11.718 -0.1256 -0.2654  0.2408
 6485W        W23333  11.106   0.820   0.676 -0.1570 -0.2097  0.1719
 6486W        W23334  17.650  11.464  13.980  0.1064  0.1589 -0.1087
 6487W        W23335  16.606   7.942  15.769 -0.3149 -0.2058  0.0480
 6488W        W23336  15.286   4.403   2.687  0.2135  0.1333  0.0129
 6489W        W23337  11.241  11.774   0.570  0.1231 -0.1384 -0.2114
 6490W        W23338   5.094   2.989   1.243 -0.1434 -0.0140 -0.2297
 6491W        W23339  12.081   0.499   0.314 -0.1289 -0.3076  0.2053
 6492W        W23340  10.874  15.067   0.562  0.1029  0.0190  0.2243
 6493W        W23341   9.467   3.275   1.964  0.2017 -0.1016  0.2939
 6494W        W23342   2.194  17.253   0.656  0.2818  0.0061  0.0323
 6495W        W23343   3.239   2.687  10.973  0.1501 -0.0041  0.1184
 6496W        W23344   8.527   8.378  11.461 -0.0754  0.4092  0.1252
 6497W        W23345  11.672   8.354  15.522  0.1212  0.1524 -0.0262
 6498W        W23346   3.105  16.449  13.360  0.4958 -0.1550 -0.2010
 6499W        W23347   6.259   8.469   1.657  0.1304  0.1993  0.0541
 6500W        W23348  11.551   4.407   3.182 -0.2693 -0.1548  0.0871
 6501W        W23349  12.546  17.985   2.745  0.1187  0.0338  0.0977
 6502W        W23350   4.340   2.467   2.582 -0.3089 -0.2061 -0.1102
 6503W        W23351   9.317  11.306  13.623  0.0840 -0.1244  0.2173
 6504W        W23352  10.947   0.696  13.218  0.0003 -0.1881  0.0198
 6505W        W23353   5.536   1.124  12.666  0.1566 -0.0650  0.0637
 6506W        W23354   1.676  11.419  12.321 -0.2365  0.0329 -0.1886
 6507W        W23355   4.441   9.613  12.875  0.2026  0.2228 -0.1655
 6508W        W23356   6.237  12.170  12.091  0.1199 -0.0214  0.2254
 6509W        W23357  17.625  17.870  10.991  0.0508  0.3654 -0.0103
 6510W        W23358   9.691   2.536   2.354 -0.1381 -0.1589  0.1570
 6511W        W23359  14.184   8.994   4.061  0.2038  0.1668 -0.1992
 6512W        W23360   4.328   7.018   1.001 -0.1673  0.1340 -0.2467
 6513W        W23361  11.785  14.830  12.477  0.1425 -0.0141 -0.0140
 6514W        W23362   8.635  13.405  12.339  0.1536 -0.1087  0.1989
 6515W        W23363   5.635   2.716   4.778 -0.2816 -0.0845  0.0387
 6516W        W23364  13.432   7.953  11.612 -0.2569 -0.1359 -0.1377
 6517W        W23365   6.141  16.161   3.490  0.0030 -0.0906  0.1912
 6518W        W23366  10.788  17.159   1.249  0.0314 -0.1220  0.1992
 6519W        W23367   3.393  15.570   4.565 -0.2700  0.1483  0.1168
 6520W        W23368   4.483   9.202   2.728  0.4957  0.3460 -0.3024
 6521W        W23369  15.911   7.903  16.025 -0.2218  0.0580 -0.2483
 6522W        W23370  12.377   5.774   0.043 -0.1902  0.4089  0.0111
 6523W        W23371   4.297   4.115  15.992 -0.1437 -0.0172  0.2708
 6524W        W23372   7.095  17.088  11.899 -0.1313  0.1690 -0.2467
 6525W        W23373   4.996   0.303   3.369  0.2443 -0.0392 -0.0137
 6526W        W23374   6.991  12.926   5.738 -0.1872  0.2239 -0.3349
 6527W        W23375   3.206  15.146  15.287  0.0181 -0.0496  0.0662
 6528W        W23376   0.575   7.115   5.180  0.2229 -0.0945 -0.1399
 6529W        W23377  14.393   2.726  11.361 -0.1665  0.0919 -0.1638
 6530W        W23378   8.969   1.995  12.423 -0.1113  0.1046 -0.0169
 6531W        W23379   4.410  13.266  11.265  0.0595  0.2602 -0.0809
 6532W        W23380   8.611   4.383   3.836 -0.1220 -0.1030 -0.0264
 6533W        W23381  14.598   0.364   3.303 -0.0210  0.0985 -0.0740
 6534W        W23382   0.396  12.824   1.225  0.1809 -0.1149 -0.0553
 6535W        W23383   0.189   6.257  12.785  0.3800 -0.0275 -0.0535
 6536W        W23384  10.550   0.785   3.569 -0.0758 -0.2652  0.0797
 6537W        W23385  11.847   2.762   4.094 -0.1776  0.1658  0.0219
 6538W        W23386  14.605  15.763  11.559  0.1281 -0.1093  0.2041
 6539W        W23387   4.065   5.428  11.523 -0.0823  0.1051  0.0947
 6540W        W23388   1.119  14.565  11.298  0.1531  0.1810  0.0091
 6541W        W23389  17.715  11.126   2.698  0.3330  0.3198  0.2094
 6542W        W23390   2.979   1.185   3.848  0.0473  0.0507  0.1058
 6543W        W23391  16.692  11.735   0.545  0.1561 -0.1780  0.2946
 6544W        W23392   2.220  12.802  13.964 -0.2142 -0.0993 -0.2319
 6545W        W23393  11.638   3.598   2.573  0.1467  0.1962  0.1157
 6546W        W23394   5.360  17.712  16.196  0.0437 -0.1372 -0.1960
 6547W        W23395  10.480   8.438   3.558 -0.2883  0.0359 -0.0617
 6548W        W23396   5.990   9.994  12.142 -0.1836 -0.2294  0.2251
 6549W        W23397  17.477   5.568  15.485 -0.1844  0.2616  0.1603
 6550W        W23398  10.019   1.034  13.594 -0.1093  0.0922  0.1221
 6551W        W23399  14.587  13.936  14.062  0.1259 -0.0890  0.2111
 6552W        W23400  14.638   6.110   3.980  0.0374  0.0440 -0.2495
 6553W        W23401   0.333   1.861  11.854  0.0893 -0.0088 -0.0174
 6554W        W23402  15.516  11.980  11.932 -0.0478 -0.1479 -0.0133
 6555W        W23403  12.152  13.462   3.334 -0.2443  0.0483 -0.2783
 6556W        W23404  12.002   1.192   4.087 -0.0583 -0.0292  0.2134
 6557W        W23405   8.724   3.745   1.123  0.1328 -0.2447  0.1330
 6558W        W23406   3.939  17.913  15.174 -0.1687 -0.4311  0.0799
 6559W        W23407  16.253  14.010   5.361 -0.1199  0.1245  0.0423
 6560W        W23408   2.643  14.304   1.759 -0.2040  0.0659 -0.1448
 6561W        W23409  16.652   9.535  11.854  0.4617  0.0811 -0.1305
 6562W        W23410  10.693  17.465   2.462 -0.4344  0.4772 -0.0564
 6563W        W23411   8.421   6.715  13.377 -0.2773  0.0846 -0.3836
 6564W        W23412   5.065  16.851   3.471  0.1435 -0.0404  0.0104
 6565W        W23413  15.838  17.749   5.072 -0.0975 -0.0456 -0.0806
 6566W        W23414  14.242   5.465  14.001 -0.0190  0.0799 -0.1124
 6567W        W23415   8.814  13.307   2.253 -0.0595  0.1552  0.2453
 6568W        W23416   5.295   8.494  15.556  0.0329 -0.2879  0.1338
 6569W        W23417   8.472   5.966   3.125  0.1179 -0.0800 -0.0629
 6570W        W23418  16.759  12.174   6.002 -0.0718 -0.0191 -0.0543
 6571W        W23419  14.289  16.890  12.513 -0.3113 -0.1845 -0.1001
 6572W        W23420  17.186  17.401  11.754 -0.2899  0.1401 -0.1514
 6573W        W23421  10.012   6.218   2.544 -0.0302 -0.0743  0.0347
 6574W        W23422  11.533  10.104  15.585  0.0282  0.0115 -0.1295
 6575W        W23423  16.781  13.438  13.744 -0.5762 -0.2621  0.3722
 6576W        W23424  14.353   1.686   0.588 -0.0267  0.1779  0.3365
 6577W        W23425   3.241   8.711  15.040  0.2138  0.1351 -0.0222
 6578W        W23426   0.756  11.060  14.089 -0.0177 -0.3562  0.0413
 6579W        W23427  14.616   3.975  13.232 -0.1022 -0.1794 -0.3064
 6580W        W23428  12.359  15.411  15.496 -0.1956  0.3152  0.5113
 6581W        W23429   6.169   0.375  15.653 -0.2064 -0.2320  0.0420
 6582W        W23430  11.512   6.147   2.116  0.3407  0.1391  0.1113
 6583W        W23431   8.813   1.919   2.654  0.2107 -0.0805 -0.0281
 6584W        W23432  14.953   4.204   2.249  0.2012 -0.1662 -0.2039
 6585W        W23433   4.271   1.157  10.688 -0.3105  0.3558  0.1518
 6586W        W23434  11.386   0.943   2.593  0.3465 -0.3835 -0.0282
 6587W        W23435  14.968  15.499   4.040  0.0343  0.1698  0.2715
 6588W        W23436   7.056   6.377   3.650  0.0546  0.0491  0.0883
 6589W        W23437   1.837  16.658  15.915  0.2913  0.0162  0.0599
 6590W        W23438  10.942   4.770  14.181  0.1242 -0.3450  0.3389
 6591W        W23439  15.157  10.585  14.736 -0.1509  0.1060 -0.3774
 6592W        W23440  16.556   1.680   4.520  0.2319 -0.2065  0.2798
 6593W        W23441   0.076  17.779  15.554 -0.0719  0.0793 -0.0564
 6594W        W23442   2.000   5.522   3.780  0.3832 -0.4100 -0.0828
 6595W        W23443   9.083   3.259   0.180  0.1375 -0.4624  0.1209
 6596W        W23444   9.159   9.050  11.062  0.0217 -0.0100 -0.3167
 6597W        W23445  14.836   1.668  11.884 -0.0136  0.1591  0.0289
 6598W        W23446  12.735   0.589  14.021  0.0094 -0.0075  0.1276
 6599W        W23447   8.621   9.150   4.929  0.1619  0.1690 -0.0020
 6600W        W23448   0.449  10.799  13.808  0.1428  0.0038 -0.0369
 6601W        W23449   1.434   1.929   3.714  0.0083  0.0649 -0.1856
 6602W        W23450   9.252  10.550   1.614  0.1419  0.2368  0.0922
 6603W        W23451   0.554   4.955  15.431 -0.0697 -0.3612  0.0220
 6604W        W23452  12.697   7.087  11.860 -0.3418  0.2824  0.1884
 6605W        W23453   9.002  12.116  14.924  0.1076  0.0850  0.2267
 6606W        W23454   9.752   9.776   4.913 -0.2123  0.0413  0.2734
 6607W        W23455  12.451  13.539   2.942 -0.1931  0.0829 -0.1312
 6608W        W23456   4.079  10.093   4.573 -0.2805 -0.1295 -0.0337
 6609W        W23457  16.476   0.381  13.267  0.0599  0.0532  0.0553
 6610W        W23458   0.865   8.324   3.119  0.1244 -0.3095 -0.1383
 6611W        W23459   9.399   3.618   2.689 -0.1699  0.3743 -0.0822
 6612W        W23460   5.547   1.509   0.824 -0.2412  0.1812  0.2452
 6613W        W23461   4.039  11.831   2.179  0.1543  0.0843  0.0350
 6614W        W23462  11.462   0.632  13.449  0.3185  0.0373  0.1075
 6615W        W23463  10.113  11.460  14.325  0.1963 -0.1316 -0.3048
 6616W        W23464   1.188  14.336  12.348  0.2493  0.1695  0.1906
 6617W        W23465  15.810   0.285  11.520 -0.0909 -0.0400 -0.1778
 6618W        W23466  10.925   8.451   1.912 -0.3089 -0.1143  0.1970
 6619W        W23467   0.238   3.121   3.781 -0.3126  0.4039 -0.1425
 6620W        W23468  14.483  11.122  14.583 -0.0221 -0.3095 -0.0511
 6621W        W23469  15.964   4.866  11.428  0.4800  0.0890 -0.1067
 6622W        W23470   9.424   1.030  15.008  0.1585  0.1414  0.0236
 6623W        W23471   6.695   8.431   1.965  0.2327  0.0989 -0.0950
 6624W        W23472   3.739   4.322   4.247  0.2054 -0.0297  0.2014
 6625W        W23473   7.707  12.669   5.013  0.1139  0.4876 -0.2318
 6626W        W23474   1.463   3.583   4.804 -0.1268  0.3734 -0.1362
 6627W        W23475  12.838  17.188   2.725  0.1438  0.3275  0.2623
 6628W        W23476  17.412   9.278   1.661 -0.1188  0.3557  0.0884
 6629W        W23477  13.077   2.566  11.502 -0.0715 -0.1446  0.1833
 6630W        W23478   3.092   4.957  12.001  0.0953 -0.0968 -0.1005
 6631W        W23479  18.026  13.644   0.242 -0.1845 -0.4079 -0.5317
 6632W        W23480  16.236   5.459  12.326 -0.0576 -0.1422 -0.1255
 6633W        W23481   7.298   9.084  12.954 -0.0654  0.0113 -0.1178
 6634W        W23482  11.982   3.712   5.707 -0.0117  0.0901  0.1224
 6635W        W23483   8.401   3.301   3.930 -0.1953  0.0891 -0.0394
 6636W        W23484   6.266   9.694   3.151  0.1256  0.2792  0.1456
 6637W        W23485  14.304   0.105  16.099 -0.0424 -0.1794 -0.0676
 6638W        W23486   5.680  10.563  15.276 -0.0138  0.1045  0.3130
 6639W        W23487  16.993   4.822  15.920  0.1845  0.2630  0.1768
 6640W        W23488   3.101  13.369  12.020 -0.3184  0.0383  0.1613
 6641W        W23489   2.673   2.634   1.509  0.4487 -0.3070  0.0392
 6642W        W23490  15.676  12.849  14.547  0.0954  0.0270 -0.0417
 6643W        W23491   7.297  13.387  15.183  0.3182 -0.0733 -0.2424
 6644W        W23492   6.265   7.660  11.186  0.0693  0.2461  0.2450
 6645W        W23493   7.632  17.135   0.126 -0.0409  0.1801  0.0099
 6646W        W23494  17.504   5.277  11.004  0.0955 -0.0736 -0.1690
 6647W        W23495  14.726  11.772   2.785  0.2115  0.1188  0.0540
 6648W        W23496   7.192   8.711  12.596 -0.1389  0.0079 -0.0775
 6649W        W23497   5.567   6.206   1.084  0.0373  0.1145 -0.0532
 6650W        W23498   1.173   6.520  14.410 -0.0379 -0.2431 -0.1722
 6651W        W23499   0.342  11.782  14.348 -0.1030 -0.2664 -0.1486
 6652W        W23500  17.865  12.346   3.013 -0.2778  0.0707  0.1088
 6653W        W23501   2.366   2.067  13.400 -0.2924  0.0619  0.4270
 6654W        W23502  17.205   5.192   4.580  0.0183 -0.0256  0.4598
 6655W        W23503  17.804   6.711   2.305 -0.1845 -0.0075  0.1018
 6656W        W23504   0.963   9.898  14.106 -0.0610 -0.1726 -0.1876
 6657W        W23505   3.703   1.952   4.234  0.0504 -0.2752  0.0655
 6658W        W23506   7.055  16.241  14.878 -0.1854  0.0231  0.0413
 6659W        W23507   9.626   2.515  13.874  0.0182 -0.4030 -0.3010
 6660W        W23508   2.604  13.936  13.770  0.0099  0.0349  0.2201
 6661W        W23509   1.853   0.553   3.402 -0.0384  0.2009 -0.0499
 6662W        W23510  12.865  14.120   2.235  0.1426  0.0623  0.0497
 6663W        W23511  14.649   2.545  14.994  0.0087  0.0081 -0.1065
 6664W        W23512  16.980  14.273   4.641 -0.0355 -0.2831  0.1728
 6665W        W23513  16.388  12.810   1.176  0.0466  0.0469  0.2760
 6666W        W23514   9.309  12.584   3.957 -0.2713  0.1884  0.3171
 6667W        W23515   9.968  11.679  13.072 -0.1214  0.3469 -0.2162
 6668W        W23516  16.714   7.137   0.341 -0.1813  0.0979 -0.0772
 6669W        W23517  15.076   8.368   2.922 -0.2055 -0.2186  0.0080
 6670W        W23518   8.171  12.577   3.855 -0.0192 -0.1401  0.1725
 6671W        W23519   2.265  16.759  16.213 -0.1212 -0.4884  0.1492
 6672W        W23520   1.785  17.898  11.118 -0.2004  0.0523 -0.3526
 6673W        W23521   5.503  17.242   3.510  0.0561  0.0669 -0.0409
 6674W        W23522  12.802  14.365   2.929 -0.0558 -0.0426 -0.0804
 6675W        W23523  13.719   0.507   3.276  0.0072 -0.0353 -0.3523
 6676W        W23524  13.606   8.290   1.732 -0.0202  0.1632 -0.1202
 6677W        W23525  17.909   2.525  14.466  0.1377  0.2048  0.2580
 6678W        W23526   6.840   3.119   2.677  0.0418  0.1424  0.0247
 6679W        W23527   4.400   9.765   0.295  0.0409 -0.1472 -0.0347
 6680W        W23528   5.136   3.038  13.983 -0.3716  0.2159  0.3574
 6681W        W23529   1.405  12.597   4.781  0.0253  0.0742  0.4575
 6682W        W23530  10.545  14.346   1.258  0.0920 -0.1525  0.0396
 6683W        W23531  10.684   0.342  14.216 -0.0859 -0.1708  0.0252
 6684W        W23532   4.209   7.753  12.136 -0.2033 -0.1603  0.0932
 6685W        W23533   2.537   9.838  12.921 -0.0815 -0.1187 -0.0715
 6686W        W23534  11.090   1.452  11.950  0.0543 -0.0048 -0.0829
 6687W        W23535  16.684   8.395   3.499 -0.0758 -0.0232 -0.0666
 6688W        W23536   9.083  11.204   2.974  0.0618  0.2657 -0.0748
 6689W        W23537  15.916   8.171   3.150 -0.3317 -0.1001 -0.2419
 6690W        W23538   2.620   2.491   0.618  0.2804  0.0484 -0.0601
 6691W        W23539   2.396   3.517  15.302 -0.0259  0.1653 -0.6708
 6692W        W23540   8.603   7.798  11.767  0.0670  0.3330  0.0471
 6693W        W23541   4.801  15.859   2.611 -0.1757  0.1299 -0.0980
 6694W        W23542   3.507  12.111  11.963  0.0872  0.2910 -0.3671
 6695W        W23543  12.222  13.598   2.507 -0.1750 -0.1769 -0.3459
 6696W        W23544   0.383   9.254  11.731 -0.1314  0.0266 -0.0192
 6697W        W23545   9.370   5.470  11.871  0.0803  0.1918 -0.0103
 6698W        W23546   7.503  17.195   0.676  0.1463  0.0741 -0.1613
 6699W        W23547   9.669  13.130   2.023  0.0787 -0.0117 -0.1825
 6700W        W23548  13.374  16.056   1.023 -0.1573 -0.1253  0.0560
 6701W        W23549   3.668   0.299   2.352  0.1798 -0.0143 -0.0789
 6702W        W23550  12.683   8.806   4.812 -0.2110  0.1601  0.1076
 6703W        W23551  12.854  12.983  14.429  0.2568 -0.1292 -0.1183
 6704W        W23552   1.625  17.652  13.858  0.1889 -0.0681 -0.0912
 6705W        W23553  16.972   1.193  16.022  0.0782  0.0198  0.2066
 6706W        W23554   2.645  14.833  11.257  0.0098 -0.1339  0.2462
 6707W        W23555  13.902  10.288   4.257  0.3227 -0.0007  0.1733
 6708W        W23556  16.287   8.413   0.317 -0.1296 -0.0810 -0.0954
 6709W        W23557   1.436   0.889  15.223  0.0026 -0.2057 -0.2236
 6710W        W23558   4.133   7.253  12.016  0.1209 -0.0581 -0.0996
 6711W        W23559  13.261   4.144   3.794 -0.0448 -0.2037 -0.1629
 6712W        W23560  12.585   3.035  16.105  0.1627 -0.1021  0.1395
 6713W        W23561   5.672   8.213   2.712 -0.0084 -0.0348  0.4208
 6714W        W23562   6.448   7.028   2.103  0.3425 -0.1013  0.0435
 6715W        W23563   8.125  11.454  10.366 -0.0030  0.0555 -0.3026
 6716W        W23564  13.176  10.943  13.458  0.0236  0.1348  0.0881
 6717W        W23565   7.085   9.594   0.481 -0.4010  0.0719  0.2351
 6718W        W23566   4.928  16.995   2.983  0.3038 -0.2878  0.0042
 6719W        W23567   0.872   2.807   3.888  0.2574  0.1281  0.0065
 6720W        W23568   5.484   9.348   4.658 -0.4912 -0.1469 -0.0475
 6721W        W23569   2.149  11.709   4.945  0.1267  0.3302  0.2671
 6722W        W23570   4.789   5.693  13.714  0.1311 -0.0132 -0.0658
 6723W        W23571  12.585   6.271  11.662  0.0526  0.0141 -0.0281
 6724W        W23572   9.933   1.447   1.674 -0.1402  0.2433  0.2288
 6725W        W23573   7.109   3.814   5.741 -0.1851  0.0530  0.3259
 6726W        W23574  17.640  13.156   0.663  0.3917 -0.2404  0.3562
 6727W        W23575   7.235  10.552  16.254  0.0216 -0.2102 -0.2569
 6728W        W23576   8.943  16.575  15.199  0.4534  0.0769  0.1408
 6729W        W23577  10.230   3.115   3.776  0.0391 -0.1564 -0.1933
 6730W        W23578  11.644   6.211   3.203  0.0077 -0.3548  0.2145
 6731W        W23579  10.616  14.868  11.883  0.1759  0.0550  0.0643
 6732W        W23580   1.210   7.691  10.211 -0.2066  0.0313  0.3776
 6733W        W23581   4.758  12.358  14.641  0.3224  0.1118 -0.2011
 6734W        W23582  14.815   2.596   0.112 -0.6638 -0.0969 -0.1449
 6735W        W23583   6.945  14.152  14.133 -0.0382  0.0388  0.0345
 6736W        W23584  10.212   8.121  15.206 -0.1731  0.1546 -0.0232
 6737W        W23585  13.604   2.405  13.470  0.0326 -0.0565 -0.1877
 6738W        W23586  15.701   7.922   3.535 -0.0411 -0.0241  0.0289
 6739W        W23587   9.184   4.700  12.536 -0.4201 -0.2870 -0.1125
 6740W        W23588   5.729   9.098  14.902  0.2580 -0.0064  0.0918
 6741W        W23589   5.145   5.091  14.304 -0.0078 -0.1686 -0.1981
 6742W        W23590   5.131  12.849   2.642 -0.0521 -0.1042  0.1179
 6743W        W23591   7.339  17.872  13.562 -0.0250  0.3405 -0.1293
 6744W        W23592   8.181   6.294   1.404 -0.0333  0.1432  0.3584
 6745W        W23593   6.650  12.526   3.524  0.0715 -0.1203 -0.0352
 6746W        W23594   1.914   6.525   4.840  0.0014  0.0893 -0.2650
 6747W        W23595   8.761  10.392   2.344  0.0625  0.1895 -0.3729
 6748W        W23596   3.505   5.215  14.048  0.0785 -0.1434  0.3113
 6749W        W23597  16.137  10.788  12.929  0.0943 -0.0666 -0.2342
 6750W        W23598   0.798  10.883   2.013 -0.0224 -0.1565 -0.1794
 6751W        W23599   3.616  14.567  11.874  0.1083  0.2488  0.1610
 6752W        W23600  12.784   5.677  12.881  0.1646  0.0366  0.0100
 6753W        W23601  17.940  11.930  11.517 -0.1779 -0.0558  0.1290
 6754W        W23602   1.063  17.302  15.940  0.1620  0.0826  0.0225
 6755W        W23603   3.893   3.829   1.675 -0.2552 -0.0869 -0.3026
 6756W        W23604   5.507  17.358  12.816  0.2157  0.4053 -0.2025
 6757W        W23605   9.248  14.141   4.425 -0.0798 -0.0349  0.0132
 6758W        W23606   4.384   3.425   3.642 -0.0667 -0.1478 -0.0850
 6759W        W23607  10.029   7.583  15.690  0.1001  0.2483  0.1554
 6760W        W23608   9.834   7.918   4.099 -0.0651 -0.1466 -0.0842
 6761W        W23609   2.211  12.993   2.183 -0.1501  0.1071 -0.1062
 6762W        W23610   2.080   1.383  13.906 -0.1288  0.0590 -0.2468
 6763W        W23611   3.498   1.888  12.610  0.2397 -0.0679 -0.1215
 6764W        W23612   9.104  16.091   1.565  0.0882 -0.2376  0.2012
 6765W        W23613  13.735   0.685  10.111  0.0971  0.4356 -0.1437
 6766W        W23614  14.746   6.306  13.598  0.0434 -0.0379  0.2594
 6767W        W23615  15.795   1.188   2.176 -0.3206 -0.1671  0.1076
 6768W        W23616   5.572   5.267   4.134 -0.0802 -0.1285 -0.5377
 6769W        W23617   0.995   7.195   2.190 -0.0210 -0.3271 -0.2275
 6770W        W23618   1.856  11.785  11.180  0.1175 -0.3212 -0.1558
 6771W        W23619  11.104  15.090  12.271 -0.0378 -0.0348 -0.2520
 6772W        W23620   4.696   9.959   5.443 -0.1885 -0.1867 -0.0802
 6773W        W23621   4.811   9.179  11.887  0.1213  0.2780 -0.2206
 6774W        W23622   5.804   8.019  16.038 -0.2117  0.0027  0.0886
 6775W        W23623  17.578   4.010   3.308  0.0520  0.0099 -0.0079
 6776W        W23624   6.737   9.822  12.711  0.3059 -0.1179  0.1641
 6777W        W23625  14.679   3.672   0.971  0.0558 -0.0911 -0.1058
 6778W        W23626   8.776   3.647  14.703  0.1883 -0.0902 -0.1355
 6779W        W23627  12.826   1.713  12.963 -0.1072  0.2191 -0.1825
 6780W        W23628   3.732   0.866   1.405  0.0655 -0.3031 -0.0380
 6781W        W23629  10.062  17.827  12.249  0.1568  0.0999 -0.3135
 6782W        W23630  10.115   4.976   2.698  0.1863 -0.0355  0.0457
 6783W        W23631  15.805  12.284   1.887 -0.0480 -0.0521 -0.0488
 6784W        W23632  11.167   7.420   5.524 -0.1065 -0.3858  0.1110
 6785W        W23633   6.006   2.464  11.738 -0.0597 -0.2650 -0.2494
 6786W        W23634   1.548   7.239   2.875 -0.0371  0.1842  0.1049
 6787W        W23635   3.079  12.213   2.817  0.1933 -0.2078  0.0294
 6788W        W23636   4.432   5.318  11.916 -0.1607  0.0042 -0.0606
 6789W        W23637  10.633   2.443  11.606 -0.0846 -0.1470 -0.0514
 6790W        W23638   1.241   3.638   3.900 -0.1413 -0.0836 -0.0510
 6791W        W23639   3.462   0.864  13.336  0.1349  0.0519  0.0867
 6792W        W23640  15.639  17.857  15.820 -0.0699  0.0617 -0.0635
 6793W        W23641  11.111   7.836   0.044  0.2474 -0.0277  0.3167
 6794W        W23642   9.957   6.328  14.436 -0.1553  0.2409 -0.1751
 6795W        W23643  17.023   7.129   1.070  0.1499  0.2291 -0.0045
 6796W        W23644  12.884  12.763   3.749 -0.0106  0.0420 -0.1805
 6797W        W23645   5.520   4.501   2.114  0.2388 -0.1675 -0.3354
 6798W        W23646   0.052  14.891   4.012  0.0733 -0.0011 -0.2130
 6799W        W23647  16.403   1.118   4.075  0.0973 -0.0779 -0.0888
 6800W        W23648   8.317   9.020   0.454  0.2231 -0.1848 -0.0207
 6801W        W23649   6.719  17.712  14.249  0.2446  0.0989 -0.0913
 6802W        W23650   4.182  12.724   0.802 -0.1162 -0.1319  0.1532
 6803W        W23651  12.012  16.338   4.291 -0.1601  0.1015  0.0841
 6804W        W23652   3.327  12.248   0.292 -0.1793  0.1559  0.0549
 6805W        W23653  18.047   1.037  12.820 -0.1466  0.2849  0.4892
 6806W        W23654   4.134  16.398  15.002  0.1037  0.0416  0.1010
 6807W        W23655   3.967  12.243   1.727  0.1306  0.1051  0.0868
 6808W        W23656  14.771   0.130  14.622 -0.0372  0.0205 -0.0778
 6809W        W23657  10.332   3.363   5.035  0.2632 -0.2609 -0.0803
 6810W        W23658  12.385   6.002  11.089 -0.1328  0.2020  0.2982
 6811W        W23659  10.734  15.664  12.362  0.2274 -0.0505  0.1208
 6812W        W23660  15.816  13.800  10.664 -0.1745 -0.1099  0.0490
 6813W        W23661  16.856   7.452   3.167 -0.0489 -0.0019 -0.0629
 6814W        W23662   8.117   6.929  14.144 -0.4803 -0.0308  0.2826
 6815W        W23663  11.895   6.449   4.673  0.1499  0.2029  0.1837
 6816W        W23664   2.970   5.573   3.908  0.0028  0.4406  0.0302
 6817W        W23665  13.886   6.012  11.269 -0.2657  0.0283  0.1972
 6818W        W23666   1.698  13.054  13.751  0.1216 -0.0706 -0.1582
 6819W        W23667   7.704  15.855   1.580 -0.1800 -0.2020  0.1893
 6820W        W23668  16.478   9.811   4.768 -0.1583 -0.0953 -0.2803
 6821W        W23669   1.744  11.405   2.279  0.1455 -0.0425 -0.0896
 6822W        W23670   0.598  17.789  14.864  0.1476  0.3903  0.1042
 6823W        W23671   2.158   5.973   3.972  0.2852  0.0212  0.2258
 6824W        W23672   1.713   3.959  12.443  0.0107  0.1087 -0.1893
 6825W        W23673  10.708  11.391   2.285 -0.0463 -0.0028 -0.0060
 6826W        W23674  13.439  11.638  14.024 -0.1492  0.0409  0.0324
 6827W        W23675   8.541   1.737  12.305  0.2241  0.1877  0.0177
 6828W        W23676  14.815  13.925  15.418  0.1729 -0.0159  0.3376
 6829W        W23677   4.810  16.040  11.994  0.1923 -0.0464 -0.0581
 6830W        W23678  15.240  16.516  15.795  0.1566 -0.0937  0.1051
 6831W        W23679   7.766  17.764   2.955  0.1375  0.1769 -0.4295
 6832W        W23680   6.246   8.142   3.868  0.0160 -0.1986  0.1680
 6833W        W23681  13.570  14.465  14.455  0.0024 -0.2583 -0.2339
 6834W        W23682  17.696   4.630  14.083  0.0288  0.1713  0.2486
 6835W        W23683  13.819   8.924   2.884  0.1195  0.3678 -0.1722
 6836W        W23684   2.803  17.991   0.281 -0.0488  0.2187 -0.5309
 6837W        W23685   8.790  12.224  14.495  0.3113 -0.0560  0.1792
 6838W        W23686   2.364   4.861   0.543 -0.3764 -0.0435  0.1235
 6839W        W23687  16.663  15.920  11.868 -0.1957  0.0920  0.1154
 6840W        W23688  14.259   9.568  15.560  0.2320  0.1547 -0.0594
 6841W        W23689  16.596   4.156   0.319  0.1332 -0.2885  0.0170
 6842W        W23690   6.620  10.105  15.793  0.1209  0.0163 -0.2247
 6843W        W23691  17.625   8.775   3.509  0.0963  0.2602 -0.3468
 6844W        W23692   8.634   6.660   1.939 -0.0010  0.3554 -0.3617
 6845W        W23693  14.907  11.946  16.077  0.3398 -0.0435  0.0517
 6846W        W23694   5.000  10.760  15.905 -0.0853  0.1972  0.6147
 6847W        W23695  17.707  17.548  13.728 -0.1194  0.0005  0.1650
 6848W        W23696   3.792   1.671   4.921  0.0928  0.2404 -0.0822
 6849W        W23697   0.707  17.288   2.069  0.5119 -0.1209 -0.0005
 6850W        W23698   9.380   3.329   5.038 -0.1407 -0.0463 -0.0785
 6851W        W23699   0.627   7.268   0.668 -0.2751 -0.1293 -0.0798
 6852W        W23700   7.378  15.674  11.071  0.1537 -0.0687  0.0507
 6853W        W23701  13.002   4.525  14.289  0.2828  0.2708  0.1504
 6854W        W23702   2.616   3.669  13.635  0.0375 -0.0263 -0.2850
 6855W        W23703  16.799   9.201  12.726 -0.2084  0.1789 -0.0578
 6856W        W23704  11.756  11.051  15.712  0.3421  0.1326  0.1418
 6857W        W23705   8.483  10.752   1.685 -0.1637  0.1563  0.0906
 6858W        W23706   7.735   6.682   3.091 -0.1714 -0.0615 -0.0192
 6859W        W23707  12.563  10.487   1.050  0.1292  0.0233  0.2010
 6860W        W23708  17.540  11.155  12.215 -0.1500 -0.0420  0.0239
 6861W        W23709   5.858  15.631  11.240 -0.1318  0.1170  0.2101
 6862W        W23710   4.301   9.016   3.691  0.1979 -0.0078 -0.2284
 6863W        W23711   8.454  10.297   0.126  0.0623  0.0226 -0.1810
 6864W        W23712  16.264  15.608   4.075 -0.0307  0.5041  0.0851
 6865W        W23713   0.876  17.785   2.098 -0.1676 -0.0661 -0.3383
 6866W        W23714   8.545   8.136   4.796  0.0370  0.0599  0.0628
 6867W        W23715  13.836  16.122   4.601  0.0763  0.2630 -0.1826
 6868W        W23716   9.916  11.822  12.520  0.2247 -0.1234 -0.1311
 6869W        W23717   6.747  11.901  13.460  0.1403  0.0869 -0.1670
 6870W        W23718   4.160   3.734  16.277  0.1433 -0.0199 -0.1360
 6871W        W23719  13.951   9.376   0.762 -0.0310  0.1029 -0.0845
 6872W        W23720   4.755   2.370   0.544  0.1027  0.2069 -0.1681
 6873W        W23721  17.052  17.271   0.791  0.0089 -0.0749 -0.0685
 6874W        W23722  15.628   9.089   0.865  0.3712  0.1147  0.0412
 6875W        W23723  10.312   9.394   5.254  0.1765 -0.2877 -0.2447
 6876W        W23724  10.841   0.013  15.031  0.0752  0.3018 -0.1946
 6877W        W23725  14.619   2.056  10.811  0.0672 -0.5115 -0.2109
 6878W        W23726  16.937   1.830   1.210  0.2384 -0.0366 -0.3327
 6879W        W23727   3.513   1.004   3.849  0.4043 -0.0702  0.3286
 6880W        W23728  15.538   4.554   3.998  0.0820 -0.0600 -0.0919
 6881W        W23729   9.326   8.493  11.402  0.2325 -0.2827  0.3200
 6882W        W23730   9.259   3.060   2.992  0.0434 -0.3345  0.1519
 6883W        W23731  10.148   3.579  15.808 -0.1032  0.1249  0.0367
 6884W        W23732  16.309   8.928   4.650  0.0447  0.2055 -0.0650
 6885W        W23733   4.502  10.088  12.277  0.0852  0.2348  0.4541
 6886W        W23734  10.564  16.751   4.025 -0.1610  0.2701  0.0512
 6887W        W23735   6.118  15.335  12.162 -0.0774 -0.1689  0.3509
 6888W        W23736   8.037   0.243   1.083 -0.0433  0.2984 -0.2401
 6889W        W23737   9.684  12.808   1.264  0.3980  0.3010 -0.4316
 6890W        W23738   3.117   6.177  15.227 -0.1189 -0.1661 -0.1822
 6891W        W23739  11.915  16.130  12.285 -0.1116 -0.1894 -0.1455
 6892W        W23740   5.522  14.534   5.757  0.2168  0.0218 -0.4094
 6893W        W23741  12.001  12.370   0.246 -0.1949 -0.0802  0.3118
 6894W        W23742   3.718   4.919   0.841  0.0016  0.0231  0.2363
 6895W        W23743  17.694   3.557  14.132 -0.1453  0.3994 -0.0581
 6896W        W23744   4.228   6.710  16.161 -0.3078 -0.3640  0.2914
 6897W        W23745   2.390   6.992  11.880  0.0126 -0.1890  0.1007
 6898W        W23746  16.784  14.187   4.211 -0.2169 -0.0065 -0.0302
 6899W        W23747   9.174  16.979  15.348 -0.0057  0.0007  0.0982
 6900W        W23748   0.458   5.400  11.595 -0.1677 -0.2131  0.0331
 6901W        W23749   9.907   2.879  13.611  0.0217  0.0163  0.0433
 6902W        W23750  11.623  11.675   1.430  0.0808  0.0086  0.1258
 6903W        W23751   8.690   2.542  11.716 -0.1147 -0.0226 -0.3854
 6904W        W23752   3.091   5.440  15.362 -0.0579 -0.3085 -0.1347
 6905W        W23753   0.820  11.905   2.212 -0.0158  0.0186  0.1719
 6906W        W23754   9.343   7.262  11.197 -0.0920  0.0244  0.0718
 6907W        W23755  12.467   7.209  16.197  0.1769  0.0200 -0.1318
 6908W        W23756   0.473  14.909   1.046 -0.0829  0.2066  0.0225
 6909W        W23757   1.370  11.329  15.044 -0.0212 -0.0442  0.1242
 6910W        W23758  13.002   0.962   3.092 -0.0576  0.1577 -0.0560
 6911W        W23759   3.662   6.139  12.850 -0.2195  0.0761 -0.0739
 6912W        W23760  12.801  15.051  14.167  0.0358  0.2655  0.3825
 6913W        W23761   8.906   0.321   0.755  0.0146  0.0924  0.1950
 6914W        W23762   3.195   6.287   4.087 -0.3557  0.2053 -0.1875
 6915W        W23763  16.962  17.013  14.242 -0.0777 -0.0638 -0.0297
 6916W        W23764   2.497   8.252  15.241 -0.1724 -0.0757 -0.1318
 6917W        W23765   2.818  16.468  12.926 -0.0363  0.0160 -0.1895
 6918W        W23766   7.378   2.120  16.273 -0.0940 -0.0996 -0.1681
 6919W        W23767   7.195  10.980   0.645  0.3580  0.0762 -0.1190
 6920W        W23768   4.905   3.068  12.906 -0.0338 -0.4131  0.0567
 6921W        W23769   8.381   4.600   1.597  0.1054  0.1213 -0.0947
 6922W        W23770   7.020  11.027   1.663  0.1197 -0.1508 -0.0896
 6923W        W23771  15.511   6.196  14.872 -0.1525 -0.0533  0.0139
 6924W        W23772   8.668   2.424  16.243 -0.0777 -0.2259  0.4243
 6925W        W23773   8.919  12.405   1.013 -0.1785 -0.0956  0.0111
 6926W        W23774   9.762  15.521  11.931 -0.1778 -0.1970  0.2334
 6927W        W23775  15.073   6.233   5.820 -0.0237  0.1505 -0.2379
 6928W        W23776  17.679   6.529   4.539 -0.1183 -0.2719 -0.3551
 6929W        W23777   3.775   7.180   1.248 -0.1829  0.0863  0.0245
 6930W        W23778   3.061  13.662  15.591  0.2415 -0.0977 -0.2760
 6931W        W23779  12.715  12.253  14.149 -0.1407 -0.0910  0.0941
 6932W        W23780   9.800  10.288   4.835 -0.0291 -0.2343 -0.0384
 6933W        W23781  16.070   3.214   0.257  0.0211  0.1671  0.1517
 6934W        W23782   2.840  10.532   1.887  0.1221  0.1869  0.2267
 6935W        W23783  17.945   7.250  12.726 -0.2661 -0.0034  0.0169
 6936W        W23784   2.388   8.535   3.693 -0.1576  0.0130 -0.2442
 6937W        W23785   9.042   9.982   2.910  0.2325 -0.1454  0.1548
 6938W        W23786   7.327  12.231  14.360  0.0089 -0.2154  0.0802
 6939W        W23787   6.752  13.751   1.145  0.0677  0.0327  0.1957
 6940W        W23788   2.909   2.538  11.663  0.0132  0.0126  0.0131
 6941W        W23789  17.594   0.481  12.323  0.0853 -0.1992 -0.3949
 6942W        W23790  11.351   4.192  14.727 -0.1106  0.0451  0.1544
 6943W        W23791  12.445  16.644  14.906 -0.1633 -0.0102  0.0433
 6944W        W23792   6.540  13.862  13.337 -0.1909 -0.1291 -0.2864
 6945W        W23793  14.419  10.630   2.469  0.3088 -0.2648  0.0417
 6946W        W23794   3.111  17.222  11.777  0.0448  0.3386  0.1829
 6947W        W23795   3.137   8.112   2.491 -0.2874  0.0592 -0.1520
 6948W        W23796  17.861  17.846   0.871 -0.1481 -0.0552  0.0745
 6949W        W23797   5.313   0.877  12.180 -0.2311  0.0588  0.2551
 6950W        W23798  15.311   1.786   1.322 -0.0138  0.0662  0.1176
 6951W        W23799  17.969   6.409   1.867 -0.0582 -0.0417  0.2626
 6952W        W23800   1.795  13.567   0.595 -0.0687 -0.0420 -0.1058
 6953W        W23801  14.772   4.114  11.850 -0.1824 -0.1221  0.0417
 6954W        W23802  10.105   6.541   9.728  0.3551 -0.0512 -0.0577
 6955W        W23803  15.742   4.952   4.953 -0.3947 -0.3336  0.0782
 6956W        W23804  10.286   9.480   2.244 -0.2936 -0.0034 -0.0707
 6957W        W23805   9.122  13.925  10.924  0.0690  0.2238  0.0501
 6958W        W23806  13.060   2.308  13.481  0.0086 -0.0985 -0.2407
 6959W        W23807   7.950  10.920  12.904  0.1776 -0.0835 -0.1807
 6960W        W23808  14.148   3.411   4.317 -0.0077 -0.2557  0.0485
 6961W        W23809   2.654  12.857   4.550 -0.1045 -0.2108 -0.3198
 6962W        W23810   7.099  13.906   2.975  0.0661  0.0256  0.2217
 6963W        W23811   2.973   3.763   3.264  0.0913  0.1361 -0.1481
 6964W        W23812  14.357   8.402   3.750  0.0795 -0.0980  0.1093
 6965W        W23813   7.599   1.379   2.834 -0.1828  0.0329 -0.0151
 6966W        W23814   3.499  10.344   0.827  0.1762  0.1865  0.2799
 6967W        W23815   8.658   1.922  12.799  0.1332 -0.0871 -0.0966
 6968W        W23816  10.839   7.690   2.635 -0.0207  0.0892  0.0931
 6969W        W23817  16.420   9.930   1.884  0.1051  0.2087  0.0229
 6970W        W23818   1.872  14.385  16.068  0.1015  0.0657  0.1429
 6971W        W23819   7.581  10.119   4.396  0.0305  0.2662  0.1167
 6972W        W23820  10.561  13.220   4.631  0.0859  0.1720 -0.2076
 6973W        W23821   3.280  13.566   0.369 -0.0550  0.1910  0.1972
 6974W        W23822  11.166   7.460   1.733 -0.0130 -0.0525 -0.1471
 6975W        W23823   0.465   6.268  12.344 -0.0548  0.1004  0.1043
 6976W        W23824   7.324   8.069  14.193 -0.2304 -0.2455 -0.1336
 6977W        W23825   6.247   5.946   3.859  0.3408  0.2497 -0.1281
 6978W        W23826  12.581  13.203   0.474  0.0921  0.0035 -0.1073
 6979W        W23827   9.274  13.869  13.508  0.0684  0.1428  0.0363
 6980W        W23828  11.485  16.255  13.342 -0.2875  0.2356 -0.0813
 6981W        W23829   1.886   5.407  12.667 -0.0741 -0.0530 -0.1105
 6982W        W23830   3.244  12.006  13.999  0.0599 -0.1941 -0.0680
 6983W        W23831  14.973   7.167   1.559 -0.1733 -0.0474  0.0537
 6984W        W23832   1.494   5.503   3.723 -0.0118  0.1364  0.2902
 6985W        W23833   4.316   8.114  14.825  0.3361 -0.2231 -0.1390
 6986W        W23834  14.867  15.485  13.992  0.0355  0.0710  0.1128
 6987W        W23835   2.329   6.282   3.545 -0.0153  0.1847 -0.2445
 6988W        W23836  13.135  16.057  11.805 -0.2246  0.3200 -0.1256
 6989W        W23837  17.966   0.978  10.530  0.1258  0.0378  0.3261
 6990W        W23838   9.782   3.090   2.900 -0.0435 -0.1429  0.0441
 6991W        W23839   8.288   2.390  13.900 -0.1985  0.0916  0.3823
 6992W        W23840  10.433  16.670  12.345  0.1417  0.2663  0.2117
 6993W        W23841   3.435   7.334  13.677  0.0417  0.2718  0.0202
 6994W        W23842   9.218   9.010   3.157 -0.1743 -0.1184  0.3244
 6995W        W23843  14.992  16.049   0.150  0.1970 -0.0247  0.0073
 6996W        W23844  12.432   1.249  16.109 -0.2836 -0.1155 -0.2136
 6997W        W23845  11.910   9.776  13.724 -0.1215 -0.2430 -0.1392
 6998W        W23846   9.819  17.383   0.821  0.0911  0.2384 -0.2759
 6999W        W23847   0.506   9.735   1.245 -0.4430 -0.0637  0.1018
 7000W        W23848  13.276   5.720   1.221  0.2153  0.1433 -0.2185
 7001W        W23849   5.895   8.039  11.947  0.1589 -0.2646  0.0770
 7002W        W23850   8.010  10.929   4.130  0.1504  0.1422  0.0250
 7003W        W23851  15.368  10.632   1.422 -0.1227 -0.0809  0.0856
 7004W        W23852  15.168   9.503   1.961  0.1886  0.1274 -0.1742
 7005W        W23853   0.026   4.821  13.778  0.1668 -0.1630  0.0689
 7006W        W23854   5.175  13.026  12.612 -0.0210  0.0125  0.0772
 7007W        W23855  17.325  12.720  16.240  0.0164 -0.1508  0.1266
 7008W        W23856   0.839  11.979  13.441  0.2247  0.1850 -0.3903
 7009W        W23857   2.635  12.095  10.811  0.0548 -0.2597 -0.1323
 7010W        W23858   0.545   2.479   3.306 -0.0957 -0.2407 -0.0287
 7011W        W23859   9.321   2.120   2.868  0.1086 -0.0791 -0.0209
 7012W        W23860   1.162   4.195   4.050 -0.2704 -0.1033 -0.0138
 7013W        W23861  12.624  11.005  13.707 -0.1106  0.0566 -0.0404
 7014W        W23862  15.793   9.499   3.886  0.0408 -0.0860  0.0048
 7015W        W23863  12.741   7.532   3.140  0.0352  0.1527 -0.2536
 7016W        W23864   9.417   1.190  13.041  0.1991 -0.0486 -0.1092
 7017W        W23865   4.814   3.629  14.204 -0.0302  0.2356 -0.0915
 7018W        W23866   8.197   0.312  12.730  0.0554 -0.0560  0.0970
 7019W        W23867   5.397  11.121  12.896 -0.2735  0.1747 -0.2212
 7020W        W23868   1.407  13.402  12.073 -0.1809 -0.1267 -0.3040
 7021W        W23869   0.344  16.789   4.823  0.0949 -0.3312  0.2583
 7022W        W23870   5.352   3.350   2.444  0.0833  0.0526 -0.0810
 7023W        W23871   2.345   7.746  15.286  0.3162  0.2355 -0.0535
 7024W        W23872   8.581  13.328   1.375  0.0998 -0.0460  0.2393
 7025W        W23873  13.530   4.624  12.793 -0.0448 -0.0737  0.0121
 7026W        W23874   0.683   4.736  13.309 -0.1645  0.2736 -0.0799
 7027W        W23875  13.844  14.301   1.882  0.0432  0.0996  0.4051
 7028W        W23876  10.626  10.560  13.615 -0.1812  0.2941 -0.0136
 7029W        W23877   3.821   1.082   4.343  0.1086 -0.1114 -0.0178
 7030W        W23878   6.198   0.376  12.006  0.1068  0.0947 -0.0751
 7031W        W23879   8.010   6.100   4.154 -0.3371 -0.0179  0.2368
 7032W        W23880   0.511  14.602   2.297  0.1009  0.1957  0.0635
 7033W        W23881   8.036   4.680  14.520  0.1494 -0.1011 -0.1309
 7034W        W23882   9.040  12.202   3.963  0.0076  0.1484 -0.1454
 7035W        W23883   6.435  14.861   4.051 -0.0948 -0.2178  0.0365
 7036W        W23884  11.164  14.976   0.165 -0.1220  0.0487  0.0589
 7037W        W23885  13.612  15.700  15.352 -0.0561 -0.1422  0.1836
 7038W        W23886   0.908  16.824   2.008 -0.1306 -0.2160 -0.1779
 7039W        W23887   3.017   7.761  14.334 -0.0719 -0.2213  0.0568
 7040W        W23888  11.212   2.290   0.486 -0.0306  0.3476  0.0360
 7041W        W23889   3.084  16.055  15.343  0.1064  0.2123 -0.1165
 7042W        W23890   7.540   6.250  12.065 -0.1487 -0.2242 -0.5384
 7043W        W23891   1.601   6.910  14.637  0.0961  0.1097 -0.1213
 7044W        W23892   2.919   0.533  12.413  0.1600  0.4366  0.1059
 7045W        W23893   1.121  12.659   1.858 -0.2881 -0.1315  0.0561
 7046W        W23894   6.541   1.293   4.671  0.0585  0.2189 -0.1304
 7047W        W23895   9.592   2.844   3.316 -0.0384 -0.3298  0.2522
 7048W        W23896  14.717   1.152   1.794 -0.2995  0.1534  0.0937
 7049W        W23897   7.848  10.064   5.192  0.0528  0.0682  0.3202
 7050W        W23898   3.581  11.533   0.167 -0.0570  0.0878  0.1077
 7051W        W23899   8.293   4.320  13.766  0.0255 -0.2187 -0.4019
 7052W        W23900  17.986   1.250   1.080  0.2077 -0.0107 -0.0463
 7053W        W23901   4.837  16.629   4.328  0.2012  0.1010 -0.0620
 7054W        W23902   6.729  14.934  13.459 -0.0011  0.0171 -0.0211
 7055W        W23903   8.624   2.330   1.513 -0.1838  0.0002  0.2960
 7056W        W23904   8.402   7.227   2.456 -0.0238 -0.0068  0.3585
 7057W        W23905   6.998   4.688  16.038  0.0872 -0.2139  0.0634
 7058W        W23906  14.118  17.655  10.790 -0.2535 -0.4068 -0.0957
 7059W        W23907   7.422  11.141  13.431  0.0266 -0.0365  0.0111
 7060W        W23908  11.440   2.351   4.596  0.0304 -0.2716 -0.1207
 7061W        W23909   7.837   2.216  10.868 -0.1134 -0.1721  0.0123
 7062W        W23910  10.516   8.961  10.892  0.1980 -0.1972 -0.0644
 7063W        W23911   6.315   7.040  13.769  0.0800  0.1298  0.4052
 7064W        W23912   8.044   5.915  14.976  0.2347  0.0523  0.2371
 7065W        W23913   7.074   6.474  15.136 -0.1379 -0.0017  0.3260
 7066W        W23914  17.409   6.714   1.872 -0.6616 -0.2768  0.0896
 7067W        W23915   4.564   0.808  12.781  0.1703  0.0174  0.1319
 7068W        W23916  11.558  10.598   0.682  0.1049  0.1570  0.0045
 7069W        W23917   3.177   0.118   3.683  0.0073  0.3575 -0.1676
 7070W        W23918  15.197  17.030   1.010  0.2251  0.1818  0.0418
 7071W        W23919  16.698   9.521  15.835  0.3077 -0.1981  0.2889
 7072W        W23920  10.106   0.589  11.589 -0.2928  0.2377 -0.3468
 7073W        W23921   0.121  13.551   3.715  0.1472 -0.0888 -0.1146
 7074W        W23922   6.864   6.978  12.161  0.2222  0.0533 -0.4240
 7075W        W23923   1.897   4.276   1.701 -0.2714 -0.3550 -0.2116
 7076W        W23924   2.945   3.658   1.454  0.1902 -0.2358  0.3552
 7077W        W23925  10.408   5.699   2.477 -0.1336 -0.2677 -0.1344
 7078W        W23926  16.105   9.249  13.521  0.2535 -0.0176  0.1311
 7079W        W23927  15.700   9.284  13.859  0.3631 -0.1489 -0.1246
 7080W        W23928  11.337   3.405   5.001 -0.0357  0.0667  0.0632
 7081W        W23929   8.554   0.300   1.507 -0.0422  0.0063  0.2010
 7082W        W23930   5.837  13.565   2.953  0.2785 -0.1937 -0.0455
 7083W        W23931  13.074  11.643  15.665  0.0344 -0.1570 -0.0114
 7084W        W23932  12.638   1.764   2.684  0.1654  0.3205  0.0382
 7085W        W23933   2.476   9.250   6.311 -0.1976 -0.0024 -0.2032
 7086W        W23934  13.765  18.040  16.120  0.3612  0.1332 -0.1107
 7087W        W23935   0.968   0.250   2.095 -0.0696 -0.3250  0.1554
 7088W        W23936  11.751   7.717   4.353  0.1724 -0.0375  0.0228
 7089W        W23937   8.021  10.553   0.502 -0.0558 -0.0112 -0.1211
 7090W        W23938  17.189  14.912  12.604 -0.1279 -0.2736 -0.1164
 7091W        W23939   0.757   2.286   0.016 -0.0944  0.1182 -0.2561
 7092W        W23940  14.477  17.759  12.047 -0.0611 -0.0741 -0.4044
 7093W        W23941  12.131   3.954  14.019  0.1400  0.1958  0.2097
 7094W        W23942  16.904  12.344  16.144  0.0377 -0.0869  0.2124
 7095W        W23943  14.609   6.234   1.058  0.0065 -0.2806 -0.1485
 7096W        W23944  10.786  15.187   2.759 -0.4103 -0.1880  0.1899
 7097W        W23945  12.391   1.226   1.292 -0.0047  0.1395 -0.0316
 7098W        W23946  14.947   5.278   5.698 -0.0029  0.0011 -0.4419
 7099W        W23947   3.892   9.525  14.036  0.0862  0.2821 -0.0614
 7100W        W23948   6.291  16.096  13.576  0.1035 -0.1020 -0.1221
 7101W        W23949  13.998   1.468  11.299 -0.1289 -0.0092  0.0151
 7102W        W23950  16.504   2.509  12.395  0.2657 -0.1423 -0.1436
 7103W        W23951   9.736   3.792  12.798  0.3198  0.2611 -0.0995
 7104W        W23952  15.349  11.961   0.614  0.0993  0.0217 -0.0863
 7105W        W23953   9.254  16.065  12.177 -0.0762  0.0054  0.0449
 7106W        W23954   7.674   9.737  15.550  0.0449 -0.0474 -0.3166
 7107W        W23955   4.105   3.245   0.776  0.0749  0.0472  0.2169
 7108W        W23956  17.453  14.425   0.186 -0.0821  0.2402  0.4703
 7109W        W23957   2.073  12.302   2.759  0.1484 -0.1866  0.0720
 7110W        W23958  14.239   0.861  13.262 -0.3426  0.0138 -0.2178
 7111W        W23959  16.792  17.477   2.219  0.1494  0.0295 -0.1188
 7112W        W23960   4.176  14.446  14.275 -0.2161  0.0498 -0.1134
 7113W        W23961  12.101  11.474  15.896  0.1683  0.1011  0.0781
 7114W        W23962   5.060   4.746   0.366  0.0096  0.1115  0.3109
 7115W        W23963   3.943  17.201  11.882 -0.1208  0.1661  0.1346
 7116W        W23964  15.966   1.261  15.898  0.1690 -0.1068  0.2193
 7117W        W23965  11.605  15.749  14.272 -0.0287 -0.1550 -0.0582
 7118W        W23966   1.100   7.855   5.203 -0.0388  0.2295 -0.0054
 7119W        W23967   3.958   7.818   0.564 -0.1155 -0.1282  0.2515
 7120W        W23968  16.468   5.206  13.929  0.2131 -0.3517  0.1966
 7121W        W23969   8.036   8.040   0.867 -0.2060 -0.1993  0.0851
 7122W        W23970   9.577  10.850  12.692  0.0505  0.3547 -0.3495
 7123W        W23971   6.423  13.101  11.242  0.0500  0.0296 -0.0645
 7124W        W23972   8.186  17.194  15.664  0.3575 -0.3303 -0.3467
 7125W        W23973   2.741   6.030  14.877  0.0554  0.0185  0.0693
 7126W        W23974   1.212  14.767  15.418 -0.1218  0.1407 -0.0677
 7127W        W23975  14.708   9.767  10.287 -0.0077 -0.1188  0.1722
 7128W        W23976  15.934   7.526   1.288 -0.0653  0.0839 -0.0026
 7129W        W23977   0.632   9.573   2.823 -0.1633  0.2184  0.2517
 7130W        W23978  11.689  11.975   4.134  0.1860 -0.1665 -0.2669
 7131W        W23979   6.146  11.883   3.241 -0.0645  0.0731  0.5771
 7132W        W23980   6.632  15.213   0.189 -0.0056 -0.0249 -0.3232
 7133W        W23981   0.572   6.175   4.806 -0.1536 -0.0718  0.0655
 7134W        W23982   7.397   6.943  14.907  0.2363  0.3485 -0.1619
 7135W        W23983   7.479   2.495  12.880  0.3452 -0.2264 -0.1089
 7136W        W23984  10.241  13.882  14.786 -0.0255  0.4310 -0.0926
 7137W        W23985   8.964  15.786  13.463 -0.1409 -0.0748 -0.2225
 7138W        W23986   3.187   7.276   2.341 -0.0929  0.0514  0.0145
 7139W        W23987   6.397   2.048   3.771 -0.1572  0.1813  0.1077
 7140W        W23988   3.831  15.782   4.746  0.2079  0.2627 -0.2206
 7141W        W23989  14.742  14.214  11.712 -0.0095  0.0051  0.0037
 7142W        W23990  12.054   6.388  14.713 -0.0732  0.1484  0.0015
 7143W        W23991  15.754   5.624  12.421 -0.0846 -0.0438  0.0289
 7144W        W23992  10.821  15.157  15.477  0.0482  0.2208 -0.1153
 7145W        W23993   4.074  15.824   1.241  0.4285 -0.3508 -0.0193
 7146W        W23994  17.942   3.322  13.566 -0.2196  0.1664  0.1745
 7147W        W23995   9.483   4.224  15.924 -0.1181 -0.2783 -0.3867
 7148W        W23996  12.562   8.090   2.041  0.2839 -0.2379  0.1612
 7149W        W23997   3.430  16.688   0.717 -0.1175 -0.2411  0.5524
 7150W        W23998   0.158   7.203  11.600 -0.2104 -0.3323 -0.2620
 7151W        W23999   5.776   4.250  11.884 -0.1851  0.0466 -0.1066
 7152W        W24000  15.749  11.685  15.867  0.3680 -0.0654  0.1328
 7153W        W24001   1.772  11.863  14.986 -0.1078 -0.2165  0.2413
 7154W        W24002  13.386   3.251  14.050  0.1963 -0.0838 -0.3185
 7155W        W24003   8.967  14.033  14.689  0.0010 -0.1383 -0.0499
 7156W        W24004  12.708   5.511   4.644 -0.2716  0.1089 -0.0965
 7157W        W24005   4.504  12.306  15.188 -0.0395 -0.1436 -0.0157
 7158W        W24006   8.868  14.847   2.546  0.2016 -0.1146  0.1652
 7159W        W24007   6.657   5.758  14.415 -0.0065 -0.1217 -0.0996
 7160W        W24008  17.273   7.797   1.839  0.4418  0.0806 -0.0077
 7161W        W24009  16.154  12.132   4.686 -0.0067  0.0340  0.0727
 7162W        W24010  12.203  10.305   1.306 -0.2983  0.0175  0.1420
 7163W        W24011  15.373  18.032   4.409 -0.2274  0.2684  0.3286
 7164W        W24012   5.393  11.900  13.764  0.0618 -0.0135  0.2448
 7165W        W24013  10.772  10.698  14.158  0.0857 -0.2525 -0.0381
 7166W        W24014  15.072   6.469   1.308  0.2037 -0.0876  0.0481
 7167W        W24015   2.184  17.892   1.395 -0.1076 -0.1561 -0.2869
 7168W        W24016   1.376   1.858   3.229  0.2729  0.0089 -0.0460
 7169W        W24017  10.073  10.577  11.669 -0.0795 -0.0621  0.0891
 7170W        W24018  13.385   5.781  11.928  0.1876 -0.1130  0.0408
 7171W        W24019  10.887  14.949   6.418 -0.2326  0.2668 -0.0416
 7172W        W24020  13.561  16.323   2.525 -0.1982  0.2242 -0.0908
 7173W        W24021  15.126   3.978  13.474  0.2261  0.1433  0.6730
 7174W        W24022   5.112  17.509  13.176  0.3098 -0.0953 -0.3108
 7175W        W24023  12.620  12.248   4.490 -0.0861 -0.0603  0.0404
 7176W        W24024  18.021   1.453  14.175 -0.1087 -0.2502  0.2323
 7177W        W24025  16.718  13.580   1.935  0.4166 -0.4154  0.1018
 7178W        W24026  14.941  12.445  16.053 -0.1775  0.0739  0.1441
 7179W        W24027  13.815  11.302   2.958 -0.1851 -0.0749 -0.0114
 7180W        W24028   7.342   8.104  15.188 -0.0003 -0.1091 -0.0828
 7181W        W24029   4.583  16.270  11.217 -0.0064 -0.1938  0.1231
 7182W        W24030   1.045   4.853  12.507  0.0300 -0.2653 -0.0772
 7183W        W24031   3.495  11.455   2.742  0.0813 -0.0603  0.0439
 7184W        W24032  10.078  16.805  11.813  0.2364  0.0080  0.1263
 7185W        W24033   2.471   5.357   1.236  0.2054 -0.2456  0.1671
 7186W        W24034  13.323   0.577  15.654  0.1001 -0.0016 -0.0543
 7187W        W24035  15.246  11.765  15.653 -0.0892  0.2816 -0.3290
 7188W        W24036  14.712   3.276  10.083 -0.0617 -0.2074 -0.3163
 7189W        W24037  13.609  10.762  15.457 -0.0428  0.0309 -0.4347
 7190W        W24038  14.006   0.139   6.073  0.3124  0.1562 -0.2456
 7191W        W24039   9.325  15.869  16.101  0.3089  0.0613  0.1274
 7192W        W24040   6.684   1.161  15.688  0.0640  0.1403  0.0269
 7193W        W24041  16.629   3.851   1.586  0.0029 -0.1435  0.2437
 7194W        W24042   5.457  17.322  15.532 -0.0433 -0.0114  0.0145
 7195W        W24043   6.366   0.545   4.860 -0.1007 -0.0906 -0.0111
 7196W        W24044  17.564   8.617  15.277  0.0708  0.0876  0.1667
 7197W        W24045  13.328   8.254  15.874 -0.0711 -0.0869 -0.0543
 7198W        W24046   0.243   3.640   2.823 -0.0457  0.0324 -0.1766
 7199W        W24047   2.015  17.722   3.540 -0.2857 -0.0042 -0.3899
 7200W        W24048  12.937   4.601  15.235 -0.0787  0.1606 -0.0036
 7201W        W24049  12.723  16.830   5.404  0.1017 -0.0102  0.0939
 7202W        W24050   3.653  15.704  13.037  0.3116  0.2139 -0.3428
 7203W        W24051   5.941  16.750  14.473  0.1185 -0.1723  0.1386
 7204W        W24052   7.285   4.603   4.038  0.0752 -0.1816 -0.0825
 7205W        W24053   0.741  12.592  15.724  0.3014  0.1933  0.1776
 7206W        W24054  11.305  12.098   1.372  0.3105 -0.1100 -0.3048
 7207W        W24055  12.398  10.741   4.700 -0.0502  0.1670 -0.0394
 7208W        W24056  16.565   7.495   2.401 -0.1566  0.1509  0.3186
 7209W        W24057   4.058  15.958  13.299  0.0354  0.2359  0.0014
 7210W        W24058   8.579  15.197   5.677 -0.1385  0.1894 -0.0606
 7211W        W24059   2.726  11.336  11.365  0.0695 -0.0866  0.2863
 7212W        W24060   0.925   8.589   2.673 -0.3199 -0.1171  0.0935
 7213W        W24061  16.587  13.382  10.396  0.2231 -0.4852 -0.1970
 7214W        W24062  11.363   9.625  13.399  0.1629 -0.0739  0.2160
 7215W        W24063  13.251   2.883   3.762 -0.1008  0.3508 -0.1790
 7216W        W24064   6.558   3.945   4.990  0.0336 -0.2876 -0.0700
 7217W        W24065   0.652   3.799  11.767  0.2217 -0.2639  0.2688
 7218W        W24066  13.540  13.784   3.364  0.0102 -0.0545 -0.0687
 7219W        W24067  15.097   5.696   2.581  0.2745  0.0527  0.1562
 7220W        W24068  15.030   7.840   2.141  0.1208  0.0113 -0.0184
 7221W        W24069   6.402  15.606   1.924  0.2430  0.0774  0.0911
 7222W        W24070  12.008  12.993   3.217  0.1710 -0.0700  0.0689
 7223W        W24071   3.647  15.629  16.088  0.1037 -0.2724  0.4514
 7224W        W24072  12.064   1.240  12.815  0.2872  0.2430 -0.1198
 7225W        W24073   6.699  17.636   0.358 -0.3478  0.2240  0.2314
 7226W        W24074   1.392  10.321  11.593 -0.1716  0.1388  0.1229
 7227W        W24075   0.979  13.638   2.741  0.2116  0.0392 -0.2402
 7228W        W24076   5.804   9.652  12.984  0.3260 -0.1684  0.0411
 7229W        W24077   2.866   9.179   6.587  0.0203  0.1049  0.3833
 7230W        W24078   4.285   0.018   5.554  0.1562  0.3583  0.0842
 7231W        W24079  16.343  16.381   3.946  0.4063 -0.5066 -0.0341
 7232W        W24080  15.700  14.346  13.588 -0.2156  0.2061  0.3289
 7233W        W24081   6.976   6.562  13.331  0.2579 -0.0204 -0.0383
 7234W        W24082   7.882  16.925  11.466  0.2823 -0.0334 -0.0450
 7235W        W24083  16.696   3.678   4.491 -0.1349  0.0880  0.2527
 7236W        W24084  10.233  10.423   3.399  0.0378 -0.1312  0.1273
 7237W        W24085   5.604  17.102   5.061 -0.0519  0.1472  0.0959
 7238W        W24086  16.524   1.477  12.840 -0.0180 -0.0877 -0.4003
 7239W        W24087  10.201   1.075  11.976 -0.2693 -0.1361 -0.1044
 7240W        W24088   4.369   3.956   1.846  0.1476 -0.1066  0.2752
 7241W        W24089   0.684   4.219   1.828 -0.0015  0.1552 -0.2570
 7242W        W24090  14.548  13.867   4.787  0.1515 -0.0116 -0.1255
 7243W        W24091  10.461   6.589   3.535 -0.2289  0.0742  0.0317
 7244W        W24092   2.235  16.810   1.122 -0.1560  0.0430 -0.1777
 7245W        W24093   3.724   1.986   1.385  0.0240 -0.3747 -0.1054
 7246W        W24094   7.301  15.984  12.111 -0.0341  0.1625  0.0902
 7247W        W24095   2.789  11.836  11.273 -0.2961 -0.1482  0.1875
 7248W        W24096   3.879  13.689  12.178 -0.0672 -0.0774  0.4105
 7249W        W24097   6.798   2.628   4.357  0.0203  0.1147  0.3832
 7250W        W24098  16.009   8.901  13.849 -0.0513  0.0180 -0.0329
 7251W        W24099  11.058  13.621  15.673  0.1682 -0.3484  0.0437
 7252W        W24100  11.100  16.250  13.786  0.1359 -0.0563  0.0791
 7253W        W24101  16.801  16.434   2.907 -0.0346 -0.0653  0.0547
 7254W        W24102   4.512   7.250   3.336 -0.2131  0.4228  0.2242
 7255W        W24103   3.031   3.120  11.915 -0.2597  0.1436 -0.2600
 7256W        W24104   4.049   1.483  14.497  0.1695  0.4362  0.0244
 7257W        W24105  10.574  13.902   0.007 -0.0902 -0.2247 -0.0451
 7258W        W24106   0.413  17.592  13.155 -0.0573  0.1117  0.1071
 7259W        W24107   6.556   9.200  16.194  0.0338 -0.1746  0.1720
 7260W        W24108  11.237  10.528  14.108 -0.2011 -0.1539 -0.0118
 7261W        W24109   8.485   8.265   2.028  0.0253 -0.3260 -0.0389
 7262W        W24110   2.469  17.178  14.310  0.2367  0.1599 -0.0267
 7263W        W24111   0.152   8.576  13.570 -0.1242  0.1920  0.0148
 7264W        W24112   6.480   5.583   2.686 -0.0423 -0.1916  0.1138
 7265W        W24113  17.758  14.228   0.567  0.1249 -0.1546 -0.1761
 7266W        W24114  14.164  11.777   4.983 -0.1553  0.0842 -0.1301
 7267W        W24115  13.777  10.120  15.929  0.0685  0.0303 -0.0357
 7268W        W24116   8.205  17.837  12.115 -0.2626 -0.1521  0.1607
 7269W        W24117   5.893  14.114  14.170 -0.0080  0.4916  0.0164
 7270W        W24118  10.562  14.984   5.046  0.0031  0.0860 -0.0922
 7271W        W24119   6.128   4.889  13.206  0.2385  0.1278  0.2339
 7272W        W24120  11.895  10.679   2.923  0.1393 -0.4436  0.2065
 7273W        W24121  10.866   6.158  14.014 -0.1044 -0.2318  0.1412
 7274W        W24122   1.941   8.604   2.432  0.0374 -0.1870 -0.2983
 7275W        W24123  14.863   8.243   5.041  0.0495  0.1488 -0.2274
 7276W        W24124  10.848   7.570  15.912  0.1903 -0.2390  0.0121
 7277W        W24125   8.471   5.192  11.969  0.2392  0.0619 -0.0769
 7278W        W24126   0.427  14.156  14.528 -0.1038  0.1877 -0.2331
 7279W        W24127   7.412   8.813   1.007 -0.2244 -0.0695  0.0966
 7280W        W24128  13.706  17.047   4.672 -0.2625 -0.2493 -0.0433
 7281W        W24129  11.796   6.770   1.455 -0.1784  0.2634 -0.0378
 7282W        W24130  15.177  12.957  14.518  0.0570 -0.0597  0.1517
 7283W        W24131  10.909   4.357  14.965  0.1855 -0.2677 -0.0238
 7284W        W24132   8.609   4.448   2.072  0.1621 -0.0966  0.1913
 7285W        W24133  14.689   7.600  13.746 -0.0683 -0.0765  0.0597
 7286W        W24134   4.405  11.325   0.121  0.0285 -0.0516  0.0083
 7287W        W24135   7.479  14.631   4.093 -0.0885  0.0526 -0.0160
 7288W        W24136  13.398   9.395   4.949 -0.0705  0.1156  0.2196
 7289W        W24137  11.894   9.241  15.968 -0.1623 -0.0388  0.1245
 7290W        W24138  17.518  13.202  15.975  0.1613 -0.1424 -0.0317
 7291W        W24139   8.273   3.562   0.439 -0.2878 -0.1060  0.1168
 7292W        W24140  14.376   8.855  14.492  0.2335  0.3300  0.0673
 7293W        W24141   5.710   2.629  14.826 -0.0440  0.0114  0.3227
 7294W        W24142   2.722   1.138  14.730  0.0037 -0.2419 -0.0122
 7295W        W24143   9.838  16.373   0.522 -0.0277 -0.0749  0.1791
 7296W        W24144   0.975  15.526  13.903 -0.1603 -0.1068  0.2616
 7297W        W24145   8.975  13.093   5.017 -0.0503  0.4249 -0.0458
 7298W        W24146   1.461   1.896   1.075  0.1045  0.2543  0.1549
 7299W        W24147   7.760   6.998  15.762  0.0282 -0.1052  0.2290
 7300W        W24148   7.254  12.351  15.331 -0.0598 -0.2174 -0.0117
 7301W        W24149   7.796   5.030   1.823 -0.1165  0.0860  0.1714
 7302W        W24150   2.946   2.095  14.870 -0.0486  0.3353  0.1884
 7303W        W24151   7.563   8.525   3.302 -0.0669 -0.1550 -0.0747
 7304W        W24152  11.061  15.637   5.348  0.2714  0.0627  0.3320
 7305W        W24153  10.175   0.727  12.905  0.3176 -0.0899 -0.0495
 7306W        W24154   0.791  14.569   2.726 -0.2493 -0.0188 -0.0346
 7307W        W24155   4.472  12.794  13.686 -0.0023  0.1015  0.1688
 7308W        W24156   9.753   5.952   3.530  0.2212  0.2731  0.2086
 7309W        W24157  16.918   0.040  12.564 -0.1207  0.1510 -0.3016
 7310W        W24158  14.092  17.487   4.559 -0.0706  0.0694 -0.0640
 7311W        W24159   3.874   1.190   5.196 -0.2939 -0.0615  0.1906
 7312W        W24160   5.639   5.163  14.874  0.0664 -0.0466 -0.0621
 7313W        W24161  13.809   1.690  12.916  0.3148  0.1153  0.1700
 7314W        W24162  11.487  13.447  12.501 -0.1537  0.0171  0.1534
 7315W        W24163   1.493   2.655   1.730  0.1763 -0.2080  0.0909
 7316W        W24164   1.406  15.658   1.160  0.0554  0.1858 -0.0294
 7317W        W24165   4.116  16.552   3.946  0.1725 -0.0222 -0.1992
 7318W        W24166   2.532   5.646  12.183  0.2740 -0.1015 -0.0591
 7319W        W24167   4.795   1.166   1.211  0.1538  0.1640  0.0135
 7320W        W24168   1.223   9.424   1.826  0.2571  0.3613 -0.1694
 7321W        W24169   8.681  16.009   1.886  0.0842  0.3010  0.2660
 7322W        W24170  11.233   1.090   4.810  0.0735 -0.2060  0.0057
 7323W        W24171   6.758   6.627   5.542 -0.0421  0.0882  0.2900
 7324W        W24172   9.161   1.661  12.733  0.1060 -0.1242  0.1179
 7325W        W24173   6.399  15.332   2.432  0.1876 -0.0671 -0.1010
 7326W        W24174  14.508   7.920   2.856 -0.0965 -0.0779 -0.0678
 7327W        W24175  13.333   5.828   0.742 -0.2059  0.0727 -0.0525
 7328W        W24176   7.774   1.254   0.171  0.1622  0.1416 -0.0403
 7329W        W24177   3.070  10.372   1.066 -0.0056 -0.0084  0.3777
 7330W        W24178  13.954  15.193  12.626  0.0095 -0.1259 -0.0329
 7331W        W24179   1.697   0.953  12.088 -0.1152  0.3094  0.4019
 7332W        W24180   1.449  16.038   4.325  0.0386 -0.1436 -0.0783
 7333W        W24181  10.846   0.930  13.635  0.0169 -0.2368  0.1872
 7334W        W24182  15.086  17.433  11.521 -0.0190 -0.2160  0.1231
 7335W        W24183  17.027  17.410   0.287 -0.0371  0.1587 -0.1826
 7336W        W24184  12.491   0.426   1.980  0.0897  0.0636  0.1037
 7337W        W24185  11.717  14.845   3.012 -0.0498 -0.0226 -0.3381
 7338W        W24186  15.140  15.309  14.884 -0.0906  0.0821  0.0464
 7339W        W24187  16.934   0.442   4.409 -0.0697 -0.1073 -0.1581
 7340W        W24188   6.050  11.523   4.959 -0.0346  0.0395  0.2176
 7341W        W24189  11.920  13.016  11.467 -0.2003  0.2057  0.4547
 7342W        W24190   9.672  15.260  11.046  0.2984 -0.1169 -0.1426
 7343W        W24191   9.751  14.540   0.770 -0.0981 -0.1145 -0.2118
 7344W        W24192   0.811   0.549  10.692 -0.3460 -0.0196 -0.1221
 7345W        W24193  17.792   3.196  12.012 -0.1191  0.2702 -0.1153
 7346W        W24194   7.339   1.435  12.488  0.1088  0.2904  0.2816
 7347W        W24195   4.452   6.587  15.264 -0.0335  0.1952 -0.1461
 7348W        W24196   2.545   9.377   0.717 -0.1487  0.0511  0.1767
 7349W        W24197  14.741   7.362   3.458  0.0161 -0.1354 -0.1264
 7350W        W24198  15.974  15.349  13.657 -0.1578  0.0781  0.0785
 7351W        W24199  17.470  13.917   0.283  0.0942 -0.0637 -0.0136
 7352W        W24200  11.256   0.009   4.902  0.0728  0.1173  0.2184
 7353W        W24201   0.380   1.352  12.611  0.1941  0.1052 -0.1507
 7354W        W24202   5.685   8.345   0.893  0.1616  0.0752 -0.0774
 7355W        W24203   5.571   8.754  11.155  0.0928 -0.0111 -0.1086
 7356W        W24204   9.676  12.774  14.652  0.2604 -0.2921 -0.2446
 7357W        W24205  17.211  14.127  11.591 -0.0042  0.0499 -0.0978
 7358W        W24206  11.534  12.926   2.962  0.1732 -0.0806 -0.1349
 7359W        W24207   3.530  15.288   3.951 -0.1330  0.1344  0.0096
 7360W        W24208   0.232   6.844   3.665 -0.3227 -0.2354  0.0395
 7361W        W24209   1.564   3.365   4.320  0.1015  0.1473 -0.1035
 7362W        W24210  12.691  14.339   1.805  0.0419  0.2199 -0.2707
 7363W        W24211   2.937   2.526  13.567 -0.0121  0.0061 -0.1714
 7364W        W24212   8.225  11.659   1.714  0.0261  0.1918  0.0254
 7365W        W24213  12.203  17.239   0.323  0.1407 -0.0008 -0.1958
 7366W        W24214   2.643   9.309  10.904  0.2410 -0.0206  0.1231
 7367W        W24215   5.366   9.489   3.382  0.0121  0.3268 -0.0284
 7368W        W24216   7.128  11.117  12.443  0.1627 -0.3032 -0.0131
 7369W        W24217  12.798   6.237  13.853  0.1708  0.0039 -0.0381
 7370W        W24218   9.053  11.088   2.390  0.0048 -0.0797 -0.1526
 7371W        W24219   1.215  17.845   5.052  0.2557  0.0184 -0.3993
 7372W        W24220  14.245  13.970   2.158 -0.2139  0.2837  0.1229
 7373W        W24221   8.820   1.419   4.484  0.1454  0.0373 -0.1647
 7374W        W24222  10.400   3.395  11.094 -0.0487 -0.3648 -0.1991
 7375W        W24223   8.934  10.866   1.461  0.1307 -0.1915  0.2389
 7376W        W24224   9.450   8.719   4.512 -0.1349  0.0250 -0.1458
 7377W        W24225  17.514   2.817   1.414  0.0639 -0.2655 -0.2945
 7378W        W24226   6.787  14.286   0.720  0.1696  0.1062  0.2753
 7379W        W24227   9.843  10.301  15.965  0.2667  0.0249  0.0816
 7380W        W24228  17.666  13.640  11.098  0.2361 -0.0753 -0.2760
 7381W        W24229  14.246   6.793   4.449  0.1392  0.1384 -0.1075
 7382W        W24230  14.058  14.726  11.516 -0.1520  0.1738 -0.2083
 7383W        W24231  12.858  15.532  14.664 -0.0389  0.1009  0.1401
 7384W        W24232   0.754  10.366   2.084 -0.3636  0.0364  0.2551
 7385W        W24233   2.783   8.364   4.111  0.0325  0.0275  0.2328
 7386W        W24234  14.172   2.466  15.270 -0.0138 -0.4054  0.0747
 7387W        W24235   3.235  11.165   4.239  0.1192 -0.1776  0.0438
 7388W        W24236  10.139  14.643   0.495 -0.1381 -0.0687 -0.3154
 7389W        W24237   1.078   3.471   5.066  0.3680  0.0965  0.1090
 7390W        W24238   9.116   9.071  11.594  0.1878  0.3839 -0.1482
 7391W        W24239  13.320   0.870  13.972  0.2888  0.1205  0.0171
 7392W        W24240   0.546   9.713   3.814  0.4956  0.1706  0.2455
 7393W        W24241   2.648   6.475   4.477  0.0135  0.1069 -0.0944
 7394W        W24242  13.067   3.751   1.381  0.3294 -0.1635  0.0374
 7395W        W24243   4.994  12.088  13.895 -0.1819  0.0512 -0.1536
 7396W        W24244   7.636   4.141  15.423 -0.1690 -0.1438  0.1769
 7397W        W24245   7.273   9.180  11.295  0.2164  0.0703 -0.0172
 7398W        W24246  14.338   5.488  12.286  0.3007 -0.0521 -0.0125
 7399W        W24247   1.666  12.461  11.789 -0.2159 -0.2778 -0.2185
 7400W        W24248   1.600   9.299  11.250 -0.1587  0.1881 -0.2615
 7401W        W24249  10.395  13.409  14.892  0.1994 -0.0312 -0.0984
 7402W        W24250  15.346  10.984  13.747  0.0871 -0.2940  0.0367
 7403W        W24251  11.356  11.837  15.242 -0.3561 -0.0944  0.0669
 7404W        W24252  13.727  17.702   5.325 -0.0234 -0.1131 -0.1138
 7405W        W24253  12.641  11.055   4.355 -0.2474 -0.0289  0.0027
 7406W        W24254  16.903  16.976   3.684 -0.2834 -0.2115  0.0595
 7407W        W24255  17.428   7.885   5.184  0.2229 -0.0074 -0.3973
 7408W        W24256  14.008  15.094   4.545  0.3712  0.2497 -0.0204
 7409W        W24257   7.339  10.875   3.960 -0.0821 -0.3212 -0.5139
 7410W        W24258  13.736   9.107  12.159  0.1328 -0.1040 -0.1295
 7411W        W24259   3.410   2.982   4.660 -0.0403 -0.0261  0.0611
 7412W        W24260  14.158  13.346   0.945 -0.2914  0.3444 -0.0569
 7413W        W24261  10.871   4.010   4.266 -0.1026  0.2675  0.0603
 7414W        W24262  13.275   0.095   2.273 -0.1694 -0.2519  0.1444
 7415W        W24263   5.210   5.546   0.689 -0.1744 -0.1757 -0.2799
 7416W        W24264   6.149  14.975  14.250 -0.3899 -0.1377 -0.0025
 7417W        W24265   2.172  16.001   2.855 -0.0629  0.1131  0.0098
 7418W        W24266   2.004   5.357   2.029 -0.2031  0.2396 -0.0046
 7419W        W24267  15.170   1.717  15.241  0.0596  0.0301  0.0659
 7420W        W24268  11.001  13.113   4.462 -0.1168 -0.1023  0.2288
 7421W        W24269   7.372   4.983   0.337  0.1336  0.2142 -0.2921
 7422W        W24270  11.160   5.183  11.868  0.2789 -0.0466 -0.1385
 7423W        W24271  12.417   7.519   0.780  0.3229 -0.0186 -0.0566
 7424W        W24272  10.893  11.202   1.058  0.1202  0.4799  0.1375
 7425W        W24273   6.315  10.211   1.072  0.1922  0.2113 -0.0933
 7426W        W24274  15.105  14.871  10.008 -0.0942 -0.0020  0.1517
 7427W        W24275   6.955  12.818   4.308  0.3276  0.2476 -0.0749
 7428W        W24276   7.283   7.807   4.721  0.3266  0.1219 -0.0847
 7429W        W24277   1.201   8.639   2.235 -0.1239 -0.1124  0.0670
 7430W        W24278   4.437  17.854  12.011  0.1537 -0.4479  0.4660
 7431W        W24279  15.314  10.351  11.151  0.3760 -0.1503 -0.2962
 7432W        W24280  12.010   4.755   1.477  0.3699  0.1852  0.2332
 7433W        W24281   9.660  13.267  14.879  0.0895  0.0903 -0.1646
 7434W        W24282   7.637   8.868  12.617 -0.2315  0.0976 -0.4015
 7435W        W24283   9.709  13.531   5.674  0.0559  0.3369 -0.3358
 7436W        W24284  10.377   1.636   1.910  0.6325 -0.0586 -0.2255
 7437W        W24285  12.393  11.064  10.838  0.1814  0.3047  0.1675
 7438W        W24286  16.021  13.655   0.016  0.0576  0.0413 -0.2250
 7439W        W24287   8.353  12.912  15.658 -0.0365  0.1337  0.1527
 7440W        W24288  14.991  11.011   1.646  0.2369 -0.0201 -0.1572
 7441W        W24289   3.694   0.056   3.688  0.2348 -0.1312 -0.1865
 7442W        W24290   2.225  11.698   0.402  0.2232  0.0459  0.0960
 7443W        W24291   5.807   3.486  14.434 -0.1010  0.4809 -0.3831
 7444W        W24292  15.258   7.187   0.615  0.0868 -0.0094 -0.1629
 7445W        W24293  16.428  16.522  13.783 -0.2213  0.0965 -0.1298
 7446W        W24294   0.043   8.193  13.995 -0.0394 -0.0474 -0.1630
 7447W        W24295  13.376   9.464   3.623 -0.0236  0.0655  0.0173
 7448W        W24296  10.947   6.728  14.638  0.1824  0.0358  0.1013
 7449W        W24297  11.692   3.216   4.669 -0.0043  0.2822  0.1359
 7450W        W24298   2.768   6.924  11.362  0.1099  0.0543 -0.4238
 7451W        W24299  13.682   7.672   2.486 -0.0708 -0.2402 -0.1352
 7452W        W24300   2.028   3.150   6.117 -0.0734  0.0628 -0.1041
 7453W        W24301   7.113   4.232   1.901 -0.3364  0.0598  0.1923
 7454W        W24302   8.809  13.026  13.387 -0.1242 -0.4206 -0.3845
 7455W        W24303   6.090  12.703   4.740  0.0046  0.0023  0.0087
 7456W        W24304   6.880  10.260  14.319  0.2227  0.0972  0.0918
 7457W        W24305  13.526   6.849   2.962 -0.1880  0.3105 -0.2158
 7458W        W24306  15.222   9.242  12.043  0.0994 -0.4001 -0.3230
 7459W        W24307  12.868   5.975   1.345  0.1382  0.0286 -0.2582
 7460W        W24308   2.357  12.099  14.278 -0.1494 -0.1066  0.0422
 7461W        W24309  12.184   8.491  15.493  0.0242  0.1543  0.0185
 7462W        W24310  10.917   2.623  13.266  0.0201 -0.1551  0.1612
 7463W        W24311   0.671   9.432   2.288 -0.0903 -0.2690 -0.2448
 7464W        W24312   8.488  17.637   0.796 -0.2086 -0.1457  0.1446
 7465W        W24313   0.801   2.685  13.461 -0.0297 -0.1545  0.2110
 7466W        W24314   1.385   0.393  11.781 -0.3778  0.0704  0.1414
 7467W        W24315   9.209  12.306   3.020 -0.1144  0.0089  0.1414
 7468W        W24316   7.285  13.512  16.217 -0.0689  0.4602 -0.0250
 7469W        W24317   9.755   8.359   0.945  0.0586  0.0084 -0.1036
 7470W        W24318  15.696  12.580   1.479  0.1485  0.0363 -0.0136
 7471W        W24319   3.520  16.879  14.779 -0.1616  0.1786 -0.1336
 7472W        W24320   1.638   2.225  11.893 -0.0130  0.0128 -0.1399
 7473W        W24321  12.494  11.278   4.910 -0.3512  0.0830  0.1157
 7474W        W24322  13.083  14.103   1.452  0.0494  0.0076 -0.2808
 7475W        W24323   7.133   5.874   3.279  0.1406  0.1573 -0.2215
 7476W        W24324  10.161   0.937  15.456  0.2155  0.0989 -0.1296
 7477W        W24325  13.806   1.277  13.356  0.3039  0.4328 -0.0645
 7478W        W24326   2.212   8.702  15.336  0.1785  0.0412  0.3056
 7479W        W24327   5.838   0.397   1.437  0.0649 -0.0170  0.1375
 7480W        W24328  16.262   5.317   1.864 -0.1428 -0.1091  0.1807
 7481W        W24329   1.177   2.701  12.480  0.0265 -0.3140 -0.0294
 7482W        W24330   8.998  15.073   6.756  0.3640  0.0446  0.0091
 7483W        W24331   0.001  13.102  11.472  0.0661 -0.0889 -0.0674
 7484W        W24332  15.258   0.009   3.918 -0.1410 -0.0996 -0.0012
 7485W        W24333  12.900   8.408   1.867 -0.0517 -0.0609 -0.3133
 7486W        W24334  15.747   7.361   5.256  0.1545 -0.0670  0.2209
 7487W        W24335   5.008   6.496  14.327 -0.2849  0.0822  0.1905
 7488W        W24336   6.988  13.018   0.156 -0.1554  0.2473 -0.2637
 7489W        W24337  14.282  15.185  15.873 -0.0283 -0.3385  0.0938
 7490W        W24338  17.384   8.465   1.165 -0.2405  0.2533  0.0370
 7491W        W24339   5.202   4.389  12.594 -0.2120 -0.1452  0.1772
 7492W        W24340  16.849  10.844  11.131 -0.0383  0.1225 -0.1590
 7493W        W24341   4.962   3.434   3.131 -0.1194  0.2122 -0.0836
 7494W        W24342   8.468   7.801   1.080  0.1080 -0.1170 -0.0121
 7495W        W24343   7.475   6.280   3.274 -0.0202 -0.0266 -0.0291
 7496W        W24344  13.991   3.364  11.778 -0.0068 -0.1304 -0.2434
 7497W        W24345  17.767  15.147   3.744 -0.1323  0.2702  0.0973
 7498W        W24346   3.769  15.979   0.310  0.1144 -0.1168  0.0577
 7499W        W24347   0.825   8.492  11.643  0.0335  0.1149 -0.4469
 7500W        W24348   3.455  13.341  11.339  0.0841 -0.0270 -0.1901
 7501W        W24349   6.915   3.695   4.430 -0.0191 -0.0649  0.2948
 7502W        W24350  15.708   8.170  11.999  0.0795 -0.2385  0.0239
 7503W        W24351   9.886   7.733  14.657 -0.0597 -0.0179 -0.1374
 7504W        W24352  16.966  14.457   0.344 -0.1867 -0.1157 -0.0404
 7505W        W24353   8.207  14.837  14.249 -0.0428 -0.1760  0.1669
 7506W        W24354  17.568  13.994   1.024  0.3009  0.2883  0.0265
 7507W        W24355  11.042   3.242  11.892  0.2052  0.0321  0.1981
 7508W        W24356  13.984   5.801  12.648  0.0026 -0.2471 -0.1200
 7509W        W24357  16.305   1.055  14.183  0.1713 -0.0916 -0.2027
 7510W        W24358   0.019   6.065  12.327 -0.2340  0.0221 -0.0628
 7511W        W24359   4.558  15.899  11.566 -0.1141 -0.1775  0.2768
 7512W        W24360  16.115   1.712  15.806 -0.1874  0.1412  0.0802
 7513W        W24361  15.786  16.662   2.780 -0.0088 -0.2449  0.1430
 7514W        W24362  15.473  13.124   0.795  0.1245 -0.2414  0.3018
 7515W        W24363   4.237  13.117   3.040 -0.1342  0.2802  0.0547
 7516W        W24364   9.403   3.792   2.233 -0.2647  0.1530  0.1405
 7517W        W24365   2.257   0.241  14.640  0.1369 -0.1330  0.0617
 7518W        W24366  14.618   1.878  13.348  0.1943 -0.2810 -0.1239
 7519W        W24367   4.936   2.207   4.465  0.1570  0.4416  0.1872
 7520W        W24368  11.390  12.315  13.358 -0.2016  0.3698  0.0895
 7521W        W24369   9.245   4.300   3.302  0.0494  0.3506  0.3830
 7522W        W24370   7.382   9.151   4.351 -0.1205 -0.0652  0.0574
 7523W        W24371  17.032  12.241   2.526 -0.1841  0.2531  0.2202
 7524W        W24372   5.848  16.546   1.043 -0.3419  0.3276  0.0022
 7525W        W24373  15.175   0.595  15.614  0.1090 -0.0531 -0.1245
 7526W        W24374   5.838  12.014   4.225  0.1238 -0.0308 -0.0371
 7527W        W24375  15.601  16.703  14.376 -0.2789  0.1986 -0.0503
 7528W        W24376  17.151   0.249  15.356  0.1761 -0.0345 -0.0041
 7529W        W24377   1.387   3.094  15.353 -0.1728 -0.1384  0.1030
 7530W        W24378   8.910  17.056   1.891  0.1765 -0.2099 -0.0657
 7531W        W24379   8.413   6.954   0.538  0.2379 -0.1188  0.0651
 7532W        W24380  16.674  14.714  14.107  0.1713 -0.0335 -0.2244
 7533W        W24381   6.027  13.038   0.723  0.2383  0.1577  0.0030
 7534W        W24382  15.819  11.410   0.689  0.1990 -0.0893  0.2063
 7535W        W24383   5.282  15.750   5.280  0.1070  0.1081  0.0254
 7536W        W24384  12.466  10.931   3.330 -0.0863  0.1764  0.2981
 7537W        W24385   6.376  14.856  12.834  0.3609  0.3543  0.1091
 7538W        W24386  10.574   0.937   2.796  0.1127 -0.0276  0.0381
 7539W        W24387  14.272   0.684  14.902  0.0378  0.2677 -0.1823
 7540W        W24388   9.423  12.342  14.048  0.2357 -0.2481  0.0685
 7541W        W24389   8.091  13.243   1.583  0.0077 -0.0090  0.3483
 7542W        W24390  12.250   7.458   1.749  0.0339 -0.1331 -0.2727
 7543W        W24391  16.563  13.788  14.195  0.1158 -0.2601 -0.1599
 7544W        W24392   8.539  17.000   2.296  0.0022 -0.1021  0.1567
 7545W        W24393   4.124  15.873   1.993 -0.0821  0.2053 -0.1935
 7546W        W24394  10.246  12.405  13.542 -0.0127 -0.5176  0.4117
 7547W        W24395  12.553  10.852  11.458  0.1909 -0.2116  0.0548
 7548W        W24396  13.320   5.111   1.521 -0.2160  0.3222 -0.3490
 7549W        W24397   6.402   3.685   4.188  0.0545  0.2906  0.0499
 7550W        W24398  16.759   8.720   0.129  0.2023 -0.0182  0.4675
 7551W        W24399  16.334  12.774  13.305 -0.0323  0.2531 -0.1813
 7552W        W24400  11.547  17.363   3.052  0.0325  0.1759  0.0253
 7553W        W24401  15.891   0.830  12.410  0.1578  0.0197 -0.2865
 7554W        W24402  13.663   6.444   0.205  0.3819 -0.3395 -0.2874
 7555W        W24403  16.300   9.411   3.015 -0.0654  0.0027 -0.0184
 7556W        W24404  10.900  14.158  13.560 -0.1154  0.0825 -0.5132
 7557W        W24405   8.291   7.510   4.032 -0.0121 -0.0808 -0.1602
 7558W        W24406  16.260  15.255   1.184  0.0700 -0.2023  0.1446
 7559W        W24407   5.043   6.517   0.456 -0.0180 -0.3764  0.2063
 7560W        W24408  10.077   2.335  12.950 -0.1289 -0.2075  0.2344
 7561W        W24409   0.543  10.507  15.592 -0.0547 -0.2146  0.0330
 7562W        W24410   0.551   5.733   0.587  0.0898  0.4690 -0.0308
 7563W        W24411  17.835  11.487   3.112 -0.1104 -0.1458  0.0458
 7564W        W24412  12.197   7.471  13.534 -0.2140 -0.0150  0.2952
 7565W        W24413   5.291  13.936   2.701  0.0161  0.0516  0.0679
 7566W        W24414  16.018   8.112  13.315 -0.0055  0.0739  0.1792
 7567W        W24415   0.122   3.759   4.513 -0.3566 -0.1011  0.2930
 7568W        W24416   5.372   7.718  14.198 -0.1666  0.1262 -0.2245
 7569W        W24417   3.673  11.657  12.651  0.0547  0.0203 -0.0246
 7570W        W24418  11.922   1.360  15.031  0.0434 -0.1817 -0.1574
 7571W        W24419   2.977  15.890   2.223 -0.1101 -0.0601  0.1519
 7572W        W24420   1.856  15.017  14.052  0.1439 -0.1622 -0.2963
 7573W        W24421   4.125   5.390   4.680  0.0380  0.2436 -0.1196
 7574W        W24422   9.588  16.818  13.709 -0.0391 -0.1563 -0.0546
 7575W        W24423   9.953   8.509  13.729 -0.1877  0.0917 -0.0003
 7576W        W24424   1.582  10.167   0.157  0.1034 -0.5189  0.1037
 7577W        W24425   3.282  14.444  13.955 -0.0743 -0.0553  0.1837
 7578W        W24426  14.770  15.731  13.024  0.2171  0.2731 -0.1180
 7579W        W24427   5.959  15.728   3.774 -0.1681 -0.0743 -0.4053
 7580W        W24428  10.767   1.716  13.678  0.0933 -0.3995  0.0534
 7581W        W24429   5.596   8.782   3.410 -0.0592  0.1242 -0.3288
 7582W        W24430  15.034   2.533  12.783 -0.3482  0.2808 -0.2668
 7583W        W24431  13.270   9.038   2.767  0.0359 -0.0531  0.2644
 7584W        W24432  14.283  17.905   4.436  0.2269  0.1880  0.1426
 7585W        W24433   4.378   7.991   4.959  0.0876  0.0989 -0.2297
 7586W        W24434  14.939  11.068  14.831 -0.0197  0.2834 -0.0761
 7587W        W24435  10.195   9.403  15.092 -0.1312  0.2193 -0.0835
 7588W        W24436  15.454  12.838  11.762 -0.3328 -0.2136 -0.1712
 7589W        W24437   2.344  11.297   2.878  0.0092  0.3068  0.1274
 7590W        W24438   9.388   3.838   4.975 -0.1973 -0.1442 -0.1984
 7591W        W24439  18.005  14.583   0.157  0.2623 -0.0186  0.0755
 7592W        W24440  12.436  11.704   4.626 -0.1598 -0.1834  0.2002
 7593W        W24441   9.906  11.167   1.996  0.0894 -0.0909  0.3171
 7594W        W24442  14.895  13.467   4.840 -0.1669 -0.0252  0.0045
 7595W        W24443  10.085   6.106  11.510 -0.0037 -0.2100  0.2446
 7596W        W24444  17.189   5.135  13.901  0.1455  0.1347  0.0794
 7597W        W24445   6.119  13.272   4.763 -0.0128  0.0507  0.3311
 7598W        W24446  14.347   4.189   3.273 -0.2124  0.3209  0.2196
 7599W        W24447  17.305  11.391  13.033 -0.2102  0.0706  0.1199
 7600W        W24448   9.613  18.021   2.551  0.1321  0.2477 -0.3096
 7601W        W24449   0.012  15.039  14.516  0.0184 -0.0909  0.0745
 7602W        W24450   3.077   0.551   5.121 -0.1006  0.2334 -0.0459
 7603W        W24451   7.453  11.784   2.084  0.0752 -0.1289  0.0324
 7604W        W24452  10.682   6.784  14.172  0.3136 -0.0035  0.0971
 7605W        W24453   5.285  13.791  16.014 -0.2295 -0.2385 -0.0467
 7606W        W24454  10.706   3.746   0.154 -0.0001  0.2227 -0.0146
 7607W        W24455   8.882  12.829  15.988 -0.0332 -0.1290 -0.3391
 7608W        W24456   0.440  10.382   2.557  0.4865 -0.1281  0.0265
 7609W        W24457   0.467   6.687  11.995  0.1544 -0.0676 -0.0231
 7610W        W24458   5.085   7.772  11.857 -0.0752  0.0435  0.0189
 7611W        W24459  13.741   9.375   2.735  0.1451 -0.1583 -0.0663
 7612W        W24460   2.062  17.341  15.072 -0.0659  0.0583  0.3339
 7613W        W24461   9.471   8.168  15.866 -0.1651  0.0422 -0.3652
 7614W        W24462  10.299  14.726   3.397 -0.2159 -0.0086  0.1127
 7615W        W24463  17.102   7.993   4.343  0.1885 -0.1282 -0.2960
 7616W        W24464  12.467  16.022   2.996  0.0393  0.4000 -0.0853
 7617W        W24465   1.715  11.845   1.464  0.3514 -0.1663 -0.0086
 7618W        W24466   5.002   4.063  15.545 -0.1726 -0.0894  0.2774
 7619W        W24467   0.941   9.415  13.908 -0.0445  0.2482 -0.0272
 7620W        W24468   7.392  17.857   3.345 -0.0727 -0.2738 -0.1916
 7621W        W24469  16.451  14.148   4.825  0.0052  0.1939 -0.0748
 7622W        W24470   5.840   0.569   5.794 -0.2313  0.1982 -0.2155
 7623W        W24471  13.662   1.423  14.601 -0.0214  0.2325 -0.2820
 7624W        W24472   8.530   2.843   4.310  0.1678 -0.2133  0.2669
 7625W        W24473   3.274   4.734  13.129  0.2166 -0.0619 -0.2947
 7626W        W24474   8.937  16.130  11.688 -0.0105 -0.2009 -0.1524
 7627W        W24475   0.599  11.943  15.333 -0.0200  0.1996  0.1858
 7628W        W24476   8.262  17.766   1.197 -0.0179 -0.1606 -0.1630
 7629W        W24477   9.375   6.407   3.004 -0.2984 -0.2317 -0.0448
 7630W        W24478  15.918  15.197   3.982 -0.0461  0.0618  0.2662
 7631W        W24479  11.343   9.196  12.452  0.0218 -0.0195  0.0943
 7632W        W24480   1.134   5.513   1.933 -0.0479 -0.0024  0.2393
 7633W        W24481   2.511  14.085   2.914 -0.2068  0.1380 -0.2723
 7634W        W24482   5.552   6.257   1.881 -0.2573 -0.4382 -0.1961
 7635W        W24483   2.775   5.821  15.874  0.0164 -0.0827  0.0092
 7636W        W24484   9.086   5.178  14.895 -0.2504  0.1124  0.0021
 7637W        W24485   4.520  14.890   3.942 -0.1823  0.3728  0.0372
 7638W        W24486  17.662  15.775  12.479 -0.1782  0.0274 -0.1758
 7639W        W24487  16.097   9.337   4.734 -0.1162 -0.2057 -0.0025
 7640W        W24488  17.182   1.750  10.980  0.3273 -0.3296  0.2449
 7641W        W24489  15.030   5.219  13.373 -0.2276 -0.5099  0.0433
 7642W        W24490   2.975  10.105  15.938 -0.1276 -0.0015 -0.2160
 7643W        W24491  11.972   0.957   1.563  0.1773 -0.0009 -0.1334
 7644W        W24492   7.625   0.236   3.516 -0.0565 -0.1039  0.1604
 7645W        W24493   2.220   6.693  15.486 -0.0841 -0.1859  0.1243
 7646W        W24494  12.650  13.701  13.011  0.0766  0.0744  0.2967
 7647W        W24495   4.331   3.746   0.542 -0.1210  0.0283 -0.0172
 7648W        W24496   5.361   8.608   1.549  0.2088 -0.1358 -0.4644
 7649W        W24497  10.232  16.073  14.047  0.1798 -0.1227 -0.2782
 7650W        W24498   6.408   5.048  15.348  0.2375 -0.1306  0.2987
 7651W        W24499  17.641   6.325   3.643 -0.1337 -0.0536 -0.0587
 7652W        W24500   6.972   0.261   1.288  0.0084 -0.0505  0.1541
 7653W        W24501  11.898  16.844   2.376 -0.2431 -0.0087  0.0445
 7654W        W24502   1.993   8.273   6.124  0.1420  0.2177 -0.3981
 7655W        W24503   4.500  11.468  13.408 -0.1243 -0.0911 -0.1923
 7656W        W24504  12.188   4.482  15.703  0.1681  0.1720  0.0027
 7657W        W24505   9.788   5.781   2.690 -0.0266 -0.0630  0.1629
 7658W        W24506  11.168   6.457  16.013 -0.0612  0.0361  0.2340
 7659W        W24507   9.958   8.579   3.478 -0.0268 -0.1011  0.2330
 7660W        W24508   7.237  14.548   5.402 -0.1834 -0.6795 -0.1791
 7661W        W24509   3.495   9.670  14.326 -0.0234 -0.1101 -0.2229
 7662W        W24510  16.049   2.114   0.790  0.3330  0.2235  0.0337
 7663W        W24511  11.507  16.279   3.128 -0.0928 -0.2701 -0.1179
 7664W        W24512   5.987   6.432   2.356  0.1191  0.0912 -0.0569
 7665W        W24513   8.115  14.087   0.394 -0.0968 -0.1293  0.0539
 7666W        W24514   6.768   5.672   0.638  0.0365 -0.0693  0.1234
 7667W        W24515   0.806   1.051   4.553  0.0901 -0.0978 -0.0136
 7668W        W24516   3.139   3.891   3.798  0.0408 -0.3082  0.4379
 7669W        W24517   7.152  10.690   5.635 -0.0864 -0.3087  0.0414
 7670W        W24518   1.065  14.365   0.766 -0.0547 -0.3210 -0.2248
 7671W        W24519   6.069   9.089   3.508  0.3083 -0.0551  0.2160
 7672W        W24520   7.880  16.382  11.666  0.1255  0.1170 -0.0035
 7673W        W24521   7.079  10.921   3.324 -0.3182 -0.1325  0.2486
 7674W        W24522   6.696  15.014  14.957 -0.1343  0.0300 -0.0278
 7675W        W24523  14.065  17.579   3.872  0.0149  0.0699  0.0456
 7676W        W24524   8.132  12.970   0.670  0.2128  0.1162 -0.0211
 7677W        W24525   2.165  17.340  15.775  0.2010  0.1803  0.1003
 7678W        W24526   8.145  17.759  13.342 -0.0936  0.1621 -0.0099
 7679W        W24527   5.968  13.878   0.633  0.1059  0.2456 -0.1537
 7680W        W24528   3.626   6.771  10.799  0.0425  0.2851  0.0252
 7681W        W24529   2.605   8.727   5.076  0.0719 -0.3499 -0.0894
 7682W        W24530  16.189  16.925   0.160  0.2329 -0.3427  0.0456
 7683W        W24531   8.180  13.614  13.635  0.2161 -0.0594 -0.0542
 7684W        W24532  10.727  13.240  12.575 -0.0605 -0.2151  0.0490
 7685W        W24533   0.226   3.506  10.490 -0.1639 -0.1075 -0.0237
 7686W        W24534  16.834  12.296  14.925 -0.2053 -0.0866  0.0094
 7687W        W24535   6.629  10.172  13.073  0.1704  0.2153  0.0004
 7688W        W24536   7.528  16.371   6.749 -0.1005  0.0603 -0.1690
 7689W        W24537  12.866  15.011   4.043 -0.2696 -0.1421 -0.1538
 7690W        W24538   4.575  13.054  15.916 -0.0261  0.0562  0.1901
 7691W        W24539   2.619  16.595  13.687 -0.0991 -0.1844  0.1635
 7692W        W24540  11.413   2.750  15.292 -0.0018  0.1001  0.1030
 7693W        W24541   4.355   0.895  12.129  0.0170 -0.0839 -0.1151
 7694W        W24542   2.848   8.848  11.031  0.1813  0.0277  0.2033
 7695W        W24543  13.869   0.307   4.002 -0.1096 -0.0442  0.0873
 7696W        W24544   1.590  10.217  15.668  0.0344 -0.3837  0.3234
 7697W        W24545  13.493   2.251  14.475  0.1398 -0.0965 -0.1452
 7698W        W24546   9.184  15.050  14.903  0.1404  0.0657 -0.0167
 7699W        W24547  15.564   1.853   5.226 -0.0137 -0.0439 -0.0035
 7700W        W24548  15.284   4.501  12.269  0.1384 -0.0684  0.1422
 7701W        W24549   5.614   3.825   4.473  0.0041 -0.0142 -0.1315
 7702W        W24550   5.399   3.762   1.605  0.3528  0.0890  0.1106
 7703W        W24551   3.676   7.369   0.349 -0.1486 -0.0012 -0.2186
 7704W        W24552  14.202  17.589   2.356  0.2799  0.4326  0.0496
 7705W        W24553   8.530  14.632   5.609  0.2218  0.0535 -0.2205
 7706W        W24554  16.844   9.798  13.317 -0.2079  0.1835  0.1173
 7707W        W24555  15.601  13.896  12.550  0.2600  0.0372  0.1396
 7708W        W24556   1.108   9.391  13.454 -0.0312 -0.1798 -0.1475
 7709W        W24557   1.163   6.553  15.627 -0.2226 -0.0045  0.1648
 7710W        W24558  10.266   3.898  11.067  0.2292  0.0814  0.2429
 7711W        W24559   4.010  15.443  14.941  0.3668 -0.1591  0.1735
 7712W        W24560   6.351   9.568   4.521 -0.0596 -0.1063  0.0900
 7713W        W24561  15.565   3.131   0.174 -0.0016  0.0205  0.0867
 7714W        W24562  15.624  14.925   2.068 -0.0568 -0.0847 -0.1673
 7715W        W24563   0.411   0.588  16.186 -0.2450 -0.1107 -0.4650
 7716W        W24564   8.954  16.461  12.094  0.0594 -0.3101 -0.2189
 7717W        W24565  15.235   6.697  11.354 -0.1788  0.1526  0.1208
 7718W        W24566   4.601  14.534   1.283 -0.0259 -0.1106 -0.1520
 7719W        W24567   7.134   7.047   3.300  0.1583  0.0230 -0.1120
 7720W        W24568  14.321   8.459  12.372 -0.1925  0.2150  0.2860
 7721W        W24569   8.083   5.340  16.070 -0.4414 -0.1547 -0.0684
 7722W        W24570  12.470   3.231   0.279  0.3094 -0.0739 -0.2621
 7723W        W24571   2.215  17.725  14.704 -0.1986 -0.0522  0.2214
 7724W        W24572   9.048  10.642  14.034  0.1118 -0.0885 -0.0591
 7725W        W24573   7.550   7.754  15.878 -0.0090 -0.3945  0.1766
 7726W        W24574   2.026   4.141  14.522 -0.0788  0.1578  0.0522
 7727W        W24575   5.378   9.631   0.279  0.0727 -0.2210  0.1789
 7728W        W24576  12.781  12.577   2.715  0.1569 -0.2296 -0.1898
 7729W        W24577   4.270   3.665  13.295  0.0086 -0.1730  0.1572
 7730W        W24578   5.221   1.409   4.837  0.3127  0.0737 -0.2750
 7731W        W24579   1.174  11.394   2.918 -0.0459  0.3417  0.1146
 7732W        W24580  17.420   1.463   4.558  0.1410  0.0592 -0.2758
 7733W        W24581   2.989  12.341  16.198 -0.2015 -0.0840  0.0984
 7734W        W24582   8.756   9.795  12.912  0.3214 -0.4490 -0.0833
 7735W        W24583   8.230   3.601  13.169 -0.1020  0.0783 -0.0564
 7736W        W24584  15.706   2.572  11.277 -0.1938  0.0825 -0.0297
 7737W        W24585  15.850   3.977  12.776  0.0608  0.0918  0.0566
 7738W        W24586  11.468   5.734   3.490  0.0254  0.0416  0.1279
 7739W        W24587   3.035   2.903   3.382  0.1069 -0.2296 -0.1230
 7740W        W24588  11.243   9.292   4.620 -0.2410 -0.1590 -0.1604
 7741W        W24589   5.362   0.181   1.263 -0.1044  0.0890 -0.0664
 7742W        W24590  14.270   8.757  15.047 -0.2322  0.1973  0.1019
 7743W        W24591   3.090   9.105   4.230 -0.0045 -0.0280 -0.1979
 7744W        W24592  16.676  14.579  10.756 -0.0940 -0.0926 -0.0872
 7745W        W24593   5.301  16.066  13.332 -0.0148  0.0797  0.2141
 7746W        W24594  13.259  13.446  11.886  0.1012 -0.2960 -0.2599
 7747W        W24595  12.837   1.208  12.339  0.5954 -0.3506 -0.1006
 7748W        W24596  15.263   1.397   5.143  0.3650 -0.0096 -0.0068
 7749W        W24597   5.373   0.184   0.137 -0.0197  0.0323  0.3603
 7750W        W24598   3.678   7.656  16.049 -0.3078  0.2351 -0.2086
 7751W        W24599   5.831   0.630   1.919  0.2367  0.0599  0.1206
 7752W        W24600   7.075  16.384  15.384  0.1440  0.1162  0.2744
 7753W        W24601  16.198  10.822   1.850  0.1823 -0.2173  0.1068
 7754W        W24602   5.892  14.876  15.621 -0.1452 -0.0343  0.1519
 7755W        W24603   3.958  11.234  11.548  0.1150  0.1685 -0.2058
 7756W        W24604   0.282   4.874  16.221 -0.0942 -0.1672  0.1122
 7757W        W24605   6.954   4.829  13.945 -0.1998 -0.0889  0.1318
 7758W        W24606  13.608   7.858   1.427  0.5006 -0.1464  0.1023
 7759W        W24607  16.480  11.418  14.846  0.2147 -0.0284 -0.1708
 7760W        W24608   8.973  11.923  15.954 -0.2292 -0.0720 -0.0560
 7761W        W24609  16.218  12.969  15.222 -0.1105 -0.1445 -0.0641
 7762W        W24610  14.816   8.032  11.955  0.2060 -0.2827 -0.1793
 7763W        W24611   2.986   8.442  15.398 -0.2193 -0.0085  0.0554
 7764W        W24612  11.941   9.102  11.657 -0.2130 -0.0450  0.1451
 7765W        W24613   2.109  16.824   3.053 -0.0321  0.0937 -0.0115
 7766W        W24614  10.736   9.389   1.141 -0.1712  0.0931 -0.2048
 7767W        W24615   3.392   4.040   0.316  0.1445 -0.3562 -0.0580
 7768W        W24616   8.381   7.367  12.013 -0.2594 -0.0214  0.0262
 7769W        W24617  13.486  17.384  12.280  0.2013  0.0104  0.1577
 7770W        W24618   8.814   4.256   1.504 -0.1534  0.2474  0.0927
 7771W        W24619  16.965   5.065   2.676 -0.0017 -0.1298  0.3668
 7772W        W24620   9.161   0.125   2.528 -0.1531 -0.0624 -0.2403
 7773W        W24621  14.258   5.641  14.506 -0.1044 -0.3217  0.1281
 7774W        W24622   6.364  15.759  11.930  0.0556  0.1378  0.0092
 7775W        W24623   2.432   3.912  14.250  0.0606 -0.1591 -0.2549
 7776W        W24624  13.986   7.219   4.561 -0.1660 -0.0210 -0.2512
 7777W        W24625   7.308   2.168   1.525  0.1482  0.1505  0.2555
 7778W        W24626   6.737   7.363   3.680 -0.0124  0.2028 -0.1857
 7779W        W24627   2.819   1.790   1.833 -0.1157 -0.3659 -0.1846
 7780W        W24628  13.491   0.454  14.465 -0.0001 -0.2469  0.0884
 7781W        W24629   7.633  14.248   5.620  0.1002 -0.2013  0.0583
 7782W        W24630   1.862   3.368  15.388  0.2286 -0.0465 -0.1163
 7783W        W24631  14.754  13.761  13.506  0.0540  0.0978  0.0209
 7784W        W24632  12.589   5.209   3.310 -0.1657 -0.0382  0.0687
 7785W        W24633  17.805   7.813  13.691 -0.0808  0.2914  0.1219
 7786W        W24634  14.620  10.170  11.375  0.0641 -0.2460 -0.1143
 7787W        W24635  15.634  13.148  11.437  0.0755 -0.1629  0.1201
 7788W        W24636   1.073   3.428   0.638 -0.0401  0.0116  0.0420
 7789W        W24637   6.690  17.544  13.259  0.0406 -0.2860  0.0966
 7790W        W24638   6.316   8.766  11.533  0.0121  0.0918 -0.0948
 7791W        W24639   8.781   2.073  15.831 -0.0146  0.1097  0.1279
 7792W        W24640  11.645  11.527  15.641  0.1992 -0.2289  0.1153
 7793W        W24641  12.315  11.000  15.604  0.0534 -0.2444  0.0075
 7794W        W24642  15.949   4.877  12.946  0.1302 -0.2004  0.1646
 7795W        W24643   3.846  17.700   3.236 -0.0102 -0.2023  0.1755
 7796W        W24644   0.642   0.224   3.004  0.0027  0.0783 -0.2375
 7797W        W24645   4.988  17.323   3.399 -0.1404 -0.3804  0.1532
 7798W        W24646   5.728   2.419  11.054  0.3166  0.2297 -0.0546
 7799W        W24647   5.052   8.046  15.701  0.0123 -0.0630  0.0420
 7800W        W24648   2.723   5.198  14.951  0.2965  0.0536 -0.1875
 7801W        W24649   9.411  10.366  15.740 -0.0202  0.0630  0.4020
 7802W        W24650   9.625  13.134  13.747  0.1653 -0.2765 -0.2485
 7803W        W24651   0.394  16.787   2.841  0.1612 -0.3765 -0.2915
 7804W        W24652   7.318  16.409   6.326  0.2531 -0.0674 -0.3681
 7805W        W24653   5.116   6.273  15.864 -0.1694 -0.2320  0.0181
 7806W        W24654  15.216   4.690   2.157  0.2150 -0.1395  0.0521
 7807W        W24655   6.338   0.573   1.076  0.0930 -0.0651 -0.1687
 7808W        W24656  11.608  11.341   3.604 -0.1436 -0.4510  0.0324
 7809W        W24657  13.340   5.600   3.889 -0.0951 -0.1237  0.1880
 7810W        W24658  15.689   3.882   1.873 -0.3144 -0.4259  0.1999
 7811W        W24659   4.826   6.403  12.376 -0.3188  0.2581 -0.1853
 7812W        W24660  12.926  14.803   0.605 -0.1919 -0.1977 -0.1199
 7813W        W24661   4.740  16.511   2.773  0.2321 -0.1397  0.1527
 7814W        W24662  17.452   8.673  14.805  0.0532 -0.0753  0.0569
 7815W        W24663   3.517   8.537  11.666 -0.1867  0.3815  0.0492
 7816W        W24664   6.033   6.403  13.307  0.1791 -0.1276 -0.0379
 7817W        W24665  11.344   6.640   1.646 -0.0515  0.1291 -0.0007
 7818W        W24666   6.936   4.177   4.216 -0.3911  0.3015 -0.0450
 7819W        W24667  15.184  15.286   0.640  0.2160 -0.0766 -0.1628
 7820W        W24668   3.622  17.149  11.285 -0.0145 -0.1104 -0.0481
 7821W        W24669   4.665  13.585   1.470  0.2485 -0.0869 -0.0666
 7822W        W24670   5.668   3.249  12.034  0.3045  0.0377 -0.0420
 7823W        W24671   5.391   0.043  14.258  0.1550 -0.4193  0.2439
 7824W        W24672   5.918  10.337   0.169  0.0187 -0.1402 -0.1094
 7825W        W24673   6.688  11.835   3.283  0.0452 -0.0077  0.2310
 7826W        W24674   3.425   1.370  10.502  0.3369 -0.4152  0.1015
 7827W        W24675  17.305  16.918  16.020 -0.0101  0.2539  0.1422
 7828W        W24676  17.375  10.675  16.221 -0.1165 -0.0289  0.0321
 7829W        W24677  12.585  12.557   5.174 -0.1695  0.1149  0.1657
 7830W        W24678   5.075  10.330  15.076  0.0855  0.1407  0.0610
 7831W        W24679   4.922  15.279   4.862 -0.2367  0.0500  0.0764
 7832W        W24680   0.356   8.973  11.334  0.3850 -0.2615 -0.0014
 7833W        W24681  15.481   9.528  15.239 -0.1437  0.0303 -0.0228
 7834W        W24682   3.757   2.920  13.407  0.1426  0.1154  0.2257
 7835W        W24683   3.134  16.062   3.732 -0.1333  0.1823 -0.0771
 7836W        W24684  11.054  15.963  10.350 -0.0255  0.0568  0.1292
 7837W        W24685  10.213  16.442  12.810 -0.3551  0.1190 -0.2839
 7838W        W24686   8.770   0.343   2.127 -0.1030  0.1165 -0.3271
 7839W        W24687   6.229   2.546  15.378 -0.1255  0.1556 -0.2324
 7840W        W24688  12.825  15.137   5.053  0.3769  0.0951  0.3643
 7841W        W24689   3.983   1.166   2.349  0.1034  0.0000  0.0034
 7842W        W24690  11.983  16.661  14.658 -0.0449 -0.1693  0.1724
 7843W        W24691   5.184  16.361  12.095  0.0742 -0.1503 -0.0143
 7844W        W24692   0.624   1.099  15.594  0.1227  0.0791 -0.0964
 7845W        W24693  11.520   1.163  13.848  0.0682  0.2324 -0.2324
 7846W        W24694  12.702  13.398   0.898  0.2384 -0.0235 -0.3906
 7847W        W24695  11.694   0.007  14.738  0.1001  0.2222 -0.1586
 7848W        W24696  14.756   8.688   3.678 -0.1885  0.0531  0.0405
 7849W        W24697   1.064   5.447   2.969 -0.3180 -0.1709 -0.1962
 7850W        W24698  15.403   7.616   4.966  0.0557  0.2662  0.3205
 7851W        W24699   2.266  15.140   0.787 -0.0309  0.0995 -0.1869
 7852W        W24700  12.408  16.686   0.734  0.1117 -0.0198 -0.1848
 7853W        W24701   5.320   0.943  15.772 -0.1828 -0.0772  0.0556
 7854W        W24702   7.614   4.921   3.246  0.0318 -0.2210  0.2045
 7855W        W24703  12.498  14.561   0.388  0.0424 -0.2047  0.0799
 7856W        W24704   1.990   3.104  16.141 -0.0667  0.5459 -0.1553
 7857W        W24705   9.270   3.882   0.923 -0.0944 -0.2540  0.3325
 7858W        W24706   1.543   7.190   4.418  0.3918  0.1694 -0.0828
 7859W        W24707   0.783   9.531  11.598  0.1562 -0.0388  0.1141
 7860W        W24708   7.803  13.284   3.177 -0.1645  0.1599 -0.0217
 7861W        W24709   4.487  11.061   6.210  0.0502 -0.0904 -0.3628
 7862W        W24710   9.502   0.569   4.305  0.2826 -0.2514  0.1580
 7863W        W24711   1.093   9.601  15.920 -0.0578  0.2408  0.0364
 7864W        W24712   3.246  15.523  11.187 -0.0552 -0.1156  0.2141
 7865W        W24713   4.229  13.265   0.745 -0.2153 -0.3336  0.1184
 7866W        W24714  10.758  15.261   5.390  0.0893  0.0906  0.1488
 7867W        W24715   6.668   0.164   4.052  0.0941  0.6000 -0.0051
 7868W        W24716   9.164   6.078  14.926  0.1859 -0.3551 -0.2450
 7869W        W24717  12.422  11.351  11.239  0.0539 -0.0594  0.0270
 7870W        W24718  15.307  11.031   2.072  0.1732  0.1401 -0.1347
 7871W        W24719   3.802  16.460   0.358 -0.0761 -0.0654  0.1470
 7872W        W24720  17.806   5.102   1.261 -0.0353  0.1004 -0.1227
 7873W        W24721   5.964  12.460   5.941 -0.0826 -0.1902 -0.2272
 7874W        W24722   6.044   2.258  14.978  0.3623  0.1011  0.5507
 7875W        W24723   6.150   8.783   5.022  0.2525  0.0670  0.0419
 7876W        W24724   8.443   1.670  13.321 -0.4525  0.0524 -0.1549
 7877W        W24725   1.108   9.835  14.567 -0.4027 -0.2243 -0.1160
 7878W        W24726  12.849   9.735  13.402 -0.0109 -0.4893 -0.2255
 7879W        W24727  10.611   0.892  14.993  0.0343 -0.0409 -0.2067
 7880W        W24728   9.867   2.798  16.054  0.1489 -0.0502  0.0550
 7881W        W24729   0.709  17.359   5.515 -0.1201  0.2727 -0.0452
 7882W        W24730   0.146  12.296  11.209 -0.2036 -0.0857  0.0228
 7883W        W24731  12.897   5.454  11.944 -0.1863 -0.3159 -0.0782
 7884W        W24732   2.794   2.058   5.590  0.0243 -0.1602 -0.0171
 7885W        W24733  17.533   2.173   4.981 -0.0822 -0.1211 -0.1205
 7886W        W24734   0.258   3.560   4.073  0.3416  0.1892  0.1008
 7887W        W24735  11.630  16.720   0.705  0.0516 -0.2226 -0.2694
 7888W        W24736   6.784  11.709   5.064  0.1561  0.1362 -0.2124
 7889W        W24737   3.947   1.409   0.515  0.2892 -0.0620  0.0755
 7890W        W24738   3.864   8.218  14.564  0.3404 -0.0414  0.1173
 7891W        W24739   5.309  12.733   2.068  0.0309 -0.0070  0.1707
 7892W        W24740  13.555  13.988  13.496 -0.3518  0.2798  0.1996
 7893W        W24741  12.992   8.774  11.952  0.0637  0.1979 -0.0618
 7894W        W24742   0.392  17.004  11.596  0.2353 -0.0418  0.0442
 7895W        W24743  10.586   6.023   3.621 -0.1642  0.0650 -0.1207
 7896W        W24744  17.235   8.529   2.516 -0.2141 -0.3306  0.0494
 7897W        W24745   8.772  15.327   2.933  0.2616  0.0747  0.3168
 7898W        W24746  15.361   4.296  15.326  0.0683 -0.0924  0.3456
 7899W        W24747  11.176  15.956   4.095 -0.1985 -0.1612 -0.1255
 7900W        W24748   8.494  12.393  14.105 -0.2174  0.1158  0.2066
 7901W        W24749   3.030  11.289  13.540 -0.1541 -0.2374 -0.0656
 7902W        W24750   4.894   4.417  12.186 -0.0606 -0.0737  0.0103
 7903W        W24751   0.974  11.488  13.380 -0.0557  0.3387  0.0554
 7904W        W24752  11.048   1.103  15.208  0.0945 -0.1475 -0.0714
 7905W        W24753  16.405   0.136  12.702  0.1432  0.0156  0.0014
 7906W        W24754   3.822   8.219   3.815  0.1303  0.0273 -0.1704
 7907W        W24755   9.896   5.747  11.244  0.0594  0.0264  0.1159
 7908W        W24756  14.037   1.454   3.436  0.1517  0.0089 -0.1813
 7909W        W24757   3.180   7.691  15.795  0.0709 -0.1868  0.0870
 7910W        W24758  11.260   7.355  11.092 -0.0245  0.0026  0.2645
 7911W        W24759   9.233   8.123   3.474  0.2866  0.1373  0.1138
 7912W        W24760  10.538   6.564  16.255  0.0501  0.2397 -0.2460
 7913W        W24761   9.639   6.885  13.694 -0.1284 -0.0126 -0.0077
 7914W        W24762  10.208  16.166  12.381  0.1006  0.1482  0.4922
 7915W        W24763  12.281   9.690   3.976 -0.5911 -0.0633 -0.0402
 7916W        W24764   4.995  16.155   5.104 -0.3788  0.1383  0.4643
 7917W        W24765  13.997   7.852   2.032 -0.0960  0.0647 -0.1143
 7918W        W24766  12.559  16.058  14.097 -0.1781 -0.0551 -0.0690
 7919W        W24767   5.873   8.406   3.703  0.0670  0.0714  0.1672
 7920W        W24768  14.272   3.775   3.880  0.1402  0.3471  0.1326
 7921W        W24769   8.146  16.799   5.859 -0.4690 -0.3483  0.1655
 7922W        W24770  12.509  14.401  12.219 -0.0464 -0.1300 -0.0318
 7923W        W24771  16.209   3.121   2.064  0.1519  0.2461 -0.1258
 7924W        W24772  11.637   3.232   5.737  0.0030  0.3018 -0.2285
 7925W        W24773  14.756   2.953   5.823 -0.0992 -0.0131 -0.0949
 7926W        W24774   4.886   2.544   0.065  0.0644 -0.1101  0.2566
 7927W        W24775  17.261   3.887  12.913  0.2013 -0.5705  0.2480
 7928W        W24776   1.252  12.276  15.628  0.0128  0.2358  0.2159
 7929W        W24777   6.926  13.524   1.584 -0.4422  0.1474 -0.1170
 7930W        W24778   0.136  12.655   0.474 -0.1696 -0.3647 -0.1132
 7931W        W24779   5.638   6.454   2.697 -0.0530  0.1556  0.3200
 7932W        W24780  17.468  17.529  14.189  0.0012 -0.0621 -0.1091
 7933W        W24781   8.441   1.240  13.058  0.0651 -0.0453 -0.3481
 7934W        W24782  17.271  17.860  15.138 -0.1110 -0.2647  0.2079
 7935W        W24783  15.830   0.025  15.125 -0.1846 -0.2407 -0.1600
 7936W        W24784   5.425  14.014   4.251  0.1593  0.0172  0.1622
 7937W        W24785  15.312   5.137  14.660 -0.2991 -0.0045  0.2286
 7938W        W24786  11.883  16.626  12.562 -0.1635 -0.2514 -0.1159
 7939W        W24787   1.962  13.448   2.055  0.1871  0.2133  0.0958
 7940W        W24788  17.463   2.405  11.673 -0.0389  0.0641 -0.1213
 7941W        W24789  11.523  12.311  12.193  0.4983  0.1531  0.0085
 7942W        W24790  11.820   3.522   0.909  0.0711 -0.1700 -0.1618
 7943W        W24791   8.182   5.150  12.392  0.0446 -0.0281 -0.0200
 7944W        W24792  13.699   6.142  12.841  0.1126  0.1844 -0.0111
 7945W        W24793   1.567  14.130  14.804  0.1724 -0.1694 -0.1594
 7946W        W24794   4.104   1.547   0.022 -0.1837  0.3606  0.1497
 7947W        W24795   0.890   8.002  15.684  0.0216 -0.1480 -0.1647
 7948W        W24796   8.027   3.125  13.195 -0.2345 -0.1663  0.0241
 7949W        W24797  16.924  11.200  12.094 -0.1423 -0.0534  0.3596
 7950W        W24798   0.478  17.263  15.727 -0.4920  0.0436 -0.1811
 7951W        W24799   1.477  13.592   1.973  0.1106 -0.2109 -0.0344
 7952W        W24800   6.582   1.068   1.806 -0.1951  0.0206 -0.0912
 7953W        W24801   0.227   9.202  13.685 -0.1728  0.0892  0.2087
 7954W        W24802   4.725   4.549  14.055 -0.3450 -0.0744  0.2014
 7955W        W24803   2.935   0.142  13.622 -0.0971 -0.2846 -0.1665
 7956W        W24804   0.973   2.719   3.382 -0.1486 -0.2132  0.3467
 7957W        W24805   2.546   4.723  15.228  0.0093  0.2645 -0.0117
 7958W        W24806  16.701   1.026  12.687  0.0619  0.0151 -0.0566
 7959W        W24807  10.332   1.534  12.189  0.1605  0.0796  0.0707
 7960W        W24808   0.931   0.224  15.632  0.5262  0.1417 -0.1424
 7961W        W24809   7.081  15.037  12.117 -0.0988 -0.0525 -0.1606
 7962W        W24810   9.652  10.750   4.712 -0.2080  0.2003  0.1573
 7963W        W24811  16.886  16.421  15.037 -0.2365 -0.0630 -0.4046
 7964W        W24812  15.614  15.440  11.608 -0.3371  0.0540  0.1513
 7965W        W24813   2.652  13.095  13.541 -0.1242 -0.2615  0.1251
 7966W        W24814   8.978   7.502  14.575 -0.1693  0.2035 -0.0505
 7967W        W24815  11.693   8.184  14.535  0.1332 -0.0938  0.1053
 7968W        W24816  12.728   7.747   1.632  0.2035 -0.0942 -0.1752
 7969W        W24817   5.102  17.282  15.152  0.0327 -0.2489 -0.1733
 7970W        W24818   8.997   3.648   5.914 -0.2095 -0.2884 -0.0183
 7971W        W24819  17.174   0.138   1.681 -0.0519 -0.0182 -0.3305
 7972W        W24820   4.811   6.779   0.879  0.3056  0.2376  0.0103
 7973W        W24821  17.662   0.673  15.568 -0.0910 -0.1717  0.0698
 7974W        W24822   4.651  14.970   0.265 -0.2612  0.2064 -0.2474
 7975W        W24823   3.183  12.801   4.585 -0.1629  0.0809 -0.0324
 7976W        W24824  14.709   0.485   2.251  0.0219 -0.0153 -0.1918
 7977W        W24825   9.037  10.481   5.467  0.3075 -0.1608  0.1047
 7978W        W24826   7.482   7.585  14.357 -0.1743  0.1733 -0.1919
 7979W        W24827  12.993  10.744   2.863 -0.1336  0.0294 -0.0963
 7980W        W24828   5.443  17.285   2.311  0.1365 -0.1047 -0.1422
 7981W        W24829  17.168  11.682   3.237 -0.0507 -0.0665 -0.0665
 7982W        W24830  12.420  13.117   2.689  0.0313  0.1785 -0.0151
 7983W        W24831  15.833   6.833   3.504  0.1368  0.1096  0.2721
 7984W        W24832  11.105  17.281  15.113 -0.0293  0.0796 -0.0001
 7985W        W24833   7.135  10.312   3.350 -0.2876 -0.2705  0.3627
 7986W        W24834  15.644  10.499  14.446 -0.2119 -0.0876 -0.0731
 7987W        W24835  15.174  11.833  14.517 -0.1843  0.2040  0.1499
 7988W        W24836  10.175  10.745   4.573 -0.1343 -0.3597  0.0544
 7989W        W24837   4.485   3.508   4.370  0.0312 -0.2610  0.1189
 7990W        W24838   5.298   3.622  13.397  0.1836  0.0418  0.1682
 7991W        W24839   4.788   7.054  13.689 -0.1269 -0.0388 -0.0263
 7992W        W24840   1.202   4.051  12.866 -0.1019 -0.1723  0.0561
 7993W        W24841   9.432  12.516  12.883  0.1137  0.0817 -0.0906
 7994W        W24842  17.821   6.199   2.329 -0.0425  0.0747 -0.1215
 7995W        W24843  13.577   0.938  14.427  0.2173  0.1705 -0.2026
 7996W        W24844   4.008   0.442   2.757  0.2480 -0.0895 -0.3990
 7997W        W24845  11.498  10.397  16.055  0.2904  0.2671 -0.1212
 7998W        W24846  13.207   7.099  14.948  0.1469  0.3731 -0.2335
 7999W        W24847  11.271  11.494  14.362  0.1552 -0.1797  0.0630
 8000W        W24848   9.331   2.879   3.744  0.1953  0.2296  0.3256
 8001W        W24849  15.985   6.349  11.926 -0.0524  0.1859 -0.0023
 8002W        W24850   2.383   6.985  13.657 -0.0975 -0.0562  0.1456
 8003W        W24851   7.013   3.474  13.351  0.2592 -0.0169  0.2012
 8004W        W24852   1.433  16.000   2.200  0.1208  0.0206  0.1531
 8005W        W24853   8.340  17.335   3.656 -0.3519  0.2748 -0.1664
 8006W        W24854   7.797  11.391  12.643 -0.1281  0.2091 -0.0823
 8007W        W24855  16.687  11.986   3.486 -0.2885  0.1921 -0.2781
 8008W        W24856   8.041   7.545   5.067  0.1304 -0.0478  0.1170
 8009W        W24857   4.157  18.005  12.511 -0.2567 -0.0683  0.0906
 8010W        W24858   6.047  11.083   1.845  0.1667 -0.3076  0.2050
 8011W        W24859  16.805   1.635  15.826  0.4131  0.2842 -0.0510
 8012W        W24860  17.342  13.510  13.756 -0.1276  0.2148 -0.3128
 8013W        W24861  13.861  13.312   5.960  0.0903  0.0123 -0.1106
 8014W        W24862   9.770   3.744   5.339 -0.1503  0.2968  0.0201
 8015W        W24863  17.954  17.377   0.731  0.1765  0.0453 -0.0768
 8016W        W24864   3.639   6.494  14.093 -0.4888 -0.0952 -0.0503
 8017W        W24865  15.135  10.590   1.864 -0.0471 -0.1187  0.2233
 8018W        W24866   8.753  10.443   3.698  0.1294 -0.0061 -0.0878
 8019W        W24867   4.222  11.644  11.664 -0.0454 -0.1290 -0.0985
 8020W        W24868  11.565  10.062   2.440 -0.2045 -0.4025  0.1363
 8021W        W24869  10.471   0.191  13.562  0.0638 -0.1878  0.4126
 8022W        W24870   7.711  12.576   0.781 -0.0087 -0.1639  0.2916
 8023W        W24871  11.026   6.173   0.872  0.1330  0.0923 -0.3217
 8024W        W24872   3.217  14.889   0.541 -0.0679 -0.1502 -0.0563
 8025W        W24873  15.965  10.967  15.556  0.1059 -0.0173  0.0889
 8026W        W24874  17.534  13.569   2.128  0.1291 -0.0102 -0.2308
 8027W        W24875   2.522  14.972   1.183  0.0597 -0.0929 -0.0027
 8028W        W24876   7.482  11.858   3.820 -0.0641 -0.2255  0.0393
 8029W        W24877  11.214   5.569   4.520 -0.0473  0.0171  0.5822
 8030W        W24878   1.179   4.796  16.020  0.1291  0.1838 -0.0626
 8031W        W24879   6.209   9.325   0.759 -0.1009 -0.1876  0.0299
 8032W        W24880  12.749  10.038   1.125  0.0899  0.1196  0.3658
 8033W        W24881   1.826   1.050  11.454 -0.0209  0.1358  0.0081
 8034W        W24882   7.291   6.065   2.386  0.2599  0.2110 -0.3067
 8035W        W24883  15.241   3.542  12.627  0.0494  0.0086 -0.0773
 8036W        W24884   7.965   2.286   1.653 -0.2528  0.0580  0.1394
 8037W        W24885  15.238  15.791  10.369 -0.0411  0.0644 -0.1042
 8038W        W24886   5.544   2.655  12.236 -0.1654  0.1755 -0.2616
 8039W        W24887  12.949  11.081  14.951 -0.1143  0.3565 -0.2621
 8040W        W24888   6.254  12.340  14.334  0.1959 -0.0950  0.5043
 8041W        W24889   4.358  17.989  14.893 -0.0183 -0.2756  0.1523
 8042W        W24890   8.163   4.438   2.329  0.1580  0.2672 -0.3412
 8043W        W24891  15.562   9.531  14.250  0.1980  0.0309  0.3587
 8044W        W24892   7.627   4.075   3.470  0.0143 -0.3764 -0.1560
 8045W        W24893  12.636   5.951   0.477  0.2143  0.3103 -0.0883
 8046W        W24894  10.411   7.232  15.839  0.3644  0.1060 -0.0481
 8047W        W24895  14.394  14.825   0.754 -0.0210  0.1433 -0.1351
 8048W        W24896   5.175  10.045  14.666 -0.0220 -0.1682 -0.2048
 8049W        W24897   6.686   6.369   3.255 -0.0707 -0.2050 -0.0860
 8050W        W24898   9.926   2.981   2.391 -0.2699 -0.0573  0.0597
 8051W        W24899   4.052   2.268  15.698  0.2206  0.1657 -0.1322
 8052W        W24900   2.757   1.075  11.708 -0.0128  0.3543  0.0432
 8053W        W24901   3.388  16.756   0.207 -0.2647  0.3898  0.0984
 8054W        W24902  14.894  17.866  14.212 -0.0570  0.0649  0.0636
 8055W        W24903   2.166  15.991   3.677  0.2461 -0.0677  0.1738
 8056W        W24904   3.148   4.750   0.382 -0.0956  0.1901  0.0531
 8057W        W24905  11.446   3.228   3.010  0.2332  0.0532 -0.0290
 8058W        W24906   3.499   1.406  12.172  0.0049  0.2223 -0.0281
 8059W        W24907  15.983   0.235   2.201 -0.1669  0.3488 -0.0121
 8060W        W24908   0.140  13.551  15.758 -0.0773 -0.0779  0.0115
 8061W        W24909  10.420  14.219  15.075  0.2060 -0.1156 -0.1194
 8062W        W24910   5.092  17.360  12.023  0.1174  0.2723  0.0543
 8063W        W24911   6.339  15.755   1.092 -0.2008  0.0943  0.1376
 8064W        W24912   9.717   4.972  15.774 -0.0918  0.2417 -0.2293
 8065W        W24913   3.738  12.169  13.901  0.1009 -0.1554 -0.0454
 8066W        W24914  13.591  11.208  13.771 -0.0546 -0.1634 -0.0714
 8067W        W24915  17.223  12.296  14.177  0.1447 -0.0838 -0.0358
 8068W        W24916  11.983   9.106  13.024 -0.1814 -0.0794 -0.0101
 8069W        W24917  13.740   0.686   3.767 -0.1596  0.3959 -0.0561
 8070W        W24918   0.206   6.320  11.895  0.0076  0.0690 -0.2099
 8071W        W24919   5.031   6.583  16.241 -0.1609 -0.2512  0.1444
 8072W        W24920  15.658   6.263   1.048  0.1904  0.0568  0.2334
 8073W        W24921  16.260   5.999   3.221 -0.0451  0.1578  0.0723
 8074W        W24922   6.209  11.442  12.614 -0.0703  0.0116 -0.0611
 8075W        W24923   6.156   7.822  12.843 -0.1894 -0.2443 -0.0471
 8076W        W24924   6.453   0.515   0.191  0.0667  0.1302 -0.1338
 8077W        W24925   1.799  10.788   4.810  0.0110 -0.3505 -0.1572
 8078W        W24926   0.090   9.150   4.373 -0.1560 -0.0392  0.0327
 8079W        W24927   1.573  17.145   5.264  0.0264 -0.3149 -0.0286
 8080W        W24928  14.488  16.854   0.575  0.1843  0.1479  0.1443
 8081W        W24929  10.569  16.974   0.859  0.1186 -0.2327 -0.0312
 8082W        W24930  11.700  12.516  15.810  0.0608  0.1417  0.2662
 8083W        W24931   4.970  16.748   1.579  0.0078  0.1678  0.3451
 8084W        W24932  10.559   2.555  12.868 -0.0843 -0.0712 -0.1969
 8085W        W24933  12.725  14.799   3.175 -0.0325 -0.1366 -0.1337
 8086W        W24934  15.878   2.699   0.427 -0.0897  0.0038  0.2029
 8087W        W24935   7.622   0.917   1.787  0.1208  0.2174  0.1407
 8088W        W24936  16.399  17.590  15.108 -0.1368  0.1805  0.3985
 8089W        W24937  13.235   4.370   4.247  0.0308  0.1526 -0.0715
 8090W        W24938   8.197  16.290   0.045  0.2325  0.2941  0.3260
 8091W        W24939   0.033   8.525  15.299  0.1174  0.1297 -0.0190
 8092W        W24940   4.301   2.786  14.002  0.3701 -0.0976 -0.0635
 8093W        W24941  17.193  13.489  14.772 -0.2395 -0.1849  0.0928
 8094W        W24942   7.670   8.613   2.041 -0.2099 -0.1149  0.2245
 8095W        W24943   1.871  14.896   3.275  0.2333 -0.0434 -0.2159
 8096W        W24944  10.138   2.741   4.160  0.1224  0.0032 -0.0458
 8097W        W24945  14.221  10.617  11.244  0.0394 -0.0174  0.2182
 8098W        W24946   4.491   5.909   0.134 -0.2172  0.2409 -0.1286
 8099W        W24947  12.274   6.395   0.697  0.0795 -0.1249 -0.2408
 8100W        W24948  13.410   5.126   2.994 -0.0847  0.1092 -0.1002
 8101W        W24949   5.585   1.911   3.104 -0.0038  0.0525  0.1342
 8102W        W24950   4.786  11.570   1.770  0.0904 -0.1635  0.1014
 8103W        W24951   0.745   2.944  13.058 -0.1201  0.1678 -0.0810
 8104W        W24952  11.225  10.617  11.245 -0.2413 -0.2057  0.2147
 8105W        W24953  12.476   0.909  13.694  0.1006  0.0729  0.0387
 8106W        W24954   8.312  17.645   4.370 -0.0359 -0.0962  0.0231
 8107W        W24955   4.918   1.277   0.593 -0.1401  0.0925  0.0596
 8108W        W24956   8.310  14.377  12.411 -0.1887 -0.5633  0.0421
 8109W        W24957   6.019   1.384   2.579 -0.0473 -0.0140  0.1071
 8110W        W24958   9.000  13.411  12.015 -0.2673  0.1054 -0.2789
 8111W        W24959   4.070   3.714   3.986  0.1969  0.2675  0.1323
 8112W        W24960   8.588  13.816   0.994 -0.1466 -0.1747 -0.0512
 8113W        W24961  16.981  11.063   4.082  0.1985  0.0348  0.0363
 8114W        W24962  14.962   6.425   5.395  0.0127 -0.2776 -0.3427
 8115W        W24963   9.344  10.574  11.180  0.3354 -0.1485  0.0719
 8116W        W24964  12.145   9.379  14.920 -0.1359 -0.0991 -0.3729
 8117W        W24965   0.613   6.839   3.310 -0.1743 -0.3396  0.0494
 8118W        W24966   1.223   9.400  14.866  0.0926 -0.0215  0.1673
 8119W        W24967   0.995   7.520  15.890  0.4764 -0.1434 -0.1135
 8120W        W24968   2.293   1.515   1.579 -0.0581  0.2138 -0.0953
 8121W        W24969  17.172   1.786   2.125 -0.1086 -0.0948  0.2862
 8122W        W24970  10.974   2.481   3.190 -0.0486 -0.0872 -0.3597
 8123W        W24971   0.109   8.574   0.846  0.1036 -0.1983  0.0420
 8124W        W24972  16.169  12.107   0.403 -0.0362  0.1728 -0.2847
 8125W        W24973  10.602   5.952  15.058 -0.0145 -0.0337 -0.2677
 8126W        W24974  10.011   4.163  13.393 -0.3753 -0.1310  0.1294
 8127W        W24975   5.509   5.667  14.278  0.3012 -0.3052 -0.1666
 8128W        W24976   2.761  16.695  16.040  0.1452  0.2940  0.0894
 8129W        W24977  17.842   6.723   3.974  0.0200 -0.1333  0.0800
 8130W        W24978   4.868  12.031  12.379  0.0033  0.2725  0.0975
 8131W        W24979   8.519   3.887  12.114 -0.0980  0.0376 -0.3885
 8132W        W24980  12.011  14.604   0.361 -0.4444  0.2139  0.0465
 8133W        W24981   8.473   1.170   2.202  0.1205  0.1326  0.0979
 8134W        W24982   0.448   6.358  14.468  0.0992  0.5176  0.1223
 8135W        W24983   2.552   8.633  12.815  0.1516 -0.0331  0.1931
 8136W        W24984   4.843   3.467   2.665  0.0176 -0.0035  0.3259
 8137W        W24985   9.041  11.383  12.102  0.0208  0.1383 -0.0017
 8138W        W24986  14.609  14.289   2.334  0.3322 -0.2787 -0.2049
 8139W        W24987  13.775  11.015  14.595 -0.0705 -0.3259 -0.0800
 8140W        W24988   2.579   1.912   4.438 -0.1351 -0.1373 -0.0168
 8141W        W24989  15.989  15.599  11.289  0.0205  0.3687 -0.1280
 8142W        W24990  11.544  17.708   2.676  0.1678  0.1064  0.2564
 8143W        W24991   4.730   9.447   0.944  0.0224 -0.1469  0.0954
 8144W        W24992  13.484  16.327   3.059 -0.1414  0.2024  0.0812
 8145W        W24993   4.561   3.913   2.761 -0.2220  0.1187 -0.1749
 8146W        W24994   2.270   2.425   3.577 -0.2701  0.1506  0.1045
 8147W        W24995  12.775  14.707  15.615 -0.0124 -0.1682  0.0704
 8148W        W24996  17.942  17.943  10.373  0.4981 -0.0368  0.0362
 8149W        W24997   9.867   4.539  11.737  0.1387 -0.0845 -0.3001
 8150W        W24998   1.101  10.818  13.091  0.3009 -0.0233 -0.1064
 8151W        W24999   2.055  10.019   0.287 -0.1812 -0.1469 -0.2818
 8152W        W25000  15.195   8.951   1.933 -0.0188 -0.0519  0.0324
 8153W        W25001   4.501  14.776  14.727  0.0478  0.0607  0.1525
 8154W        W25002  12.141  12.499   1.921  0.0633  0.2636  0.1815
 8155W        W25003   6.632  16.826   4.270 -0.1655  0.0313  0.2799
 8156W        W25004   0.054   1.716  12.853 -0.3438  0.0637 -0.3085
 8157W        W25005   1.450   6.344   3.485 -0.2148 -0.1235 -0.1611
 8158W        W25006   3.936   1.893  14.807  0.1319 -0.0143  0.0978
 8159W        W25007  15.218   9.631  13.882 -0.2415 -0.6487  0.1920
 8160W        W25008  14.882   1.028  11.039 -0.0577 -0.0418  0.2453
 8161W        W25009   4.720  10.990   3.878 -0.0524 -0.2980  0.0198
 8162W        W25010  10.332  16.596   4.439 -0.1403 -0.1214  0.1954
 8163W        W25011  16.497   2.841  15.975  0.1855 -0.0827 -0.3332
 8164W        W25012   9.596  15.884   5.524 -0.0942 -0.4456  0.1049
 8165W        W25013   7.370  10.710  13.712  0.2021  0.2469 -0.2845
 8166W        W25014   0.550  16.360   2.057  0.0439  0.0094  0.0753
 8167W        W25015  13.247  14.520   4.943  0.0591 -0.4093 -0.3363
 8168W        W25016   7.495  14.711   1.657  0.3176 -0.4936 -0.3560
 8169W        W25017   6.786   2.587  14.753 -0.0405  0.2060 -0.0785
 8170W        W25018   7.360   1.071   4.953 -0.1686 -0.0049  0.0267
 8171W        W25019   1.267   7.793  16.218  0.1966  0.0246 -0.2400
 8172W        W25020   7.703   9.342  15.170 -0.2435  0.0173 -0.1570
 8173W        W25021  12.547  11.775  11.963 -0.0988  0.1309  0.2817
 8174W        W25022  10.831   3.597  15.997  0.0449  0.3571  0.0433
 8175W        W25023   3.452  13.432   4.259 -0.0386 -0.3209 -0.1775
 8176W        W25024   3.215   1.665   3.152 -0.0467 -0.3310  0.1118
 8177W        W25025  15.575   1.982  10.569 -0.2562 -0.1584  0.0941
 8178W        W25026   5.193  16.833  15.397  0.2268  0.2458 -0.2042
 8179W        W25027  12.787  17.077  13.883  0.2255  0.1606  0.1155
 8180W        W25028   0.145   3.430   0.435  0.1800 -0.1624  0.1153
 8181W        W25029  15.910  10.458  10.929 -0.0484  0.2744  0.0621
 8182W        W25030   3.231   3.544  15.922  0.0314 -0.7205  0.1879
 8183W        W25031   7.506   8.502   4.027  0.0606 -0.0409  0.2165
 8184W        W25032   8.969  10.837  12.050 -0.1666 -0.0872 -0.1557
 8185W        W25033  12.301   6.124  12.029  0.0942  0.0244 -0.1376
 8186W        W25034   3.565  16.148   0.919 -0.4113  0.2204 -0.1132
 8187W        W25035  11.209  11.007  14.280 -0.1001  0.2385  0.0399
 8188W        W25036   8.157  11.465  12.998  0.0398  0.0953  0.0453
 8189W        W25037   8.938   2.792  10.471 -0.0175  0.1420  0.1257
 8190W        W25038  11.216  13.528   5.368  0.0987  0.1731  0.0406
 8191W        W25039   7.247  13.650   1.193  0.0030 -0.0563 -0.0987
 8192W        W25040   7.095   5.144  16.214 -0.1822 -0.1279 -0.2551
 8193W        W25041  16.602  14.577   3.918  0.1467 -0.2938  0.3213
 8194W        W25042   1.448   4.717   2.266  0.4764 -0.1517  0.1194
 8195W        W25043  16.601   0.932  13.178  0.0067 -0.0797 -0.0691
 8196W        W25044  17.746  13.080   1.920 -0.0078  0.1119 -0.3187
 8197W        W25045   9.591  10.488  14.273 -0.0721 -0.1211 -0.2328
 8198W        W25046  16.506   3.287   0.557 -0.0998  0.0695  0.0848
 8199W        W25047  17.387   8.051  11.597  0.0265 -0.0984 -0.1867
 8200W        W25048  17.673   7.864   3.528  0.0071 -0.0172  0.1003
 8201W        W25049   2.963  10.523  15.262 -0.0877  0.0393  0.1308
 8202W        W25050   6.328  17.015  12.415 -0.1953 -0.0415 -0.0826
 8203W        W25051   0.861   5.633   0.998 -0.0357  0.0083 -0.1302
 8204W        W25052   3.747  17.234  10.302  0.3702  0.3486 -0.1933
 8205W        W25053  12.886   4.608   0.821  0.1269 -0.0911 -0.0056
 8206W        W25054   0.295  11.031  12.393  0.0794 -0.0227 -0.1017
 8207W        W25055  17.302  11.500   4.158 -0.0062 -0.1239 -0.0255
 8208W        W25056   6.344   0.107   3.681  0.3360 -0.0786 -0.1302
 8209W        W25057  16.133   2.938  14.907 -0.3066  0.1448 -0.2322
 8210W        W25058   8.503  14.176   1.498  0.2565 -0.0827 -0.0685
 8211W        W25059   0.250  13.997  16.054  0.2097 -0.1947 -0.0667
 8212W        W25060   2.290  10.462   1.832 -0.0578 -0.2233 -0.1457
 8213W        W25061  15.614  15.350   3.128  0.2151  0.2636 -0.3145
 8214W        W25062  10.622  10.301  16.026 -0.0022 -0.1334 -0.1830
 8215W        W25063   4.077   0.839  16.031 -0.1511  0.2645 -0.0542
 8216W        W25064   4.026  11.262  13.600  0.1385  0.2291  0.1485
 8217W        W25065   7.616   2.968   4.250  0.2264  0.0890  0.0400
 8218W        W25066   4.226  14.845   0.804  0.0154 -0.0662  0.0006
 8219W        W25067  14.730   0.882   3.606  0.1651 -0.1785  0.0391
 8220W        W25068  10.335   7.921  14.780  0.1240  0.0837  0.0516
 8221W        W25069   5.177   4.275  14.049 -0.2925  0.1251  0.1985
 8222W        W25070   1.904  16.139   2.092  0.0623  0.2390  0.1647
 8223W        W25071   9.191   1.262   0.643 -0.1204 -0.2471  0.1057
 8224W        W25072  14.776   7.022  10.745  0.0622 -0.3511 -0.0439
 8225W        W25073  15.144   5.507  13.805 -0.1531 -0.0246 -0.2204
 8226W        W25074   9.132  15.559  11.317 -0.1620  0.1277  0.2028
 8227W        W25075  12.326   8.361  15.006 -0.2520 -0.3136  0.2696
 8228W        W25076   0.951  17.079  14.607 -0.3129  0.0569  0.0464
 8229W        W25077  14.309  17.290   0.889 -0.0854 -0.2199 -0.0486
 8230W        W25078   2.097   9.511   1.982 -0.0926  0.4977  0.1510
 8231W        W25079   8.557   7.932   4.041  0.4329  0.0101  0.0456
 8232W        W25080   5.387   6.672  12.564  0.1184  0.1229 -0.1671
 8233W        W25081   9.582   9.392  14.787  0.1370  0.2115 -0.0198
 8234W        W25082  17.472  11.221   3.309 -0.2703  0.1429  0.0709
 8235W        W25083   0.031   9.636   1.330 -0.0740  0.1019 -0.1555
 8236W        W25084  13.357  13.743   0.602  0.0794  0.4694  0.1143
 8237W        W25085   5.339   3.540   4.782  0.0051  0.0977  0.1259
 8238W        W25086  10.816  17.642   1.438  0.0056 -0.1506  0.0516
 8239W        W25087   4.395  13.351   9.993  0.3259  0.1908  0.0583
 8240W        W25088   5.612  10.796  15.772 -0.1168 -0.1271 -0.1887
 8241W        W25089   0.158   8.173   2.682  0.2918  0.0001  0.0756
 8242W        W25090  17.351  14.349  15.588  0.0286 -0.0929  0.0518
 8243W        W25091   1.614  13.111   0.484  0.1529  0.1623  0.0985
 8244W        W25092   9.194   9.668  12.227  0.0352 -0.0294  0.1142
 8245W        W25093   9.351   0.865   2.721  0.1889  0.0375  0.1275
 8246W        W25094   8.215   3.652   4.247 -0.1156 -0.1689 -0.1726
 8247W        W25095   7.964   0.423   3.865 -0.1817 -0.1195 -0.1501
 8248W        W25096   1.062  17.488  13.800  0.0518 -0.2129  0.1409
 8249W        W25097   2.355  13.369  14.956  0.1347 -0.2096 -0.1453
 8250W        W25098   4.076   3.768   2.967 -0.1630 -0.0544 -0.0253
 8251W        W25099   1.406  14.447  13.453  0.2635  0.0000  0.3568
 8252W        W25100  16.471  11.120  13.046  0.0234  0.0011  0.0834
 8253W        W25101   9.144   0.048  14.877 -0.0868  0.1111  0.1085
 8254W        W25102   2.786  17.613  12.880  0.0685 -0.0805  0.1673
 8255W        W25103  12.734  11.717  12.482 -0.3958 -0.1348 -0.3245
 8256W        W25104  11.070   1.724   0.899 -0.0041 -0.2887  0.0906
 8257W        W25105  14.416   4.573  12.677  0.1604 -0.2484 -0.1977
 8258W        W25106   0.465  15.248  14.413  0.2956 -0.2715 -0.0673
 8259W        W25107   2.313   3.054   4.859 -0.3501  0.2303  0.3108
 8260W        W25108  15.394  17.903  14.857 -0.2164 -0.2138  0.1090
 8261W        W25109   5.822  15.930   1.125  0.3368  0.1144 -0.0328
 8262W        W25110  16.996  10.330  11.386  0.2895  0.0041 -0.1498
 8263W        W25111  17.333   0.144   4.436  0.1348 -0.0134  0.0420
 8264W        W25112   6.754  15.817   3.995 -0.0141  0.2287  0.2110
 8265W        W25113  16.488  17.700  12.713  0.0812 -0.0664  0.1030
 8266W        W25114   9.934   0.508   1.924 -0.0462  0.0047 -0.0824
 8267W        W25115  15.237  15.670   4.496 -0.1324 -0.2525 -0.3333
 8268W        W25116  14.113   8.970  11.139  0.1041  0.1198 -0.1771
 8269W        W25117   4.068   4.148  14.486  0.3442 -0.2910 -0.0906
 8270W        W25118   5.581  17.167  11.671  0.0377  0.1890 -0.4157
 8271W        W25119   9.179  11.756  11.787 -0.0341 -0.0182 -0.0157
 8272W        W25120   9.530  13.484  11.703  0.1243 -0.0209  0.1555
 8273W        W25121  11.229   4.163   3.951  0.0796 -0.3154  0.1479
 8274W        W25122  10.805   9.223  12.290  0.2146 -0.1225 -0.1104
 8275W        W25123   2.058   5.635   0.601 -0.1610  0.1067 -0.2200
 8276W        W25124  15.543   2.353  13.006 -0.1251 -0.1081 -0.1466
 8277W        W25125  16.702   2.097   4.789  0.2555  0.1518  0.2220
 8278W        W25126  14.114   8.825  15.532  0.1537  0.0827  0.0812
 8279W        W25127   9.188  14.237   5.982 -0.1608 -0.3646  0.1455
 8280W        W25128   7.099   2.074   0.985 -0.1609 -0.0252 -0.1143
 8281W        W25129  14.259  10.367  11.846 -0.0779  0.1650 -0.3457
 8282W        W25130   6.085  12.237  12.579 -0.2791 -0.0091 -0.0979
 8283W        W25131  17.330   5.208  15.828 -0.0698 -0.1795  0.1974
 8284W        W25132  13.211  13.477   1.024  0.1027  0.1638  0.2301
 8285W        W25133  17.050   7.542  15.771  0.1105  0.0524 -0.0118
 8286W        W25134   9.772   6.518  13.355 -0.1754  0.2047  0.3989
 8287W        W25135   1.121  17.364   5.153  0.1310 -0.0555  0.4064
 8288W        W25136  13.729   6.893  12.209  0.0523  0.0603  0.0279
 8289W        W25137  17.955   8.687   1.818 -0.0541 -0.1230  0.2953
 8290W        W25138   6.175   5.220  14.759 -0.1826 -0.4826 -0.3003
 8291W        W25139   3.626   1.618  10.893 -0.2641 -0.0697  0.2280
 8292W        W25140  11.176   0.809  15.661 -0.2227 -0.0940  0.1816
 8293W        W25141  13.101  17.649   4.779  0.2487 -0.0043  0.1166
 8294W        W25142  11.544   1.240   4.301 -0.1145  0.0538 -0.0548
 8295W        W25143   8.063   6.566  15.745 -0.1857 -0.0376 -0.4304
 8296W        W25144   9.298   7.139  16.047 -0.0371 -0.0265 -0.0620
 8297W        W25145   0.908  12.489  14.430 -0.3685  0.1672  0.0348
 8298W        W25146   5.433   8.613  14.152 -0.1501  0.3245 -0.0013
 8299W        W25147   0.806   9.088   2.625 -0.0838  0.1261  0.0892
 8300W        W25148   6.841  16.815   2.120 -0.2850 -0.1173 -0.0232
 8301W        W25149   4.995  16.562  14.089 -0.0955  0.0769  0.2800
 8302W        W25150   7.917   2.609   3.310  0.4718  0.1116  0.0899
 8303W        W25151   3.908   8.984  15.790 -0.0902  0.2167  0.2789
 8304W        W25152   6.412   8.261  12.777  0.0864  0.0720 -0.3387
 8305W        W25153  14.562   7.126  13.782  0.1289  0.0807 -0.0952
 8306W        W25154   0.250   0.572  11.797  0.1750 -0.1525 -0.2826
 8307W        W25155  15.464  15.153   2.679 -0.1441 -0.0158 -0.2597
 8308W        W25156   1.990  10.868   4.153 -0.1420 -0.3048 -0.1084
 8309W        W25157   7.866  16.733  10.939 -0.2591  0.0417 -0.3161
 8310W        W25158   6.423   5.653  13.855 -0.1362 -0.0248  0.1034
 8311W        W25159   7.149  13.810   4.273 -0.1809 -0.3399 -0.0276
 8312W        W25160  15.509  16.922  15.781  0.0368 -0.0308  0.3463
 8313W        W25161   0.533  14.411  15.789  0.1176 -0.0069 -0.1791
 8314W        W25162  11.569   8.224   4.309  0.1059  0.0332  0.0625
 8315W        W25163  16.140  16.739   4.356  0.1338 -0.1308  0.3387
 8316W        W25164  11.825  11.370  11.496 -0.0009  0.2450 -0.0274
 8317W        W25165  11.078  12.011  14.314 -0.1389 -0.3383 -0.1280
 8318W        W25166   8.069   6.428  14.902  0.0742  0.0195 -0.0183
 8319W        W25167  13.841  10.808   3.957 -0.1881  0.1168  0.0755
 8320W        W25168  16.201   6.283   0.142 -0.2068  0.4743  0.2020
 8321W        W25169  10.412   2.459  14.305 -0.3013 -0.1623  0.1234
 8322W        W25170  13.802   1.508  15.106  0.1971  0.0333  0.0488
 8323W        W25171   6.634  14.902   5.039  0.1525  0.1486 -0.0450
 8324W        W25172  10.596  10.992   4.552  0.0734 -0.1775 -0.0253
 8325W        W25173   3.392   0.766  11.021 -0.0445 -0.1890  0.0504
 8326W        W25174  15.256  16.454   3.875 -0.0611  0.1400  0.1600
 8327W        W25175   8.823   7.896   5.592 -0.1199 -0.1022 -0.1573
 8328W        W25176  17.894  14.170  14.045  0.2286  0.0837 -0.4183
 8329W        W25177   4.105  15.250  11.567 -0.0417  0.2911 -0.0559
 8330W        W25178   0.616   6.060   5.348 -0.1515 -0.1829 -0.1644
 8331W        W25179   2.440   4.665   1.481  0.2722  0.0906  0.0114
 8332W        W25180   2.423  10.289   3.809  0.4610 -0.3764  0.0852
 8333W        W25181  17.296  10.674  11.285 -0.4469  0.0815  0.0370
 8334W        W25182  16.237  15.187  11.087  0.0178 -0.2564 -0.1803
 8335W        W25183   9.627   9.272   2.940 -0.0418  0.0798 -0.2242
 8336W        W25184  11.014  11.986  13.589 -0.2138 -0.1946 -0.3043
 8337W        W25185   3.255   9.187  12.315 -0.1481 -0.0562  0.5104
 8338W        W25186  13.226   7.683  13.675 -0.0553  0.1072 -0.0865
 8339W        W25187   0.969  10.939  12.042 -0.3299  0.2848 -0.0717
 8340W        W25188   0.858  12.040   5.270  0.0595  0.0603 -0.0364
 8341W        W25189   8.111   1.129   2.938 -0.1181 -0.0977  0.0276
 8342W        W25190   0.553   8.430   3.501 -0.1498 -0.3939 -0.0644
 8343W        W25191   4.044  15.789  11.728 -0.0436  0.2290 -0.2760
 8344W        W25192   4.313   5.785  11.787 -0.0270 -0.0163 -0.1782
 8345W        W25193   8.823  11.058   1.981  0.0332  0.2460  0.2659
 8346W        W25194  11.706   8.955   2.707 -0.0039  0.0507  0.0971
 8347W        W25195   4.940   2.711  11.620 -0.0130  0.0535  0.0521
 8348W        W25196   4.378  15.064  13.217 -0.2645 -0.2124  0.1397
 8349W        W25197  11.610  17.444  13.030 -0.2838 -0.2500 -0.1347
 8350W        W25198  15.431   0.808  15.142 -0.1438 -0.0521  0.1986
 8351W        W25199   2.244  14.124  10.595 -0.0472 -0.0530  0.2423
 8352W        W25200  17.438   0.425  13.903  0.4076 -0.0219 -0.3206
 8353W        W25201   9.931  13.801   4.258 -0.1091  0.3051  0.0516
 8354W        W25202  14.427  10.079  14.836  0.0463 -0.0022  0.1156
 8355W        W25203   2.364   4.120  15.761 -0.0161  0.0208  0.0090
 8356W        W25204  18.003  11.994   5.303 -0.0748 -0.2826  0.1693
 8357W        W25205   4.187  12.820   4.214  0.0944  0.1494 -0.3616
 8358W        W25206   2.379   9.498  13.885  0.0921 -0.0826 -0.0790
 8359W        W25207   4.476   8.694  15.043  0.3192 -0.0378  0.0050
 8360W        W25208   2.927  13.211   0.244 -0.0525 -0.0729  0.2096
 8361W        W25209   5.716   1.050   5.863 -0.1820  0.2162  0.4252
 8362W        W25210  13.541   5.090   4.907 -0.0109 -0.0950  0.1526
 8363W        W25211   6.409   8.556   3.316 -0.2381 -0.0562  0.1576
 8364W        W25212   4.984   3.479   1.559  0.2583 -0.0618 -0.0438
 8365W        W25213   2.570   7.019   3.848 -0.0908  0.0278 -0.0179
 8366W        W25214   6.276  11.246  15.288 -0.1708  0.1228  0.0310
 8367W        W25215  15.512  12.170  15.639 -0.2380 -0.0052 -0.0853
 8368W        W25216   6.262   7.095   3.996  0.0569  0.1609  0.0287
 8369W        W25217   9.980  11.083  13.002  0.2177  0.2582  0.0367
 8370W        W25218  11.345   8.525  14.817  0.1528  0.0641 -0.0644
 8371W        W25219  14.950  11.135  12.034 -0.1593  0.0934 -0.0312
 8372W        W25220   9.392   9.093  14.438  0.1942 -0.0039  0.2864
 8373W        W25221   5.886   2.169   0.535 -0.0274 -0.3241 -0.0178
 8374W        W25222  12.529   5.757   2.232 -0.2007  0.2787 -0.0712
 8375W        W25223   3.044   2.881   1.255 -0.3365  0.0234  0.0924
 8376W        W25224   0.235   6.318  16.016 -0.0659 -0.2166  0.0407
 8377W        W25225   3.830   8.486   4.224  0.1769 -0.0633  0.2173
 8378W        W25226  12.824   6.780   4.541 -0.2239 -0.2044 -0.0093
 8379W        W25227  11.509   7.936  14.101  0.1110 -0.1636  0.2472
 8380W        W25228   7.370   0.839   4.155 -0.1059  0.3380 -0.1316
 8381W        W25229   9.690  18.005   1.625 -0.1228 -0.1114 -0.1359
 8382W        W25230  10.908  12.384   2.586  0.1727  0.0681  0.0085
 8383W        W25231  17.361  16.474   3.664  0.2972  0.1911  0.1799
 8384W        W25232  13.292   1.966   3.960 -0.1047  0.1887 -0.0161
 8385W        W25233  14.736   5.493  14.260  0.3265 -0.1453  0.1709
 8386W        W25234  13.194  14.488  15.487  0.2592 -0.1946  0.0233
 8387W        W25235   0.721   8.170   1.544  0.0191  0.0574  0.0939
 8388W        W25236  16.840  12.973  15.093 -0.2286  0.0359 -0.0908
 8389W        W25237  15.318  15.230   1.700 -0.0337 -0.0684 -0.0558
 8390W        W25238   5.244  15.046  13.230  0.2093  0.2867  0.2887
 8391W        W25239  17.888  17.854  14.119  0.2889 -0.1473 -0.0942
 8392W        W25240  16.586   0.768   2.688 -0.1764  0.3421 -0.0568
 8393W        W25241   7.268  15.001  15.255 -0.3971  0.1987  0.1887
 8394W        W25242   3.243   4.011   2.389 -0.0351  0.0753  0.0616
 8395W        W25243   9.460   5.097   4.668 -0.1483  0.2623 -0.0331
 8396W        W25244   1.961  10.477   3.756  0.2769  0.0559 -0.4114
 8397W        W25245  17.406   3.243  16.265  0.4084 -0.1923 -0.1642
 8398W        W25246  15.226   0.537   2.088  0.5116 -0.2265 -0.0877
 8399W        W25247  10.827   8.863  13.642  0.0961 -0.0715 -0.0177
 8400W        W25248  14.196  12.597   3.128 -0.1437  0.1251  0.0263
 8401W        W25249   2.226   4.325   4.681  0.1132  0.0974  0.0926
 8402W        W25250   3.148  10.868  11.652  0.2312  0.0372 -0.0390
 8403W        W25251  12.461  17.627  13.975  0.2774  0.1824 -0.2060
 8404W        W25252  13.436   8.656   2.080 -0.0680  0.1563 -0.2732
 8405W        W25253   1.308   5.821   4.660 -0.2450 -0.3434 -0.0822
 8406W        W25254   2.592  13.205   0.620 -0.0496  0.5961  0.3035
 8407W        W25255  13.788   2.757  14.435  0.3675 -0.0493  0.0060
 8408W        W25256   0.147  17.094   3.201  0.0052  0.1299 -0.1215
 8409W        W25257   2.589  17.767  12.484  0.0539  0.1158  0.0990
 8410W        W25258   3.039  15.168  13.679  0.0562 -0.2054  0.0548
 8411W        W25259  11.767   3.182  10.461  0.2129  0.0838  0.3385
 8412W        W25260   6.016  10.540   3.910  0.2817  0.3566  0.0350
 8413W        W25261   7.199   7.244  14.077 -0.0752  0.2391 -0.3157
 8414W        W25262  10.010  14.338  12.344 -0.0897  0.1980  0.2711
 8415W        W25263   3.297  10.056   3.897 -0.1918  0.2161  0.1243
 8416W        W25264  14.440   1.288  12.998  0.0473 -0.0693  0.1605
 8417W        W25265   4.817   2.113   3.578 -0.1861 -0.0208  0.0289
 8418W        W25266   8.564   6.819  13.864  0.2817 -0.0686 -0.2684
 8419W        W25267  14.041  13.435  11.264  0.1599 -0.1698 -0.1438
 8420W        W25268  15.334  13.671  12.875  0.0600 -0.1459 -0.1110
 8421W        W25269   8.296   7.442   3.186 -0.3396 -0.1291 -0.0106
 8422W        W25270   0.395   4.591  14.042  0.3694  0.0150  0.3002
 8423W        W25271   4.613   7.478  12.342 -0.0962 -0.0519  0.1505
 8424W        W25272  17.257   5.840  13.829 -0.1617  0.0359  0.1452
 8425W        W25273  15.855   0.426   1.273  0.0831 -0.0453 -0.2647
 8426W        W25274  13.826   7.526  14.357  0.1128 -0.0124 -0.4557
 8427W        W25275   0.203   4.450  12.488  0.0338 -0.2580 -0.1084
 8428W        W25276  10.241  10.141  10.285  0.1793 -0.0301 -0.1384
 8429W        W25277   9.657  14.727  13.248 -0.1403  0.0580  0.0272
 8430W        W25278   2.448   4.524  13.576  0.1141 -0.0187  0.2492
 8431W        W25279  12.622   7.211  10.043  0.1667  0.0934  0.3339
 8432W        W25280   2.564  12.064   0.904  0.0558  0.0655 -0.2526
 8433W        W25281  17.317  12.259  14.740  0.2071  0.0348  0.0654
 8434W        W25282   2.079   5.017   0.148  0.1338  0.1229  0.1616
 8435W        W25283  14.088   9.197   1.326  0.0121  0.0174  0.3319
 8436W        W25284  14.318   3.650   2.184 -0.2660 -0.1733  0.0585
 8437W        W25285   8.310   9.348  12.016 -0.2353 -0.1471 -0.1223
 8438W        W25286  13.816   5.053  11.023  0.0240 -0.0022 -0.1552
 8439W        W25287  12.252  15.372   2.283  0.2876  0.0475 -0.0924
 8440W        W25288   9.952   0.679   4.156 -0.1228 -0.1168 -0.2755
 8441W        W25289   4.200  17.035  15.215  0.0818 -0.3195 -0.0246
 8442W        W25290   1.987  11.157  14.648 -0.2465 -0.0264 -0.0432
 8443W        W25291   5.577  11.016  11.539  0.2588 -0.4126 -0.0216
 8444W        W25292   7.926  13.462   0.609 -0.4647 -0.1623 -0.0571
 8445W        W25293   8.206   5.070   4.533  0.0748  0.1225 -0.2381
 8446W        W25294  13.459   7.875  13.266  0.0829 -0.2720 -0.2944
 8447W        W25295  15.865  15.016  12.376  0.1220 -0.1413  0.2630
 8448W        W25296  14.529  17.715  14.492  0.1040 -0.0888 -0.3400
 8449W        W25297  16.673  14.169  11.579 -0.0280  0.1624 -0.3403
 8450W        W25298  11.731  13.597   4.087 -0.3264  0.3589  0.0529
 8451W        W25299   8.083  13.199   0.213 -0.0357 -0.1108 -0.0303
 8452W        W25300   2.965   1.165  15.822 -0.2365 -0.1035  0.0623
 8453W        W25301  10.132   1.940  13.244 -0.1662 -0.1059 -0.0100
 8454W        W25302  11.560   5.527   2.636  0.1177 -0.2873 -0.2716
 8455W        W25303   3.576   9.387  11.248 -0.0591 -0.2698 -0.1524
 8456W        W25304  16.167   2.532  15.767  0.1708 -0.0552  0.0381
 8457W        W25305   2.312  12.595   4.301 -0.2196  0.0910 -0.2537
 8458W        W25306  11.472  13.044   5.434 -0.4442  0.1981 -0.1240
 8459W        W25307  12.597   1.285  12.819 -0.2525  0.2636  0.0434
 8460W        W25308   9.810   1.466  11.753 -0.2600  0.0615 -0.0109
 8461W        W25309  17.227   8.992  13.608  0.2194  0.0267 -0.0154
 8462W        W25310   6.810  10.647   2.016  0.0955  0.0050  0.2173
 8463W        W25311   9.903  10.974  10.745  0.0710 -0.2185  0.3358
 8464W        W25312   0.667   3.790   4.442  0.2369  0.2033 -0.0648
 8465W        W25313   4.837  12.333  12.001 -0.0350  0.1100  0.0585
 8466W        W25314   4.789   4.411   6.700 -0.0200  0.2753  0.0956
 8467W        W25315  11.837   2.667   4.706  0.3054 -0.1268  0.1850
 8468W        W25316   0.575   8.361  15.846 -0.0442 -0.1515 -0.0524
 8469W        W25317   0.129   2.839   2.070 -0.0903 -0.1760 -0.1418
 8470W        W25318  17.573   6.476   3.121 -0.1458  0.0023  0.1135
 8471W        W25319   4.028   3.716   0.976 -0.2388  0.1834  0.1321
 8472W        W25320   7.010   7.613   5.055  0.1302  0.0733 -0.1635
 8473W        W25321   0.614  11.719  14.817 -0.0761  0.0317 -0.3252
 8474W        W25322  10.154   0.039   1.731 -0.0054  0.1950  0.0236
 8475W        W25323  16.539   2.353  15.350  0.1696 -0.2879 -0.0194
 8476W        W25324  11.062  17.329   4.215 -0.1529 -0.0108 -0.0493
 8477W        W25325  13.240  13.965  11.698  0.1572  0.0089 -0.0658
 8478W        W25326  13.696   3.659  13.885 -0.2143 -0.3592  0.0716
 8479W        W25327  12.668   4.812  12.760 -0.0793  0.1614 -0.0481
 8480W        W25328  13.458   8.845  11.846  0.0319  0.0654 -0.1713
 8481W        W25329  14.800  17.004   2.835  0.1233  0.0661  0.1955
 8482W        W25330   3.531  15.439   1.407 -0.1591  0.1564  0.0547
 8483W        W25331  14.892   3.844  12.814  0.1889 -0.0073  0.3863
 8484W        W25332   6.378  16.778  16.024 -0.1315 -0.0064  0.0628
 8485W        W25333   2.101  14.164   0.159 -0.1704  0.2216  0.0675
 8486W        W25334   2.228  16.229   4.756  0.3276  0.1494 -0.2277
 8487W        W25335  10.545  11.229   0.211  0.0007  0.1820  0.2139
 8488W        W25336   4.470   8.644   1.654 -0.1964  0.1599  0.1439
 8489W        W25337   4.867   9.686  13.796 -0.0854  0.4014 -0.0435
 8490W        W25338   3.348   9.683   0.678 -0.1252  0.4934 -0.0135
 8491W        W25339   2.031  15.254   1.845 -0.1254 -0.1111 -0.0304
 8492W        W25340   3.583   4.885  16.061 -0.1857 -0.0937 -0.0091
 8493W        W25341  10.868  12.095  16.110 -0.1274 -0.0541 -0.4144
 8494W        W25342   9.685   2.806  15.183 -0.1690  0.0732  0.1673
 8495W        W25343   1.098  16.953  15.070 -0.1759  0.1054  0.0997
 8496W        W25344  13.910   4.596  15.251 -0.0081  0.1460 -0.1262
 8497W        W25345   1.622   3.077  11.300 -0.1524  0.4156 -0.2287
 8498W        W25346   1.780   5.985   2.978  0.1296 -0.0018  0.1609
 8499W        W25347  14.746  12.601   1.109  0.2372 -0.1938  0.1751
 8500W        W25348  17.768  15.127   6.062 -0.0771 -0.2127 -0.2543
 8501W        W25349  14.318   7.418  14.144  0.0255  0.0675 -0.1976
 8502W        W25350  17.151   4.509  10.234 -0.1320 -0.2401  0.1286
 8503W        W25351  13.637  13.171   1.036 -0.2670  0.0599  0.1012
 8504W        W25352   2.478  11.314  13.651 -0.1445 -0.1304  0.1552
 8505W        W25353   1.212   7.518   3.902  0.1564 -0.1251  0.1078
 8506W        W25354  13.324   2.606   4.670 -0.0258 -0.1300  0.0927
 8507W        W25355  16.870   2.602  11.640 -0.3086 -0.2210 -0.0767
 8508W        W25356   4.385  13.288  13.534 -0.0223  0.0858  0.0637
 8509W        W25357   2.806  13.877  11.303 -0.0764  0.0882  0.0627
 8510W        W25358  12.847  16.635  13.574 -0.3219 -0.1151 -0.2749
 8511W        W25359  14.027   7.342  15.495 -0.1729 -0.1536 -0.0799
 8512W        W25360   8.288   3.671  12.621 -0.1883  0.0178 -0.0136
 8513W        W25361   7.662  15.520  10.641 -0.0107 -0.2728  0.0630
 8514W        W25362   8.793   6.961   4.892 -0.1511  0.2870 -0.0899
 8515W        W25363  16.124  16.151  16.249 -0.1072  0.1163  0.0794
 8516W        W25364  16.100   6.194   4.119 -0.0401  0.2585  0.0653
 8517W        W25365   4.959   5.364   1.973  0.0526 -0.1390  0.1720
 8518W        W25366   1.752  11.048  11.952  0.0699  0.2363 -0.2163
 8519W        W25367   7.508  12.982  15.441 -0.2957 -0.0260  0.0230
 8520W        W25368   8.388  16.135   3.309 -0.2574  0.1206 -0.1352
 8521W        W25369   3.400   2.598  13.646  0.1124  0.2526 -0.1156
 8522W        W25370   0.819  15.468   1.850 -0.0985  0.0072 -0.0768
 8523W        W25371   9.617   0.800  13.910 -0.3181 -0.1182  0.1111
 8524W        W25372   5.905  12.095   0.645 -0.0598 -0.1668  0.0031
 8525W        W25373   9.044   2.274  14.760  0.0384 -0.2240  0.1101
 8526W        W25374   1.659   6.694  15.487  0.0705  0.1677  0.0155
 8527W        W25375  16.694   9.671   0.897 -0.2393  0.3321  0.1896
 8528W        W25376  17.501  17.922  16.083 -0.3775 -0.0797  0.1713
 8529W        W25377   1.422   6.143  13.652  0.0583  0.1794 -0.0742
 8530W        W25378  13.186  14.732  14.342  0.2100  0.1286  0.0770
 8531W        W25379  17.765  17.172  12.753  0.2169 -0.0500 -0.0281
 8532W        W25380  16.484  13.343  12.470  0.0302 -0.1855  0.0353
 8533W        W25381   8.836  15.003   0.450  0.0429  0.1130  0.0525
 8534W        W25382   3.294   4.933   2.071  0.0261  0.2346 -0.0240
 8535W        W25383   6.583   8.528  13.187 -0.0640 -0.4132 -0.0130
 8536W        W25384   2.581  16.658  14.656 -0.3361 -0.1218 -0.3646
 8537W        W25385   5.881   9.281   4.340 -0.0962 -0.1117  0.2040
 8538W        W25386  14.812   7.186  15.270 -0.0969 -0.1191  0.1926
 8539W        W25387  13.809   8.288   1.149 -0.1995  0.1472  0.1988
 8540W        W25388   5.141  11.239   5.172  0.0425  0.0127 -0.0557
 8541W        W25389  15.247   2.165  12.538 -0.2960 -0.2185 -0.1823
 8542W        W25390   0.045   2.057   9.907 -0.1898  0.1870 -0.0884
 8543W        W25391  15.975   8.708   0.756 -0.1496 -0.1895  0.4485
 8544W        W25392  13.448   9.338  11.738 -0.0751  0.0972  0.2000
 8545W        W25393  15.174  11.167   3.915  0.0789 -0.0162  0.1113
 8546W        W25394  12.531   7.245  14.964  0.0679  0.1545  0.0924
 8547W        W25395   7.707   0.856   5.250  0.1478  0.0872  0.5217
 8548W        W25396  12.771   8.535   4.374  0.2790 -0.1743  0.0613
 8549W        W25397   9.611  17.186   5.169  0.1413  0.0422 -0.1941
 8550W        W25398  16.614  16.134   0.084 -0.2833  0.2431 -0.1550
 8551W        W25399  11.225   1.986  11.877 -0.1747 -0.0833 -0.1311
 8552W        W25400   8.150   1.404  12.202 -0.2926  0.5279 -0.1803
 8553W        W25401  16.341  10.360  13.718  0.0900  0.1350 -0.1559
 8554W        W25402   5.189   8.788   0.663  0.1091 -0.0462  0.3189
 8555W        W25403  16.604   4.414  16.134 -0.1586 -0.2971 -0.0456
 8556W        W25404  12.962   3.151   5.314  0.2564  0.3916 -0.0883
 8557W        W25405   1.302  17.771  11.471 -0.0722  0.1158 -0.0340
 8558W        W25406  12.752   3.540   5.038  0.3304  0.0055 -0.2271
 8559W        W25407   5.777   7.604  15.733 -0.2112  0.0793  0.0971
 8560W        W25408  11.938  11.079  16.242 -0.2471 -0.0860 -0.0703
 8561W        W25409   3.324  12.034  12.440  0.3264  0.3485  0.0506
 8562W        W25410  13.375   6.223  15.613 -0.0005 -0.0468 -0.1880
 8563W        W25411   0.081   9.559   4.074 -0.3154  0.0768 -0.2139
 8564W        W25412  12.503   5.282  15.783 -0.2398 -0.0103  0.1169
 8565W        W25413   9.133   4.050  13.341  0.0014 -0.0139  0.1059
 8566W        W25414   5.885   6.982  13.987  0.0020 -0.1844  0.0427
 8567W        W25415   8.788  13.640   1.810  0.0709 -0.3449  0.1468
 8568W        W25416   8.730  14.837  12.270 -0.0559  0.0462 -0.1207
 8569W        W25417  13.609  10.873   1.516  0.2389 -0.0682  0.0904
 8570W        W25418  17.869   1.552  11.761 -0.1527  0.1356  0.0181
 8571W        W25419  12.085  17.468   4.509  0.2533 -0.1147  0.0659
 8572W        W25420  14.253   9.921  15.971  0.2455 -0.4501 -0.1882
 8573W        W25421  16.123   2.399   1.248 -0.1387  0.3214  0.0604
 8574W        W25422   2.121  14.805  14.598 -0.2138  0.0205  0.2830
 8575W        W25423   4.794   9.744  15.811  0.1153 -0.0098  0.2621
 8576W        W25424  17.360  10.469  12.935  0.1265 -0.0676 -0.2810
 8577W        W25425  10.288  13.109  11.436  0.0350  0.0748 -0.0375
 8578W        W25426  16.361  15.350   2.179 -0.0777 -0.0399  0.0424
 8579W        W25427   7.780   3.549  13.309  0.3333 -0.3703 -0.0474
 8580W        W25428   6.196   1.532   3.740 -0.2666  0.2179 -0.1196
 8581W        W25429  13.663   7.786   0.948  0.3150  0.2486  0.1194
 8582W        W25430  12.908  16.316  15.581  0.0064  0.3843  0.2072
 8583W        W25431  15.879  17.596  12.895 -0.0739 -0.0460  0.1799
 8584W        W25432   3.475  12.373   4.717  0.0260  0.1810  0.1839
 8585W        W25433  15.419  10.181   1.743  0.0458 -0.1627 -0.1285
 8586W        W25434   6.704   6.202   5.307 -0.0797  0.0311 -0.0423
 8587W        W25435  10.200  17.912   1.283  0.0735 -0.1466 -0.0950
 8588W        W25436   4.295  11.259   1.289 -0.0107 -0.1914 -0.0260
 8589W        W25437  14.890  14.606   0.170 -0.2473  0.0045  0.0193
 8590W        W25438   2.005   4.687   0.898  0.0185 -0.0954  0.1266
 8591W        W25439   5.465  14.175   3.697  0.1501  0.1368 -0.4020
 8592W        W25440   7.263   1.173   0.417 -0.1885 -0.1861 -0.0054
 8593W        W25441   0.549  11.135  11.857  0.1037  0.0489 -0.0174
 8594W        W25442   9.149   6.041  12.259  0.2709 -0.1361  0.1378
 8595W        W25443  10.941   2.376   4.981  0.0406  0.4339 -0.1083
 8596W        W25444   5.072   0.179   0.615  0.1077 -0.5033 -0.0728
 8597W        W25445  17.668  15.637  15.164  0.3785 -0.0906  0.3054
 8598W        W25446  16.411  11.982  14.869  0.0375 -0.0170  0.0761
 8599W        W25447   1.177  15.658   4.055 -0.0688 -0.1253 -0.1763
 8600W        W25448   6.978   4.306  11.834 -0.2140  0.0003 -0.1640
 8601W        W25449   0.718  17.524  14.400 -0.0457  0.2947 -0.2558
 8602W        W25450   6.455   2.507  12.194  0.0395 -0.0578 -0.0536
 8603W        W25451  16.619   5.978  10.823  0.0831  0.2719 -0.0265
 8604W        W25452   7.218   2.796   3.990 -0.0732 -0.0533  0.0607
 8605W        W25453   7.161   9.808  10.613  0.0273  0.2881  0.0358
 8606W        W25454  16.602   6.231  16.121  0.1117  0.0835 -0.0613
 8607W        W25455   8.056   6.610  16.276 -0.0678  0.1661  0.1989
 8608W        W25456  13.073  17.425  11.032 -0.1584 -0.0606 -0.4827
 8609W        W25457  17.378   3.577   2.963  0.0089 -0.3599 -0.2116
 8610W        W25458  17.815   9.912  14.541 -0.0672  0.2277 -0.0131
 8611W        W25459   6.137   2.840   1.340  0.1535 -0.2603 -0.1331
 8612W        W25460  10.777   5.163  14.526  0.0708 -0.1848 -0.0040
 8613W        W25461  11.272   9.058  14.702  0.3201  0.0206  0.0509
 8614W        W25462  11.803  12.849  16.277 -0.3568  0.2953 -0.4070
 8615W        W25463   9.138   2.606  16.007 -0.2236  0.3218  0.1496
 8616W        W25464  11.547  17.765   1.350 -0.1501 -0.2439  0.2885
 8617W        W25465  10.398   5.724  11.032 -0.1595 -0.1255 -0.0932
 8618W        W25466  13.122  17.828  13.152  0.1066  0.1217  0.1855
 8619W        W25467  11.102   1.964   4.703 -0.2700  0.0853 -0.0668
 8620W        W25468   8.753   5.797  14.758  0.0966 -0.5104  0.0357
 8621W        W25469   4.981  16.122  11.510 -0.0009  0.1870 -0.1896
 8622W        W25470  12.515   9.167   3.978 -0.1118 -0.0239  0.1615
 8623W        W25471   0.959  14.275  16.228 -0.0430  0.1546 -0.1254
 8624W        W25472   4.918   9.489   5.320 -0.1971 -0.1750 -0.1794
 8625W        W25473   9.024  11.190  14.512  0.0314  0.0093 -0.1024
 8626W        W25474   8.897   0.461   0.251 -0.1456  0.1109  0.2942
 8627W        W25475   5.598   8.069  13.253 -0.0664  0.0823  0.2264
 8628W        W25476  17.860   6.162  13.112  0.2905 -0.2037  0.1462
 8629W        W25477  12.284   8.944   2.440 -0.0429  0.4196 -0.2066
 8630W        W25478   0.404  15.662  15.340  0.1259  0.1612 -0.1918
 8631W        W25479   8.986   7.106   2.563 -0.2739 -0.1012 -0.0052
 8632W        W25480   0.650  14.285   3.231 -0.1520 -0.1109 -0.0958
 8633W        W25481  17.832   7.589  15.259  0.4637 -0.0570 -0.2225
 8634W        W25482   4.080   1.982   4.665  0.3232  0.1462 -0.1496
 8635W        W25483  15.305   5.896  15.836 -0.0783 -0.1555 -0.0119
 8636W        W25484  13.452  17.713  11.005 -0.0293  0.0583  0.2728
 8637W        W25485   8.629   3.357   2.268  0.1624 -0.1071 -0.0146
 8638W        W25486  12.398  16.093  10.413  0.1395 -0.1912 -0.1682
 8639W        W25487  15.869   2.893  15.438  0.1714 -0.1668 -0.1010
 8640W        W25488   2.886  11.616   1.540 -0.2047  0.2877 -0.0702
 8641W        W25489  15.884   7.606  13.370 -0.0583 -0.1035 -0.0743
 8642W        W25490   4.313  16.668  12.432  0.0511  0.3299 -0.0822
 8643W        W25491  14.518   4.647   1.235  0.0243 -0.1526 -0.1948
 8644W        W25492  15.042   1.078   0.060  0.3255  0.0534  0.1281
 8645W        W25493   0.216  13.805   1.617  0.2968 -0.0428 -0.0874
 8646W        W25494   1.074   5.514   3.515  0.0831  0.1688 -0.3406
 8647W        W25495   4.387  11.187   4.801 -0.0737  0.3288  0.0072
 8648W        W25496   7.845   7.917  12.985 -0.0966 -0.0362 -0.0169
 8649W        W25497   6.710   0.722   5.415 -0.0685  0.1784  0.1635
 8650W        W25498   2.872   1.935   0.957 -0.1148 -0.1436  0.1051
 8651W        W25499  16.594  15.861  14.843  0.0743  0.1276 -0.1161
 8652W        W25500   6.303   9.665  13.734  0.1680  0.2878  0.0273
 8653W        W25501   7.881   4.198   5.297  0.0472 -0.0768  0.1022
 8654W        W25502   0.354   5.793  12.603  0.3108 -0.2931 -0.2525
 8655W        W25503  11.929   1.990  11.131 -0.1116  0.1734 -0.0562
 8656W        W25504  16.204  13.336   1.249 -0.1067 -0.0151 -0.1856
 8657W        W25505  16.935   7.476   2.094  0.0447  0.3045 -0.1493
 8658W        W25506   1.725  14.021   4.343  0.0548 -0.1265 -0.1251
 8659W        W25507   6.174  11.102  14.635  0.1632  0.1518 -0.2306
 8660W        W25508   0.875  10.660   5.168 -0.3717  0.1413 -0.2017
 8661W        W25509   4.213   9.082  11.235 -0.3759  0.0073 -0.0243
 8662W        W25510   8.628  17.099  12.240  0.1945 -0.1209  0.1975
 8663W        W25511  14.469  12.631   2.194  0.0661 -0.1412 -0.2629
 8664W        W25512  16.616  14.792   3.043  0.1922  0.1031  0.0325
 8665W        W25513   5.092  13.272  15.172  0.1826  0.0773  0.4914
 8666W        W25514  10.346  10.274   1.077 -0.1215  0.3235  0.0158
 8667W        W25515  13.922   0.832  13.650 -0.2622  0.0966 -0.0063
 8668W        W25516  14.602   6.799   4.787 -0.1284  0.2307 -0.1184
 8669W        W25517  13.181   1.329   2.191 -0.1839  0.0574 -0.0944
 8670W        W25518  16.053  16.815  12.664 -0.0908 -0.1507  0.2206
 8671W        W25519   3.203  16.614  15.369 -0.0796 -0.3819 -0.1334
 8672W        W25520   6.293  14.671   2.205  0.1697 -0.0722 -0.0904
 8673W        W25521  16.931   8.682  14.008  0.0408  0.2591 -0.1001
 8674W        W25522   9.771   0.881  15.793  0.3035  0.0534  0.1255
 8675W        W25523   3.711   6.213   5.120  0.2760  0.0195  0.3065
 8676W        W25524   2.499  12.794  15.773  0.1080  0.2476 -0.2272
 8677W        W25525   6.443   7.593   4.156  0.0067 -0.2499 -0.4027
 8678W        W25526  15.684   8.744  12.086  0.0911  0.1141 -0.0071
 8679W        W25527  15.073   7.267  10.349 -0.2298 -0.5046  0.3308
 8680W        W25528   9.680  14.917   0.163 -0.0613 -0.1039  0.2195
 8681W        W25529  13.010   5.195  10.514  0.1274 -0.0627  0.0541
 8682W        W25530   0.310   8.070  12.988 -0.0500 -0.1814  0.1764
 8683W        W25531  11.360   6.490   0.593  0.1904  0.0601  0.3215
 8684W        W25532   2.438   9.651   1.709  0.3675  0.2059 -0.3131
 8685W        W25533   8.657  16.236   2.917 -0.1931  0.0046 -0.0935
 8686W        W25534   1.942   3.398   4.746  0.0986 -0.0834  0.0698
 8687W        W25535  14.386  15.810  13.944 -0.2938 -0.1959 -0.1950
 8688W        W25536   8.628   5.937  11.592  0.0338 -0.1344  0.1685
 8689W        W25537   0.927   3.289   3.510  0.0002 -0.0901 -0.3370
 8690W        W25538   5.199   8.837  13.319  0.0077  0.2197 -0.2487
 8691W        W25539  14.934  14.402   1.517  0.2832  0.1561 -0.2278
 8692W        W25540  15.005   1.179   3.320  0.1086 -0.2219 -0.0115
 8693W        W25541   3.425  17.130  15.607 -0.0747 -0.0105 -0.0081
 8694W        W25542   8.602  12.388   3.976 -0.1035 -0.2853 -0.1065
 8695W        W25543   1.447  11.170  11.444 -0.3084 -0.1356 -0.0924
 8696W        W25544  16.573   0.219  11.548  0.3556 -0.0998  0.1091
 8697W        W25545   1.991   3.645   4.229 -0.0780  0.0257 -0.1712
 8698W        W25546   8.539  10.220   2.835 -0.0405  0.0471 -0.0218
 8699W        W25547   0.932   8.681   1.788 -0.2116  0.2681  0.0408
 8700W        W25548  14.254   5.946  11.657 -0.1765 -0.0153  0.1316
 8701W        W25549   0.611   8.863   2.159 -0.1505  0.0693  0.0124
 8702W        W25550   1.964  15.049   2.815  0.3029  0.0057  0.1843
 8703W        W25551   2.666   0.724   0.225 -0.1082  0.1858  0.0181
 8704W        W25552   0.691   1.473   2.043  0.0677  0.1938 -0.0512
 8705W        W25553  11.504  17.548  12.579  0.1308  0.2102  0.0315
 8706W        W25554  17.060   9.733  12.795  0.1088  0.0809 -0.5304
 8707W        W25555   3.442  13.257  16.115  0.3882  0.1719 -0.3149
 8708W        W25556  12.974  17.784   0.261 -0.0640 -0.1362  0.0073
 8709W        W25557   8.566  16.472  12.956 -0.1154  0.2953 -0.0224
 8710W        W25558  11.366   7.778  15.878  0.3696 -0.2040 -0.3020
 8711W        W25559  16.338   1.421   1.410  0.2911  0.2567 -0.1974
 8712W        W25560   5.859  16.973  12.469 -0.1160  0.0880 -0.1476
 8713W        W25561  11.213  14.796  10.544  0.1500  0.2397 -0.0285
 8714W        W25562   3.708  17.111  13.880 -0.0493  0.1181 -0.0665
 8715W        W25563   8.858   3.523   3.845  0.1163  0.2279  0.2232
 8716W        W25564   3.642   3.804   4.213 -0.0145 -0.0802 -0.2157
 8717W        W25565   2.230   3.122  14.088 -0.1130 -0.0309  0.3214
 8718W        W25566   5.627   5.390  12.982 -0.2531  0.0302  0.0463
 8719W        W25567  13.010   8.922   3.164 -0.1809 -0.1374  0.0886
 8720W        W25568  13.307   6.789   3.418 -0.2614  0.1454  0.2228
 8721W        W25569   9.004  16.068  15.680  0.1582 -0.4288 -0.1015
 8722W        W25570  13.209   5.870   3.439 -0.0163 -0.2167 -0.3368
 8723W        W25571   8.203   3.108  11.044 -0.1118  0.0965  0.2560
 8724W        W25572  12.275  15.845  13.437 -0.1839  0.0521 -0.1052
 8725W        W25573  11.301   1.341   5.950  0.0179 -0.0915  0.1595
 8726W        W25574  17.027  17.538  12.559 -0.2132 -0.2294 -0.3101
 8727W        W25575   9.160  14.257   3.867  0.0487  0.0473  0.0585
 8728W        W25576  17.999   8.399   3.512 -0.4568  0.3187  0.0392
 8729W        W25577   2.868  10.094  15.036  0.1291  0.1390  0.0165
 8730W        W25578  17.928  13.011  11.957 -0.1023 -0.0870  0.1661
 8731W        W25579  14.443   2.831  15.503 -0.2085 -0.2019 -0.2902
 8732W        W25580  17.430   7.062   2.264 -0.1501 -0.1010  0.1109
 8733W        W25581   9.316  17.532  13.525 -0.0613  0.1167  0.1528
 8734W        W25582   4.791   0.819   2.842 -0.0808  0.1634 -0.0249
 8735W        W25583   2.430   2.890   0.280 -0.1867 -0.2194  0.1626
 8736W        W25584  15.151  15.836  10.863 -0.1636  0.1525  0.1369
 8737W        W25585   6.260   3.846   0.462  0.0038 -0.2587  0.2692
 8738W        W25586  13.665  12.380   0.685 -0.3107  0.0618 -0.0533
 8739W        W25587  11.668  11.710   0.883  0.0149  0.0230  0.0239
 8740W        W25588   1.756   5.150   5.674 -0.0129 -0.1061  0.2887
 8741W        W25589   3.312   5.566   4.689  0.0265  0.1905 -0.0225
 8742W        W25590   7.518  10.322  13.353 -0.0995  0.2287 -0.0955
 8743W        W25591  10.473  15.576  14.811  0.1433 -0.2452 -0.2305
 8744W        W25592   8.981   6.230   4.299  0.0813  0.1401 -0.2261
 8745W        W25593  13.091  15.627   1.048  0.3040 -0.0803  0.1956
 8746W        W25594   6.353   6.083  14.089 -0.4566  0.1397  0.3581
 8747W        W25595   3.000  15.341   1.458 -0.0828 -0.1819 -0.0231
 8748W        W25596   9.714   0.540   3.726  0.1701  0.0897  0.2618
 8749W        W25597   0.099  15.479  11.051 -0.1058 -0.0097  0.3831
 8750W        W25598  17.916   7.744  14.803 -0.2313 -0.0611 -0.6058
 8751W        W25599   3.698  13.238   0.263  0.0450  0.1498 -0.2448
 8752W        W25600  12.697   8.072  14.344 -0.0009 -0.0182 -0.2984
 8753W        W25601  15.696   2.108  11.024 -0.2332  0.1015 -0.4595
 8754W        W25602   8.114  13.613   5.332 -0.2744  0.0015 -0.0840
 8755W        W25603  14.013  12.617  12.610 -0.0417 -0.2697  0.3591
 8756W        W25604   6.856   1.073  12.239 -0.2547  0.1857  0.2079
 8757W        W25605  15.067   3.562   4.075  0.2324  0.2930  0.3173
 8758W        W25606  18.037  11.121   1.481  0.0101 -0.2472 -0.0150
 8759W        W25607  17.351   9.855  15.876 -0.4831  0.1510  0.1131
 8760W        W25608   5.406   7.977   0.200  0.1232  0.1269 -0.3065
 8761W        W25609   0.120  17.230   2.103  0.1024  0.1434 -0.2222
 8762W        W25610  13.627   4.346  14.517  0.2779  0.0881  0.1005
 8763W        W25611  12.644  17.205  15.785 -0.0405  0.0315  0.1195
 8764W        W25612  10.400   2.433   5.033  0.2423  0.1032  0.1769
 8765W        W25613  11.205   0.658   2.143  0.0130  0.3357  0.1818
 8766W        W25614  17.587   8.740  12.105  0.0733 -0.2040  0.3014
 8767W        W25615   4.741  16.098   3.059  0.0464 -0.1108 -0.0488
 8768W        W25616  12.654  17.515   3.550 -0.2623  0.2660 -0.0360
 8769W        W25617  17.286  14.649  15.092  0.1400  0.1423 -0.2155
 8770W        W25618   8.597   7.762  12.255 -0.0486 -0.1134  0.2658
 8771W        W25619  12.138   6.974   1.753  0.2266 -0.0397  0.2099
 8772W        W25620  16.422  17.112  15.997 -0.0626  0.2269  0.0345
 8773W        W25621  14.877  12.975   0.741 -0.0196  0.4831  0.2582
 8774W        W25622   7.367   4.600   3.542  0.2337 -0.0983  0.0293
 8775W        W25623   4.491   7.861   0.135 -0.4757  0.1889 -0.4246
 8776W        W25624  15.759  17.988  14.420 -0.1135 -0.0964  0.0593
 8777W        W25625   7.935  17.002   3.729  0.0343  0.2018  0.0819
 8778W        W25626  16.464   0.176   4.362  0.0698  0.4015 -0.0499
 8779W        W25627  13.900  14.415  13.614 -0.1332 -0.1835 -0.1808
 8780W        W25628  11.572   0.727   3.458 -0.0502 -0.1213 -0.0949
 8781W        W25629   2.437  14.324   4.974  0.3379  0.1064  0.2727
 8782W        W25630   3.420   9.192  11.694 -0.0980 -0.1783 -0.1598
 8783W        W25631   4.605  17.363  16.003  0.1548 -0.1550 -0.1188
 8784W        W25632   4.773  11.557  12.610  0.3167 -0.1043  0.2058
 8785W        W25633   6.260  15.011   5.375  0.0021  0.0385  0.0961
 8786W        W25634   9.089  13.839   0.805  0.3191  0.0954 -0.0415
 8787W        W25635   8.928   5.636  12.086 -0.0558 -0.1820  0.2240
 8788W        W25636  13.676   9.760  15.020 -0.1020  0.1127 -0.2276
 8789W        W25637  12.339  16.867  13.642  0.0579  0.1026  0.1732
 8790W        W25638   9.847  13.917   0.387  0.0412 -0.2289 -0.1556
 8791W        W25639  17.324   2.334  15.886  0.0364  0.1104  0.0338
 8792W        W25640   7.713   3.250   3.769  0.1934 -0.0440  0.0979
 8793W        W25641   4.977   7.547   4.342 -0.1023 -0.1287 -0.2644
 8794W        W25642   0.880   9.887   4.183  0.3853 -0.0467  0.0257
 8795W        W25643   2.872   6.595  15.220  0.1838  0.2339 -0.1117
 8796W        W25644  10.358  10.020  13.861 -0.0391  0.1072 -0.1744
 8797W        W25645   9.063   8.475  14.491  0.1803  0.0862 -0.0925
 8798W        W25646  14.819   8.152   3.726  0.1929 -0.2056  0.0204
 8799W        W25647  14.964   1.853  10.493 -0.1796 -0.0689 -0.1661
 8800W        W25648   8.592  16.755   1.144 -0.2705 -0.1063 -0.2736
 8801W        W25649   3.687   3.948  15.430  0.0428 -0.3776 -0.0702
 8802W        W25650   1.803   9.921   3.873 -0.0644  0.0501  0.0047
 8803W        W25651   8.018   5.212   0.990  0.1695 -0.0187 -0.1152
 8804W        W25652  16.350  12.245  10.970 -0.1312  0.2173 -0.0351
 8805W        W25653   0.511   1.770  14.882  0.0032  0.2279 -0.3333
 8806W        W25654   3.813   9.026   0.174 -0.4185 -0.1230  0.0555
 8807W        W25655  17.002   0.287  14.108 -0.0507 -0.1282 -0.2275
 8808W        W25656  17.591   3.516  12.700  0.0085 -0.0720  0.0915
 8809W        W25657   7.532  13.410   4.530 -0.2861 -0.1273 -0.0904
 8810W        W25658  17.686   8.099   4.493 -0.1679 -0.2025  0.2256
 8811W        W25659   1.889  10.218   2.962 -0.2267  0.0903  0.0623
 8812W        W25660   2.121   5.262  15.445  0.0730 -0.2621  0.1679
 8813W        W25661  14.776  14.913  14.086  0.0873  0.0257 -0.1843
 8814W        W25662   5.077  11.058  13.759 -0.1592  0.0558 -0.0343
 8815W        W25663   7.898   1.868   4.205  0.2545 -0.0885  0.1166
 8816W        W25664   7.812   3.370  16.126  0.2646 -0.1166  0.1229
 8817W        W25665   9.049  14.538  14.832  0.0920  0.2615  0.3830
 8818W        W25666  13.381   2.602   1.728 -0.3905 -0.3812  0.2452
 8819W        W25667   1.781   3.997   4.578 -0.3266 -0.1343  0.1820
 8820W        W25668   0.298  10.951   2.823 -0.2094 -0.3782 -0.1740
 8821W        W25669   3.302  10.786  12.735  0.0175 -0.2628 -0.0700
 8822W        W25670  15.217   6.565   2.787 -0.1375  0.3871 -0.0590
 8823W        W25671   2.302   9.734   4.003 -0.0773  0.0091 -0.0606
 8824W        W25672  12.423   1.161   4.444 -0.2499  0.0398 -0.1373
 8825W        W25673   6.505  17.403  12.735  0.1531 -0.0011  0.2762
 8826W        W25674   7.218  11.242  13.992  0.2018 -0.3003  0.1419
 8827W        W25675  13.737   5.332   3.863 -0.3658  0.2591 -0.1207
 8828W        W25676  11.513   5.510   5.173  0.1757  0.2119 -0.1301
 8829W        W25677  14.349  11.827  16.111 -0.0295 -0.0225 -0.0109
 8830W        W25678   8.315  12.724  16.083 -0.2291  0.0808 -0.3568
 8831W        W25679  10.260  15.495   1.808  0.2562  0.0009  0.1396
 8832W        W25680  17.631  14.548  12.369  0.0032  0.1413 -0.4306
 8833W        W25681   7.601  15.254   1.683 -0.4801  0.0556  0.2130
 8834W        W25682  15.568   0.759   0.855  0.2391  0.0952 -0.1978
 8835W        W25683   5.030   1.154  14.069  0.1327 -0.0932  0.2990
 8836W        W25684  10.226   0.126  14.081  0.2439 -0.1528 -0.0741
 8837W        W25685   0.964  17.410   1.017  0.1259 -0.1156  0.1925
 8838W        W25686   4.647  17.669  13.861  0.3027  0.1007 -0.0169
 8839W        W25687  16.406   4.548   0.856 -0.0196 -0.0875 -0.1775
 8840W        W25688  14.962   7.419   2.397  0.1382  0.1617  0.0878
 8841W        W25689   5.415   7.156   4.493 -0.1405  0.0489 -0.3629
 8842W        W25690   6.403   3.065   1.914  0.3730  0.0350  0.3822
 8843W        W25691  13.920   7.086  15.961  0.0212 -0.0635 -0.0077
 8844W        W25692   7.496  10.957  14.880 -0.1869  0.0828  0.1658
 8845W        W25693   8.491  17.540  12.550  0.2088 -0.1749 -0.0135
 8846W        W25694  16.755   2.916   4.239 -0.0728 -0.1305  0.0927
 8847W        W25695   8.759  15.634  11.671 -0.3130  0.0187  0.2885
 8848W        W25696  15.888  14.707  13.206  0.0189  0.2201  0.2040
 8849W        W25697  14.009  13.573   2.949 -0.0598  0.0739 -0.0542
 8850W        W25698   1.216   1.887   5.712  0.0821  0.1613 -0.0298
 8851W        W25699  12.928   8.358   0.727  0.1711  0.0865 -0.2563
 8852W        W25700  16.275  14.528   1.532 -0.0106  0.0614 -0.1255
 8853W        W25701  15.578   8.237  15.420 -0.1783 -0.0961 -0.0713
 8854W        W25702  11.187   6.139   1.370 -0.2705 -0.0157 -0.0512
 8855W        W25703   6.752  11.100   2.810 -0.4536  0.1195  0.3594
 8856W        W25704  16.507   0.907   0.139  0.1809 -0.0225  0.0469
 8857W        W25705   4.413  13.409   4.214 -0.0826  0.1504  0.2180
 8858W        W25706   8.452   5.862  15.212  0.1868 -0.0216 -0.1655
 8859W        W25707   3.148   2.077   3.485 -0.2017 -0.0745 -0.3702
 8860W        W25708  17.426   4.119   0.746  0.0349 -0.2972 -0.4223
 8861W        W25709   1.170  14.103   0.360  0.0911 -0.0585 -0.0141
 8862W        W25710   0.642  14.767   4.596 -0.1336  0.0500  0.2748
 8863W        W25711  18.014   4.471  14.947  0.1442 -0.0142  0.0646
 8864W        W25712  13.249   6.054  12.309 -0.2999 -0.2854 -0.0108
 8865W        W25713   6.812  13.126  15.068 -0.1078 -0.1377 -0.0970
 8866W        W25714   7.310   7.310   0.309 -0.0395  0.1850  0.0226
 8867W        W25715   7.428   6.338  13.251 -0.0591  0.0436  0.1588
 8868W        W25716  13.970   1.327   1.401 -0.2813  0.1524 -0.0348
 8869W        W25717   9.688   3.167  11.701 -0.0138 -0.1122  0.0868
 8870W        W25718  17.128   0.017   4.956  0.1989 -0.2723  0.3533
 8871W        W25719   0.123  12.571   1.728 -0.2041 -0.1752  0.2564
 8872W        W25720   7.080   3.003  14.737 -0.0838  0.1308  0.0774
 8873W        W25721  13.817   0.093   5.580 -0.1564  0.1369  0.3851
 8874W        W25722  12.584  10.908   1.561  0.1798 -0.3770  0.1155
 8875W        W25723   6.391  13.679  12.867  0.2707 -0.0542  0.0814
 8876W        W25724  12.805  13.497  10.642  0.1572  0.0177 -0.0502
 8877W        W25725  11.386   2.713   0.766  0.1305  0.0396 -0.1865
 8878W        W25726  16.082  17.305  12.540  0.1046  0.0162  0.2353
 8879W        W25727  16.991   9.044   1.590 -0.0848  0.2513  0.0020
 8880W        W25728  16.032  15.313  16.229  0.0040 -0.0334 -0.1713
 8881W        W25729   7.342  15.333   5.241 -0.1639  0.1531 -0.1750
 8882W        W25730   5.555  11.798   1.674  0.1121 -0.1899  0.1404
 8883W        W25731  12.208   5.742  10.639 -0.1292  0.0734  0.1850
 8884W        W25732  14.499  10.945  15.074  0.1992  0.2195 -0.0082
 8885W        W25733   1.210   0.628  12.927  0.2025 -0.1265  0.1390
 8886W        W25734   1.337  13.497   0.355  0.2245  0.0205  0.0032
 8887W        W25735  13.178   4.655   2.156 -0.1063  0.2926  0.1161
 8888W        W25736   6.482   4.908   2.075  0.2046  0.0281  0.0022
 8889W        W25737   2.355  16.251  14.379 -0.0465 -0.4003  0.2516
 8890W        W25738   9.357  17.453  11.395 -0.0994 -0.2668 -0.0507
 8891W        W25739   7.377   3.630  13.040  0.3934  0.0658  0.1396
 8892W        W25740   4.491   7.255   4.431 -0.1654 -0.2001  0.0554
 8893W        W25741  14.670   9.941   0.615 -0.0585 -0.0334 -0.1670
 8894W        W25742  17.919  11.119   4.159  0.1213  0.1199  0.1693
 8895W        W25743  10.294   2.641  16.241 -0.4390  0.1081  0.0211
 8896W        W25744   1.511   2.551  15.194 -0.0284  0.0646  0.0576
 8897W        W25745   4.558   8.712  11.085  0.3109 -0.1056 -0.0464
 8898W        W25746   5.768   1.500   2.069 -0.0222  0.0679 -0.1585
 8899W        W25747   9.702   8.011   0.410  0.2341 -0.0732 -0.0160
 8900W        W25748   7.179  10.706   5.141  0.0997  0.3612  0.2074
 8901W        W25749   5.222   4.880  14.861  0.2307  0.0320 -0.1495
 8902W        W25750   3.298   4.790   1.496 -0.0342 -0.1266  0.0224
 8903W        W25751   9.628  13.255   1.483  0.0669 -0.0263  0.2360
 8904W        W25752   8.645   9.278   0.766 -0.2040  0.0667  0.0259
 8905W        W25753   9.762   0.836  12.111 -0.0879  0.3667  0.0385
 8906W        W25754  16.123   6.018  12.220  0.1665  0.1822  0.1164
 8907W        W25755  14.957   2.074  11.664 -0.2637  0.0819  0.0740
 8908W        W25756  14.888  11.449   0.231  0.2015 -0.0429  0.3738
 8909W        W25757   4.874   8.094   5.022 -0.0351  0.0902  0.0522
 8910W        W25758   8.493   6.831  15.684  0.3016 -0.1910 -0.3635
 8911W        W25759  13.704   5.967   2.996  0.1906  0.0719  0.1023
 8912W        W25760   5.890  16.911   0.447  0.1055  0.0825  0.0273
 8913W        W25761   5.122  15.209  12.481  0.0578 -0.0173 -0.2737
 8914W        W25762   1.860   1.542  12.858 -0.3231  0.2165  0.1409
 8915W        W25763   1.499  11.811  12.860  0.2241 -0.0637 -0.0294
 8916W        W25764   3.949  17.914  16.137 -0.3664  0.0422 -0.3093
 8917W        W25765   3.907  13.417  11.171 -0.3260 -0.1277  0.1175
 8918W        W25766   4.277  13.370   4.938  0.0234 -0.1032  0.0622
 8919W        W25767  17.162  14.635   2.270 -0.2065 -0.3315 -0.2396
 8920W        W25768   9.302   7.396   2.247  0.0358 -0.1429 -0.1225
 8921W        W25769   0.851   8.940  11.950  0.2233  0.1164 -0.1510
 8922W        W25770  14.260   6.157  15.185 -0.0169 -0.0398  0.0088
 8923W        W25771  14.294   3.656  13.103 -0.0578  0.4607 -0.0471
 8924W        W25772  12.287  14.800   2.303 -0.0549  0.0683  0.1999
 8925W        W25773   4.465  12.810  15.362 -0.0057 -0.1184 -0.0128
 8926W        W25774   0.764   9.759   1.949  0.1060 -0.0342 -0.0872
 8927W        W25775  12.500   0.437   3.550  0.3097  0.0827  0.2600
 8928W        W25776  11.609   0.342   1.972 -0.1614 -0.0201  0.0372
 8929W        W25777  17.836   3.901   0.620  0.0467 -0.2877 -0.1673
 8930W        W25778   5.588   4.632   4.728 -0.1390 -0.1873 -0.3685
 8931W        W25779   9.311   8.117   2.772  0.0340  0.0623 -0.0678
 8932W        W25780  14.421  14.042  14.597 -0.2055 -0.2203  0.0471
 8933W        W25781   2.080   1.654  13.261  0.1020  0.0691  0.0023
 8934W        W25782  14.487   6.193   0.481 -0.1115 -0.3038 -0.2168
 8935W        W25783   6.918  13.262  15.981  0.1866 -0.1154 -0.1241
 8936W        W25784   2.669   3.423   2.642  0.2360 -0.2773 -0.2642
 8937W        W25785   9.886  12.878  15.817  0.1710 -0.2835 -0.0578
 8938W        W25786  12.256  14.526   1.502  0.0140  0.0616 -0.3749
 8939W        W25787   6.065  16.361   4.323  0.0078 -0.0760 -0.1546
 8940W        W25788   6.296  17.275  14.456  0.1242  0.1226 -0.1648
 8941W        W25789   2.450  13.895  15.463 -0.2239 -0.0745 -0.2411
 8942W        W25790   3.363   9.620  15.255  0.0717 -0.0818 -0.0370
 8943W        W25791   4.324  14.297  12.538 -0.1654  0.1988  0.1279
 8944W        W25792  14.928   6.590   2.169  0.1146  0.1715 -0.1466
 8945W        W25793   1.499   8.275   5.253 -0.0348  0.1421  0.0722
 8946W        W25794  14.593   8.152  14.507  0.1046  0.1341 -0.1286
 8947W        W25795   8.986  16.293  13.445 -0.0327 -0.3577 -0.0188
 8948W        W25796  16.117  15.235  11.659 -0.3700  0.0463  0.1670
 8949W        W25797   8.887   4.613   0.489  0.1921 -0.0809  0.1895
 8950W        W25798  16.190   1.552  11.974  0.2605 -0.0217 -0.0638
 8951W        W25799   9.489  11.896   2.918 -0.1575  0.0977  0.3300
 8952W        W25800   1.580  10.314   4.025  0.5822  0.1551  0.0235
 8953W        W25801   4.923  12.634  13.504  0.1854 -0.0957 -0.1584
 8954W        W25802   4.926   5.322  12.352  0.1791  0.1566 -0.0176
 8955W        W25803  11.100  14.950   5.089  0.4526  0.1541  0.2289
 8956W        W25804  10.092  15.006  13.622 -0.1106 -0.0785 -0.1633
 8957W        W25805   6.511  13.577  12.149 -0.0352 -0.1338 -0.1175
 8958W        W25806   5.007   3.176  13.432 -0.2781 -0.1195  0.0144
 8959W        W25807   9.475   4.594  13.550  0.0047  0.0016  0.0446
 8960W        W25808   0.741   9.606  14.934 -0.4078 -0.1418  0.0835
 8961W        W25809  12.833  10.764   0.477  0.0260  0.0427  0.3305
 8962W        W25810  11.922  11.008   0.486 -0.1078 -0.4463  0.1224
 8963W        W25811  12.657   1.414  13.729 -0.1004 -0.0709 -0.2054
 8964W        W25812   6.928   5.276  13.668  0.1171 -0.2409 -0.1766
 8965W        W25813   2.207   4.293   0.418 -0.1128  0.0473 -0.1468
 8966W        W25814   8.994   3.218   2.560  0.0622 -0.0539 -0.1552
 8967W        W25815   9.019   1.328   3.427  0.1457  0.1525 -0.0637
 8968W        W25816  14.953   0.622  16.041  0.0394 -0.0446 -0.4049
 8969W        W25817  12.559   4.761  14.355 -0.0888 -0.0227 -0.0624
 8970W        W25818  12.082  17.762   2.574 -0.2274 -0.1013 -0.0725
 8971W        W25819   6.425   4.159  12.961 -0.1203 -0.0903 -0.1189
 8972W        W25820  17.647  12.364  12.971  0.0194  0.1367  0.0151
 8973W        W25821   7.517  13.928  12.796  0.0374 -0.2619  0.1123
 8974W        W25822   3.252   7.345   1.171  0.0405  0.0184  0.1794
 8975W        W25823  11.524   7.446  16.192  0.2298 -0.1016 -0.1793
 8976W        W25824   5.598   9.158  15.842 -0.1857 -0.2223 -0.0356
 8977W        W25825  15.855   6.231   2.334 -0.0387  0.1817  0.4433
 8978W        W25826  17.465   5.743  10.758 -0.0198  0.0644  0.1030
 8979W        W25827   0.063  13.052   4.800  0.0741 -0.0803  0.0600
 8980W        W25828   4.271   7.878   1.057  0.0175  0.1290  0.0318
 8981W        W25829  12.614   5.410   0.405  0.0374 -0.0056 -0.3901
 8982W        W25830   6.230   9.018   4.186  0.2946  0.0808  0.1866
 8983W        W25831   3.808   9.309  12.144  0.3978  0.0786 -0.0650
 8984W        W25832  16.755  13.362   4.955  0.0226 -0.0944 -0.1605
 8985W        W25833   4.085  12.450  13.696  0.4614  0.0935 -0.2682
 8986W        W25834  15.040   0.040   1.053  0.0015 -0.1347 -0.0572
 8987W        W25835   2.432   2.180  14.832  0.1553  0.3184 -0.0161
 8988W        W25836   4.037   5.837   5.839  0.0364  0.1270 -0.4666
 8989W        W25837  12.833   8.981  12.885 -0.0699 -0.1751 -0.0051
 8990W        W25838  12.711   5.240  14.140 -0.0886  0.1307 -0.0295
 8991W        W25839   2.902  17.303  13.909 -0.2616  0.0670 -0.0146
 8992W        W25840  10.567   4.020  13.421 -0.2149 -0.1972  0.0182
 8993W        W25841  17.031   9.305   5.068  0.0134  0.2849 -0.2366
 8994W        W25842   0.997   5.438   1.459  0.1121 -0.0401  0.0741
 8995W        W25843   4.150   1.577  13.110 -0.2753 -0.2965  0.4940
 8996W        W25844   9.411   2.090   0.866 -0.2274  0.0052  0.1339
 8997W        W25845   8.138  13.773  14.587  0.1534  0.2620  0.1766
 8998W        W25846   7.404   4.253   4.483  0.0573 -0.0626  0.0833
 8999W        W25847   4.654  17.464  11.698 -0.0392 -0.2996 -0.1082
 9000W        W25848  12.687  17.836   1.341  0.2283  0.2448 -0.0858
 9001W        W25849  10.527   1.708   3.629  0.6041 -0.2864 -0.0811
 9002W        W25850   6.105  18.016   4.076  0.0461  0.0516  0.1046
 9003W        W25851  13.715  15.129  10.808  0.1532  0.1113 -0.0679
 9004W        W25852   8.047   7.232   0.355 -0.3312 -0.1235 -0.2358
 9005W        W25853   0.757   1.119   1.554  0.6079  0.3582 -0.1757
 9006W        W25854   8.589   7.733  14.257 -0.3719  0.0379  0.1677
 9007W        W25855   8.204  10.601  13.355 -0.0394  0.0104 -0.0503
 9008W        W25856  14.036   2.033  12.111  0.0554  0.0068 -0.0749
 9009W        W25857  12.187   8.665  11.548 -0.2926 -0.0707  0.1401
 9010W        W25858  14.458   1.475   3.053 -0.1437 -0.0894  0.1634
 9011W        W25859   9.531   9.758   2.945 -0.1506  0.1543 -0.1580
 9012W        W25860   8.618   8.506   2.767 -0.0422  0.5050 -0.3641
 9013W        W25861  14.930   5.024  14.389  0.0322 -0.0148 -0.1931
 9014W        W25862  17.739  10.309  12.618  0.0190  0.1193 -0.1124
 9015W        W25863  15.521   3.604   3.913  0.0308  0.2766 -0.1958
 9016W        W25864   9.681  13.729   3.328  0.1694 -0.0486 -0.3353
 9017W        W25865  10.518  10.831  11.727 -0.1348  0.0094 -0.4634
 9018W        W25866   7.094  11.575   0.414  0.1237  0.0187 -0.0356
 9019W        W25867   8.164  16.162  14.873 -0.0712  0.1164  0.3139
 9020W        W25868  14.090   1.441   4.747 -0.1400 -0.0088  0.0377
 9021W        W25869  11.784  12.712  12.474  0.0600 -0.0686  0.0913
 9022W        W25870  12.189  12.865  11.091  0.1753 -0.4572 -0.3596
 9023W        W25871  14.528   6.289   4.563  0.0623  0.0541  0.0212
 9024W        W25872  13.059  11.153  13.019  0.1387 -0.1671  0.2521
 9025W        W25873   3.220   7.074   3.567  0.3177  0.2554  0.2844
 9026W        W25874   8.747   3.439  12.757  0.0205  0.4290  0.2804
 9027W        W25875  10.075   1.609   4.512 -0.1534 -0.1253  0.1350
 9028W        W25876   5.676   6.036  13.554  0.2930 -0.0288  0.0576
 9029W        W25877  11.227   5.429   0.609 -0.0391  0.1873 -0.4591
 9030W        W25878   6.677   1.795   1.832 -0.1065  0.2708  0.0924
 9031W        W25879   7.266  17.407  13.362  0.0768 -0.3087 -0.0671
 9032W        W25880   9.246   3.141  14.513  0.5104 -0.0247 -0.1595
 9033W        W25881  14.798   1.715   2.633 -0.0981  0.0198  0.0553
 9034W        W25882   2.828  14.675  15.892 -0.1037  0.1678 -0.0096
 9035W        W25883   1.809  15.632   1.547 -0.0575 -0.1322 -0.2262
 9036W        W25884   9.878  15.432  14.477  0.1997  0.1811 -0.2356
 9037W        W25885   5.388  14.966   3.358  0.0761  0.0561 -0.2179
 9038W        W25886  15.546   3.022   1.625 -0.4402 -0.0399 -0.1984
 9039W        W25887  10.100   1.719  16.065 -0.0650  0.0101  0.1153
 9040W        W25888   0.455  13.850  15.036 -0.2023 -0.1932 -0.0410
 9041W        W25889  15.966   9.906  11.702  0.0826 -0.2553  0.0287
 9042W        W25890  12.818   0.373  12.740  0.3513 -0.1158 -0.0689
 9043W        W25891   6.872  16.107   2.726 -0.0469 -0.2102  0.2107
 9044W        W25892  14.862   2.549  13.495 -0.2047  0.1427  0.0755
 9045W        W25893  17.455   0.954   4.741  0.3039  0.1775 -0.0489
 9046W        W25894  13.070  15.568  12.859  0.2754  0.0949  0.0464
 9047W        W25895  14.514  13.098   1.960 -0.1093  0.2560 -0.1458
 9048W        W25896  12.613   9.412   1.666  0.3188 -0.1951 -0.2183
 9049W        W25897   6.741  10.541   3.032 -0.1832  0.0985 -0.0552
 9050W        W25898  16.298   8.726  15.734 -0.0477 -0.1828 -0.2558
 9051W        W25899   0.154   9.387   3.454 -0.0013 -0.0757 -0.0594
 9052W        W25900  14.604   9.438  12.019 -0.1085  0.0428 -0.0376
 9053W        W25901   0.199  15.056  11.760  0.1810  0.1231 -0.3963
 9054W        W25902   1.057  14.102   3.971 -0.0946  0.2172  0.0036
 9055W        W25903  10.953   2.620   4.566 -0.0577  0.2374 -0.0718
 9056W        W25904   1.332  13.726  14.594  0.0602 -0.4220  0.1742
 9057W        W25905   0.598   6.856   2.177  0.0219  0.0942 -0.0319
 9058W        W25906  10.186   8.981  11.387  0.0208  0.3643 -0.0575
 9059W        W25907   9.884   9.323  13.460 -0.1819  0.5409 -0.0526
 9060W        W25908   7.144   3.166  13.851 -0.0327  0.0504 -0.0703
 9061W        W25909  13.588   7.394  12.263  0.0132  0.1304 -0.0259
 9062W        W25910  10.132   3.800   4.933  0.0877  0.0030 -0.0623
 9063W        W25911  12.574   4.690  13.690 -0.1133  0.3078 -0.1115
 9064W        W25912   7.507   8.225  13.270  0.0693  0.0846 -0.0400
 9065W        W25913  16.627  15.130  13.044 -0.1160 -0.0974 -0.0132
 9066W        W25914  13.882  13.024  14.994  0.3583 -0.2215 -0.1818
 9067W        W25915  13.969  17.345   5.071  0.0057 -0.0213  0.0450
 9068W        W25916   3.260  11.485  13.959 -0.1380 -0.1505 -0.0963
 9069W        W25917   6.383   5.872  15.654  0.3491 -0.0421 -0.0664
 9070W        W25918  13.085   3.633  14.452 -0.0790 -0.1418 -0.3617
 9071W        W25919  13.369   4.257  15.450  0.1590  0.0640  0.0635
 9072W        W25920  16.436   2.779   3.846 -0.1571  0.1097 -0.0513
 9073W        W25921  15.746   6.934  15.174  0.2187  0.1193 -0.0141
 9074W        W25922  15.070  16.575   4.702  0.1812 -0.1122  0.0497
 9075W        W25923  10.651   4.823   4.162  0.1013  0.0719 -0.1687
 9076W        W25924  16.596   0.043  12.152  0.1078 -0.1183 -0.2049
 9077W        W25925  13.733   9.570   3.276  0.0650 -0.0397 -0.3367
 9078W        W25926  10.437   9.454   0.114  0.2142  0.1204 -0.2477
 9079W        W25927  17.434   9.807  14.830  0.2897  0.2886 -0.0547
 9080W        W25928   7.731  11.866  11.194  0.0881  0.1826 -0.1434
 9081W        W25929   1.996   4.414  13.307  0.1572  0.0480 -0.0905
 9082W        W25930   2.516   6.203   1.057 -0.2129 -0.0250 -0.1744
 9083W        W25931   4.895   9.794  13.312  0.0745  0.0387 -0.0752
 9084W        W25932  11.342   0.209   4.456 -0.3101 -0.0410  0.1784
 9085W        W25933   0.733  16.373  16.084  0.1212  0.3140 -0.2399
 9086W        W25934  11.562   2.514  15.781 -0.0329  0.0131  0.0498
 9087W        W25935   5.265  11.157  15.753 -0.0310 -0.1132 -0.0293
 9088W        W25936   0.586   6.418  10.530 -0.1462  0.1522  0.2434
 9089W        W25937  15.752  17.124  15.376  0.3693 -0.0191  0.2780
 9090W        W25938   4.041   9.607  11.165 -0.0441  0.0074  0.2529
 9091W        W25939  16.809   0.863   4.646  0.0345 -0.1872  0.0450
 9092W        W25940  11.757   5.559   1.936  0.1509  0.2023 -0.0102
 9093W        W25941  15.460   5.209  12.544  0.0394  0.2916  0.0253
 9094W        W25942   5.215   7.057  16.264  0.0747  0.3440  0.2250
 9095W        W25943   2.246   5.091   4.204 -0.1545 -0.1765 -0.1168
 9096W        W25944   3.641   1.458   4.045  0.0306  0.0728  0.2739
 9097W        W25945   9.767   0.683  15.283  0.3274  0.3174  0.1560
 9098W        W25946  14.692   5.825  11.950  0.1505 -0.2638  0.0184
 9099W        W25947   1.190   1.207   0.692  0.0878 -0.2963 -0.3103
 9100W        W25948   8.203   1.013   1.454  0.0194  0.3129  0.2274
 9101W        W25949   0.384   8.503  14.337 -0.2370  0.0303  0.0004
 9102W        W25950   2.244   0.536  15.028  0.1288 -0.4268 -0.0911
 9103W        W25951   8.538  11.063   4.266  0.2265  0.0657  0.2231
 9104W        W25952   7.624   7.181  13.235 -0.2173  0.0075 -0.0559
 9105W        W25953   5.635  13.201  12.433 -0.0405 -0.0171  0.2322
 9106W        W25954  12.182  12.243  14.192 -0.0457 -0.0741 -0.2586
 9107W        W25955  11.930   4.122  13.544 -0.0209  0.1279  0.0173
 9108W        W25956   8.118   2.365   4.310 -0.0809  0.1912  0.3254
 9109W        W25957  16.147   9.650   1.546 -0.2065 -0.1027  0.0267
 9110W        W25958   4.747  18.024   2.970  0.0617  0.0525 -0.0464
 9111W        W25959   2.351  10.436   0.037  0.2430  0.0749  0.1653
 9112W        W25960   8.957  11.493   0.843  0.2385  0.1756 -0.2022
 9113W        W25961  16.577   5.690   1.016  0.0573  0.2574 -0.2027
 9114W        W25962  10.784   4.556   0.079 -0.2263 -0.0196 -0.0833
 9115W        W25963  11.230  10.293   1.632  0.0229  0.0391  0.0367
 9116W        W25964  11.788   6.532   1.951 -0.0193 -0.0145 -0.2354
 9117W        W25965  14.792  17.947   3.698 -0.0589 -0.2295  0.0752
 9118W        W25966   9.853   1.805  15.284 -0.4902 -0.4294 -0.1925
 9119W        W25967   6.714   7.699   2.439 -0.0202  0.0728  0.2093
 9120W        W25968   3.026   1.046   5.334  0.0708 -0.1994 -0.0514
 9121W        W25969   6.896   5.529  11.587 -0.0446 -0.1725  0.0692
 9122W        W25970   8.601   3.170   0.350  0.1460  0.2742  0.3834
 9123W        W25971   9.299   7.015  12.181  0.2852 -0.2957  0.3208
 9124W        W25972   5.602  13.593   4.859  0.4080 -0.2211  0.2533
 9125W        W25973  10.452   8.427  12.364  0.0628 -0.1209 -0.1766
 9126W        W25974   8.951  12.084   4.848  0.1001  0.3324 -0.1851
 9127W        W25975   8.251  16.845   6.367 -0.1133  0.2058  0.1103
 9128W        W25976  15.422  17.886  12.849  0.2640  0.0757 -0.1253
 9129W        W25977   0.731  17.870  12.886 -0.2574  0.1972  0.0794
 9130W        W25978   6.603  14.394   3.878  0.4602  0.1561 -0.2110
 9131W        W25979  17.889  16.473  10.986  0.0957  0.3334  0.2579
 9132W        W25980   2.313  14.795   4.191  0.0560 -0.1087  0.2085
 9133W        W25981   7.670  11.541  13.199 -0.1107 -0.2472 -0.0874
 9134W        W25982  16.935   5.439   2.003  0.0567 -0.1642  0.1353
 9135W        W25983   0.463  14.853  12.607 -0.0317  0.1942 -0.1603
 9136W        W25984  10.540   1.538  15.816  0.1510  0.0053 -0.5115
 9137W        W25985  16.821  15.426   2.524 -0.2472 -0.1948  0.0713
 9138W        W25986  10.395   7.283   3.251 -0.1476 -0.0257 -0.2384
 9139W        W25987  15.568   7.198  14.651 -0.1936 -0.3884 -0.1018
 9140W        W25988  13.658  14.913   3.451 -0.2201  0.0436 -0.0221
 9141W        W25989  17.309   4.193  15.321 -0.1776  0.3544 -0.0664
 9142W        W25990  15.496   8.755   5.371  0.0654 -0.1551 -0.2264
 9143W        W25991  15.009   7.806  15.388 -0.1373  0.0853 -0.2145
 9144W        W25992   5.046   2.181   1.039 -0.3757  0.0291 -0.2803
 9145W        W25993  10.420  13.673   4.302 -0.0220 -0.0317  0.1630
 9146W        W25994  10.421   4.567  12.058 -0.3269  0.1729 -0.0606
 9147W        W25995   8.586  14.670  14.756  0.0567 -0.0272  0.2865
 9148W        W25996   6.179   9.588   4.007 -0.2492  0.0997 -0.0116
 9149W        W25997  14.626  16.091  12.020  0.0820  0.0558 -0.0279
 9150W        W25998   6.352  11.921   2.746  0.3084 -0.1819  0.0850
 9151W        W25999   4.556  18.008  16.001 -0.0073  0.0009  0.2538
 9152W        W26000   9.841   1.250   3.339 -0.3792 -0.2492 -0.0469
 9153W        W26001   3.030  14.902   1.128  0.1005 -0.1088 -0.2044
 9154W        W26002  10.866   7.888   3.085 -0.2683  0.0800  0.0853
 9155W        W26003   4.373   8.711  15.921  0.1493 -0.0933  0.0521
 9156W        W26004   9.814   0.980   2.010 -0.1023 -0.2146  0.0544
 9157W        W26005   7.355  11.699   2.948 -0.5998  0.0048 -0.0889
 9158W        W26006  12.347  16.754   2.703 -0.1302 -0.2854  0.0364
 9159W        W26007  12.596  17.063  12.714  0.0252 -0.1029 -0.4059
 9160W        W26008  11.130   8.957   2.689  0.0449 -0.0494 -0.1501
 9161W        W26009  11.873   2.636  13.736  0.1544  0.2320  0.3346
 9162W        W26010   7.154   4.291  15.184  0.0151 -0.0662  0.0416
 9163W        W26011  15.511  17.488   1.776  0.0529  0.3369 -0.1381
 9164W        W26012  11.766  13.972  12.489  0.3643  0.1417  0.1191
 9165W        W26013   0.639  10.038  15.363 -0.1453 -0.1089  0.1201
 9166W        W26014   8.620  15.361  12.419 -0.4233  0.0167  0.0263
 9167W        W26015   7.770   0.532  15.652 -0.1116 -0.1153 -0.1470
 9168W        W26016   8.517   4.873   3.032  0.1792  0.0734  0.0477
 9169W        W26017   1.454   2.578   0.455  0.0498  0.3601 -0.1661
 9170W        W26018   7.664   2.562   2.482 -0.0372  0.1437 -0.3059
 9171W        W26019   2.532   7.785   3.350  0.1310  0.0621 -0.1476
 9172W        W26020   5.205   2.428  12.534  0.2881  0.0445  0.0755
 9173W        W26021   0.762  11.521  13.928  0.0858 -0.0263  0.2729
 9174W        W26022   3.570   7.905   3.502 -0.1741  0.4544  0.0031
 9175W        W26023  14.511   4.894  14.134  0.1467  0.2430  0.0396
 9176W        W26024  15.141  12.380  14.570  0.0973 -0.2044  0.2070
 9177W        W26025   3.470  17.920   1.475  0.2862 -0.2406 -0.2372
 9178W        W26026  12.142   7.694   4.975 -0.1467 -0.1314  0.1801
 9179W        W26027   2.015   3.965   5.068 -0.4308  0.0534  0.1128
 9180W        W26028  11.937   2.477  11.268  0.2399  0.1666  0.2621
 9181W        W26029   1.564  17.416   2.302  0.4707  0.0016  0.0659
 9182W        W26030   8.048  10.572  15.166 -0.0428 -0.2011 -0.1589
 9183W        W26031   7.172   3.812  11.860 -0.0264 -0.0214  0.1194
 9184W        W26032   3.692   5.490   1.398 -0.0916  0.2209  0.2118
 9185W        W26033  14.083   7.129  13.479 -0.0734  0.2908 -0.0827
 9186W        W26034   1.942   8.039   5.117 -0.2634  0.0463 -0.0153
 9187W        W26035   3.747  16.358  14.587  0.2891 -0.0653  0.4441
 9188W        W26036   9.127  12.595  11.384  0.0521 -0.0177 -0.0849
 9189W        W26037   3.459  13.203   3.264  0.1598  0.1363  0.1528
 9190W        W26038   2.307  15.355   0.346  0.1358 -0.0410 -0.3763
 9191W        W26039   8.644  14.408  13.502  0.3024 -0.0824 -0.0889
 9192W        W26040   9.641   2.276   4.234  0.2131 -0.0706  0.0976
 9193W        W26041   4.148   7.204  14.387  0.2281  0.2520 -0.1265
 9194W        W26042   0.807   5.804   3.123 -0.0502  0.1815 -0.4754
 9195W        W26043   6.888   1.221   5.027  0.0128 -0.1130  0.0401
 9196W        W26044   0.513   7.376  15.997 -0.0132  0.0823 -0.1184
 9197W        W26045  16.679   3.803   0.657 -0.0088 -0.2370  0.0426
 9198W        W26046   0.958  15.199   0.890  0.1097 -0.2613 -0.1834
 9199W        W26047  17.484   9.250  14.815  0.2492  0.2581 -0.1840
 9200W        W26048   6.700   8.911  15.069 -0.2283 -0.0552  0.0538
 9201W        W26049   5.890  17.576   5.052  0.0185  0.0490 -0.0232
 9202W        W26050   3.694   6.879   1.643  0.0342  0.0779  0.1943
 9203W        W26051  13.999   9.795   0.153 -0.1095 -0.1890 -0.0185
 9204W        W26052   2.813   8.792  14.590  0.0322  0.1413  0.1927
 9205W        W26053  15.142   2.096  13.225  0.2205  0.0921  0.0491
 9206W        W26054   6.923  14.056  13.631 -0.1162 -0.0459  0.0587
 9207W        W26055  12.129   2.239   2.125  0.1908 -0.0677 -0.3491
 9208W        W26056  11.146   4.305   1.024  0.0384 -0.2312 -0.4552
 9209W        W26057  14.330   9.337  14.360 -0.1120  0.2975 -0.1085
 9210W        W26058   7.921  15.417  12.107  0.0025  0.2464 -0.1884
 9211W        W26059  17.468   7.027   1.387  0.3031  0.0395  0.3404
 9212W        W26060  17.708   5.328   3.383  0.0268 -0.0663  0.0276
 9213W        W26061   9.656   6.824  10.975  0.1648 -0.1428  0.0398
 9214W        W26062  15.625  12.047  13.247 -0.0946 -0.4902  0.2366
 9215W        W26063  16.341   6.994  14.372  0.1122 -0.1091  0.0394
 9216W        W26064   9.404  12.930  13.317 -0.1117 -0.0904 -0.1232
 9217W        W26065  13.806  15.236  15.151 -0.0130  0.2707 -0.0676
 9218W        W26066   8.800   7.276  16.048 -0.1207  0.1085  0.1857
 9219W        W26067  12.172   7.440  11.185 -0.0057  0.0985 -0.0245
 9220W        W26068   4.558   9.754  11.128  0.2554  0.5532 -0.0264
 9221W        W26069  12.769   3.532  11.632 -0.2948  0.0190  0.4153
 9222W        W26070  16.293   6.676   0.458  0.0956  0.0745  0.1560
 9223W        W26071  13.548   3.212   3.517  0.1637 -0.1703 -0.0311
 9224W        W26072   1.122   1.149   5.037  0.1787 -0.1130  0.1198
 9225W        W26073   0.273   9.760  15.197 -0.0652  0.3236 -0.0432
 9226W        W26074  16.120   3.366  15.256 -0.1457 -0.4035 -0.0159
 9227W        W26075  15.583   2.982  15.827 -0.1587 -0.0792  0.0379
 9228W        W26076   0.303   8.082   5.374 -0.1574 -0.0789  0.0376
 9229W        W26077   5.318  16.808   4.254 -0.3241  0.2201 -0.0278
 9230W        W26078   4.653  17.387  11.215  0.0115 -0.0246 -0.1476
 9231W        W26079   2.552  14.792   3.760  0.1236  0.2016  0.2052
 9232W        W26080  10.241   1.938  15.651  0.2154 -0.0719  0.0456
 9233W        W26081   0.439  14.477  14.958 -0.1933  0.0367  0.0429
 9234W        W26082  12.175   8.562  14.593  0.1963 -0.2997  0.0674
 9235W        W26083   7.642  13.600  10.802  0.0684  0.0930 -0.4039
 9236W        W26084  14.552  16.033   6.025  0.2525 -0.0899  0.1615
 9237W        W26085  11.361  17.228  14.597 -0.0103 -0.0647 -0.0247
 9238W        W26086  15.363   4.690   1.009 -0.2562  0.0685  0.0372
 9239W        W26087   5.783   9.410  11.693  0.0290 -0.0764  0.0127
 9240W        W26088   0.046   4.922  14.365 -0.0536  0.0396 -0.0206
 9241W        W26089  11.368   5.015   4.304  0.5656  0.0065 -0.1566
 9242W        W26090   8.662  16.878   6.091  0.1677 -0.0155 -0.0027
 9243W        W26091   4.236   1.141   4.003  0.0060  0.2666 -0.0867
 9244W        W26092   9.818  12.190  15.268 -0.1441  0.1593 -0.2083
 9245W        W26093  15.985  12.959  13.010  0.0876 -0.3279  0.1553
 9246W        W26094   6.019   7.147   3.570  0.2089 -0.1170 -0.3292
 9247W        W26095  12.054   4.580   3.335  0.1067  0.3610 -0.3300
 9248W        W26096  17.594   1.018   2.445 -0.1395  0.1133 -0.1926
 9249W        W26097  11.358  16.666   5.482 -0.3719  0.1441  0.1386
 9250W        W26098  11.345   9.487  15.040 -0.1018  0.0410 -0.1811
 9251W        W26099  10.970  11.379  12.224 -0.2363  0.0232 -0.0926
 9252W        W26100   2.676   8.150  12.951  0.0215 -0.0406 -0.2228
 9253W        W26101   4.755  17.577  12.317 -0.0109  0.1720  0.1087
 9254W        W26102   5.189  10.190  14.143  0.5068  0.0425 -0.4258
 9255W        W26103   7.833   0.763  14.684 -0.1828  0.3783  0.0227
 9256W        W26104  10.006   9.862  15.344 -0.0384 -0.0904 -0.1579
 9257W        W26105   4.933  14.372  13.075  0.0449 -0.1730 -0.3684
 9258W        W26106  11.519   5.378   3.149 -0.4296  0.2861 -0.0551
 9259W        W26107   4.493  17.000   5.873 -0.1148 -0.0874  0.0387
 9260W        W26108  16.985  11.906  15.871 -0.0804 -0.1079 -0.4323
 9261W        W26109  11.175  11.314   3.734 -0.0126 -0.0018 -0.4605
 9262W        W26110   6.491  10.618  14.853  0.2363 -0.1153  0.0426
 9263W        W26111  16.297   1.301  14.641 -0.0999  0.0037 -0.0137
 9264W        W26112   1.085  11.393   3.427  0.0397 -0.0581 -0.0067
 9265W        W26113   2.677  14.447  13.095  0.1296  0.0645 -0.1098
 9266W        W26114  15.580   4.954   3.634 -0.0075  0.3658  0.0670
 9267W        W26115  15.535  15.399   5.398 -0.1858 -0.0522 -0.2627
 9268W        W26116   2.999  12.423   1.909 -0.1510 -0.0471  0.1752
 9269W        W26117   1.636   7.951  11.190 -0.0487 -0.1921  0.0211
 9270W        W26118  12.856   1.103   4.752  0.0333 -0.1693  0.0286
 9271W        W26119   2.898  10.575  12.460  0.0585  0.0618 -0.3273
 9272W        W26120  10.153   3.086   4.615 -0.0116 -0.0387 -0.0033
 9273W        W26121   2.915   5.383   0.980 -0.0435  0.0834 -0.0794
 9274W        W26122   9.175  12.542   5.150 -0.1661 -0.1955  0.3251
 9275W        W26123   3.752   8.721  12.945  0.2758  0.4844 -0.0713
 9276W        W26124   7.091  12.371  14.807  0.2325  0.0149 -0.3624
 9277W        W26125   0.119   3.337   5.313 -0.3998 -0.0961  0.2009
 9278W        W26126  10.415  10.562  10.057  0.0321  0.0843  0.0465
 9279W        W26127  14.685  10.161  13.801  0.0061  0.0926  0.0162
 9280W        W26128  13.947  15.649  11.529  0.0843 -0.1917  0.0084
 9281W        W26129  13.949   4.444   0.496  0.4048  0.1873  0.1639
 9282W        W26130   6.149   2.790  14.920 -0.3793 -0.0829  0.3279
 9283W        W26131  10.840  13.570  15.117  0.0299 -0.1211  0.0548
 9284W        W26132  10.884  14.727   3.423 -0.0331 -0.1762  0.1160
 9285W        W26133   7.993   3.661   4.699  0.2103 -0.2515  0.0533
 9286W        W26134  14.316  14.007  11.371 -0.2303 -0.0461  0.0658
 9287W        W26135   5.135  16.508   6.414 -0.3975  0.1292  0.4863
 9288W        W26136   8.362  12.249   2.814  0.1577  0.4683 -0.2102
 9289W        W26137   3.427   6.923   2.646  0.0418  0.2578 -0.2898
 9290W        W26138   1.905  17.588  16.140 -0.1381 -0.5029 -0.1277
 9291W        W26139  13.845   9.427  14.209  0.0702  0.0278 -0.1094
 9292W        W26140  16.597  15.253  15.309  0.0777 -0.1991  0.0471
 9293W        W26141   3.410   8.427   0.082 -0.1189 -0.0575 -0.3047
 9294W        W26142  16.019  13.723  14.253 -0.0266 -0.0150  0.1825
 9295W        W26143   8.580  16.660   3.316  0.3704  0.1558 -0.2630
 9296W        W26144   2.840   8.324   3.524 -0.0866  0.0888  0.0828
 9297W        W26145   2.365   2.147   4.974 -0.1825 -0.0415  0.0572
 9298W        W26146   9.995   2.843   1.370  0.1748  0.1768  0.0489
 9299W        W26147   1.567   6.330   4.025 -0.1935 -0.1477 -0.2774
 9300W        W26148   3.869  17.783   5.794  0.1327  0.2006 -0.1720
 9301W        W26149  12.898   2.983  14.185 -0.4992 -0.2614 -0.1298
 9302W        W26150  12.855  15.285  11.790 -0.2643 -0.2298  0.0002
 9303W        W26151   0.748   7.539   3.802  0.2029 -0.1170 -0.0718
 9304W        W26152   1.073  14.470   1.519 -0.5331 -0.1608 -0.3175
 9305W        W26153   1.669   6.006   4.982 -0.0927  0.0983  0.2142
 9306W        W26154   9.884  16.741  16.011 -0.2903 -0.1824  0.2038
 9307W        W26155   7.188  15.749   2.673  0.0204  0.1037  0.2669
 9308W        W26156   5.425   8.154   3.698 -0.0034 -0.1997  0.1220
 9309W        W26157   5.083  10.731   0.961  0.2560 -0.0416  0.2633
 9310W        W26158  10.217  14.562  11.825 -0.0124 -0.0751  0.2694
 9311W        W26159   1.569  11.292   3.203 -0.0313 -0.1374 -0.2679
 9312W        W26160   9.374   1.270  15.690  0.3465 -0.0604  0.0092
 9313W        W26161   7.676  10.280  15.492  0.0517 -0.0472 -0.2434
 9314W        W26162   0.529   8.798  15.069 -0.0711  0.1484 -0.0061
 9315W        W26163   5.456   9.492   4.138 -0.0355  0.3021  0.3473
 9316W        W26164   3.845  12.392   0.707 -0.0359  0.1891  0.0039
 9317W        W26165  10.584   4.536   1.952 -0.3957 -0.0311  0.5139
 9318W        W26166  11.916  17.059  13.300  0.0916 -0.1037 -0.0432
 9319W        W26167  10.872   3.603  12.259 -0.0982  0.0308  0.3642
 9320W        W26168  16.356   2.150  14.907 -0.0828  0.2755 -0.1779
 9321W        W26169   9.499   2.933  12.200 -0.0403 -0.0180  0.0793
 9322W        W26170  11.341  14.164   0.470 -0.0969  0.1227  0.1603
 9323W        W26171  15.824   2.614  13.300 -0.0779  0.0021  0.1705
 9324W        W26172   7.577   6.060   4.361 -0.1805  0.1403 -0.0674
 9325W        W26173  15.933   0.343   2.684 -0.0102 -0.0945  0.3730
 9326W        W26174   9.114   1.775  14.830  0.3050  0.2524  0.3349
 9327W        W26175   8.526  13.830   2.959  0.1126  0.1258 -0.1842
 9328W        W26176   1.896   1.682   0.742  0.1467  0.1147 -0.0154
 9329W        W26177   1.207   6.456  12.910  0.2031  0.4091 -0.2055
 9330W        W26178   4.027   9.300   4.364 -0.2234 -0.1262 -0.0038
 9331W        W26179  17.481  12.880  10.670 -0.2584  0.1042  0.0509
 9332W        W26180  15.277  15.209  11.375  0.0721  0.3852 -0.1602
 9333W        W26181  17.712  15.093   4.467 -0.1762  0.1705 -0.2671
 9334W        W26182   6.570  13.044   3.429 -0.3881 -0.3906 -0.0158
 9335W        W26183   9.950   4.910   1.244 -0.1210 -0.0755  0.0710
 9336W        W26184  17.107  13.449  15.724 -0.3184 -0.2750  0.0060
 9337W        W26185   7.797   0.361   4.943 -0.1151  0.1558  0.1375
 9338W        W26186  17.967  17.929   5.182 -0.2456 -0.2320 -0.0138
 9339W        W26187   8.723   3.082   5.443 -0.1881 -0.1995 -0.0860
 9340W        W26188   0.831  16.705   4.887  0.0067  0.1502 -0.0318
 9341W        W26189  13.595   1.465   1.728 -0.0074 -0.1280 -0.1893
 9342W        W26190   9.563   4.606  14.046  0.1803 -0.1460  0.1716
 9343W        W26191   2.309   4.073   3.280  0.2357  0.0521  0.1581
 9344W        W26192  12.902   0.147  13.365  0.3423  0.0077 -0.1307
 9345W        W26193   1.168   7.926   3.437 -0.1780  0.0031  0.1447
 9346W        W26194  15.969   3.773  12.275  0.1383 -0.1644 -0.3511
 9347W        W26195   1.164  14.429   2.451  0.2030  0.2071 -0.0915
 9348W        W26196  14.242  10.964   2.113  0.1707  0.0246  0.1027
 9349W        W26197   6.959   5.695   2.843  0.1109 -0.0168  0.2647
 9350W        W26198   6.130  12.353   3.303  0.1118 -0.2528 -0.1302
 9351W        W26199  12.141  11.202  13.842  0.1807 -0.0183  0.2285
 9352W        W26200   4.251   1.799   5.130  0.0629  0.1931 -0.1448
 9353W        W26201  12.641   7.255  13.120  0.0735 -0.1620 -0.2423
 9354W        W26202   5.047   8.634   3.542 -0.0705  0.4309 -0.0363
 9355W        W26203  16.460  14.958   0.755 -0.0230 -0.4490  0.0924
 9356W        W26204  12.650   7.116   3.454 -0.1376  0.1652  0.3709
 9357W        W26205   2.164   2.513   3.085  0.1358 -0.2628 -0.0615
 9358W        W26206  10.937   6.633   5.567  0.0972  0.3205 -0.4480
 9359W        W26207   1.788  15.714  12.825  0.1988 -0.2883 -0.0061
 9360W        W26208  15.059  12.924  11.395 -0.5627 -0.1912 -0.1298
 9361W        W26209   2.582  13.626   3.291 -0.0625  0.0440  0.0609
 9362W        W26210  15.300   2.078  14.848 -0.0098 -0.1617  0.1782
 9363W        W26211   1.695   9.239  14.743 -0.0162  0.0310 -0.0474
 9364W        W26212   1.737  13.957   3.354 -0.2169  0.2240  0.1130
 9365W        W26213   7.908  17.555   5.289 -0.1363  0.0910 -0.0217
 9366W        W26214   6.715  13.297   0.521  0.0167 -0.2814  0.1413
 9367W        W26215   7.418   2.270  14.336  0.2133 -0.2244  0.2974
 9368W        W26216   2.120  10.565  15.338  0.1001 -0.1907 -0.1221
 9369W        W26217   4.828   7.505  15.483 -0.0143  0.0512 -0.0303
 9370W        W26218  10.857   2.434   1.492  0.1837  0.3084 -0.2539
 9371W        W26219  14.065   9.123   3.304  0.1027 -0.0627 -0.0505
 9372W        W26220   2.309   5.307  16.012 -0.1258 -0.0251  0.1904
 9373W        W26221   4.793  14.317  12.611  0.0646 -0.2514  0.0628
 9374W        W26222  17.649   6.024   2.880 -0.0992 -0.1324 -0.3180
 9375W        W26223  13.018   0.322   4.275  0.2772 -0.2630  0.2273
 9376W        W26224   8.900  11.058  16.129  0.1186 -0.1033 -0.1058
 9377W        W26225   0.065   5.663  11.584  0.0262 -0.0121  0.1621
 9378W        W26226  11.711   1.922   1.268  0.3881  0.2544 -0.0143
 9379W        W26227  13.636   9.033   4.685  0.2100  0.0776 -0.3970
 9380W        W26228   0.331  14.276  11.960  0.0086 -0.1359 -0.2090
 9381W        W26229   9.032  11.129  14.024 -0.1069  0.0387 -0.0449
 9382W        W26230   0.288   6.892  16.100  0.1205 -0.1303  0.0787
 9383W        W26231   4.111  11.988  15.245  0.0891  0.0472  0.0955
 9384W        W26232   9.292  10.804  15.532 -0.0816 -0.2305 -0.4550
 9385W        W26233  17.582  15.119  11.743 -0.1435  0.0621  0.2447
 9386W        W26234  17.498  10.784   4.809  0.1077  0.2070  0.2048
 9387W        W26235   0.566  13.452  15.553 -0.1521  0.2269  0.0240
 9388W        W26236   6.600   7.701   3.266  0.0158 -0.2490 -0.0972
 9389W        W26237  13.792  12.432  11.838  0.0122 -0.1052 -0.1642
 9390W        W26238   9.513   8.012  12.347 -0.1644 -0.1486 -0.2542
 9391W        W26239   6.603   9.255  13.747 -0.2503  0.0260 -0.0972
 9392W        W26240  17.953  11.295  15.090 -0.0741 -0.1140 -0.0770
 9393W        W26241  10.567  12.825   5.762 -0.3217 -0.0846 -0.2843
 9394W        W26242  10.000   8.529  13.158 -0.1056 -0.1581  0.1604
 9395W        W26243  10.044  15.968  15.522  0.2211  0.1901 -0.2448
 9396W        W26244   8.294  10.788  11.265  0.1107 -0.1242  0.1529
 9397W        W26245  12.745  13.921  16.168  0.1757 -0.0170  0.0393
 9398W        W26246  13.445  12.916  14.685 -0.1039  0.0042 -0.1913
 9399W        W26247  11.600  17.419  11.182  0.0756 -0.0406  0.0908
 9400W        W26248  15.769  14.791  14.886  0.0578  0.0449  0.0377
 9401W        W26249  13.277  16.179  14.601 -0.4190 -0.1890 -0.1615
 9402W        W26250  14.515   1.494   4.451 -0.2132  0.0032 -0.0414
 9403W        W26251  15.717   1.292  13.311  0.1594  0.0159  0.1179
 9404W        W26252  13.497   0.921   0.878 -0.2179  0.0981 -0.1925
 9405W        W26253  11.611   3.917   2.944  0.1163  0.0134  0.3266
 9406W        W26254   7.169   0.079   3.724 -0.1681 -0.0851 -0.4286
 9407W        W26255   2.085   7.993   5.742 -0.0666 -0.1810 -0.3367
 9408W        W26256  14.680   1.549  12.556 -0.2077 -0.0499 -0.0387
 9409W        W26257   5.319   9.171  14.438 -0.3477 -0.1122 -0.1608
 9410W        W26258  12.567  11.433  14.008  0.0201 -0.0195 -0.0788
 9411W        W26259  15.564  10.019  14.143  0.0653 -0.3683 -0.2347
 9412W        W26260   3.658   6.559  12.345 -0.1730  0.0632 -0.2726
 9413W        W26261  12.569   4.654  11.772  0.1381 -0.0777 -0.1856
 9414W        W26262   5.363   3.279   5.231 -0.0414 -0.0047 -0.0929
 9415W        W26263   3.863  16.145   4.239  0.0184  0.2980  0.0264
 9416W        W26264   5.964   4.926   3.786  0.3445  0.0237  0.1753
 9417W        W26265   7.800  12.211   6.261  0.3817 -0.0531  0.3403
 9418W        W26266   6.920   5.369   3.247  0.0511 -0.0816  0.1609
 9419W        W26267  10.722   3.653  10.114 -0.2144 -0.3442 -0.2167
 9420W        W26268  10.266  17.576   1.637  0.1126 -0.2340  0.1231
 9421W        W26269  17.011  12.023  11.905  0.1414  0.0587  0.2159
 9422W        W26270   5.611   7.800  13.772 -0.0411 -0.0097 -0.0195
 9423W        W26271   2.599   1.272   5.275  0.0092  0.2825 -0.0530
 9424W        W26272   7.903   0.098  12.360 -0.0861 -0.0987 -0.0767
 9425W        W26273   0.723   0.236   1.625 -0.1247 -0.1398  0.1128
 9426W        W26274   9.315   7.928   0.053 -0.0677 -0.5060  0.0087
 9427W        W26275   6.378  11.318   1.452  0.0318 -0.3607  0.1534
 9428W        W26276   7.970  13.051  15.263 -0.0617  0.2076  0.0048
 9429W        W26277  15.381   3.730  15.836 -0.3582  0.1228  0.1764
 9430W        W26278   3.626   4.112   1.979  0.2657  0.2555  0.0994
 9431W        W26279  13.501  14.071  12.583  0.1567 -0.1861 -0.1718
 9432W        W26280   5.368   7.460  13.276  0.1835 -0.1145  0.2270
 9433W        W26281   8.328  17.907   1.673  0.1320  0.3595 -0.2613
 9434W        W26282  11.183  11.160   1.762  0.1002 -0.0774 -0.1128
 9435W        W26283   2.420  14.347  11.984  0.2391  0.0561  0.0469
 9436W        W26284  16.273  17.308  12.998 -0.1377  0.3654  0.0995
 9437W        W26285  10.982   0.622  15.068  0.0244 -0.0571 -0.0216
 9438W        W26286   1.358   7.117  15.025 -0.2515  0.1975 -0.0035
 9439W        W26287   9.642   7.609   2.832 -0.4128  0.0701 -0.3726
 9440W        W26288   1.333  17.980  11.928  0.1343  0.0953  0.2439
 9441W        W26289  16.100   5.777   2.017 -0.0186  0.0534 -0.1073
 9442W        W26290  14.395   4.869   1.724 -0.0196 -0.1798  0.0126
 9443W        W26291   9.709   1.211  15.380 -0.0654  0.0204  0.1155
 9444W        W26292   9.320  15.393   0.074 -0.1734  0.1119 -0.2142
 9445W        W26293   8.287   6.771   3.853 -0.0228 -0.1147 -0.1158
 9446W        W26294  17.399  17.082   3.826  0.3578 -0.0163 -0.0695
 9447W        W26295  15.368   7.573  11.372 -0.0028 -0.0244 -0.1007
 9448W        W26296  12.539  10.009  10.104  0.2061  0.4768 -0.1233
 9449W        W26297   5.725  15.957  13.536  0.0794 -0.0357  0.0476
 9450W        W26298  17.195  13.964   5.041 -0.0331  0.2725  0.1788
 9451W        W26299  18.004  14.928  13.663 -0.1615 -0.0032  0.2282
 9452W        W26300   1.697  11.310  14.165  0.0382  0.0624  0.0549
 9453W        W26301   6.080   4.988   1.577  0.1429 -0.2651  0.0594
 9454W        W26302  17.501  14.915   4.986  0.2750  0.1889 -0.1151
 9455W        W26303   9.897   7.248  12.214  0.3168 -0.1427  0.1563
 9456W        W26304   0.896   7.960  12.324 -0.2391  0.0579 -0.3979
 9457W        W26305   5.715   2.441  15.432  0.2573 -0.1390 -0.1510
 9458W        W26306   7.797   0.623  12.938 -0.0936 -0.0358 -0.0314
 9459W        W26307  13.820  17.192  12.584 -0.3778  0.0528  0.5000
 9460W        W26308  14.203   0.063   5.261  0.1376 -0.0229  0.3460
 9461W        W26309   8.500   3.345   0.836 -0.0522 -0.1440 -0.1739
 9462W        W26310   7.162   6.579   0.015 -0.0064 -0.0527 -0.2075
 9463W        W26311   1.968   7.114   1.801  0.0235  0.2846  0.0221
 9464W        W26312   2.760   2.568   2.295 -0.1882 -0.1539  0.1859
 9465W        W26313  10.560  17.668   4.140 -0.0602 -0.1247  0.0829
 9466W        W26314   8.110   7.533  11.610 -0.0720 -0.0464 -0.3475
 9467W        W26315   6.578   0.287  15.929  0.0919  0.1370  0.0721
 9468W        W26316   5.023  17.766  15.430  0.2854 -0.0286 -0.0375
 9469W        W26317  10.263   2.244   3.548 -0.1036 -0.3068  0.2567
 9470W        W26318   4.560  14.471   0.355 -0.3105 -0.1280  0.0241
 9471W        W26319  11.736  11.415  14.152 -0.1050 -0.2384  0.1560
 9472W        W26320  13.142   2.250  14.973  0.0007 -0.0876 -0.0270
 9473W        W26321  15.722   0.867  12.925  0.0180 -0.0156 -0.0334
 9474W        W26322   8.388   0.881   3.292  0.0780  0.1800 -0.2054
 9475W        W26323  17.495   1.823  12.958  0.0986 -0.2319  0.1266
 9476W        W26324  16.870   5.448   5.454  0.0878  0.1102 -0.2521
 9477W        W26325  11.319  12.700  13.681  0.0758 -0.3807 -0.0439
 9478W        W26326  14.872  16.544   4.223  0.1359 -0.1271  0.2242
 9479W        W26327   8.196  14.607  13.260  0.0962 -0.4321 -0.0152
 9480W        W26328   3.560  16.110  13.318  0.0134 -0.1746  0.4282
 9481W        W26329   2.658  13.139   2.535  0.0092 -0.0472 -0.0839
 9482W        W26330  17.658   9.050   5.889  0.0304 -0.2693 -0.1278
 9483W        W26331   8.046  10.111   4.271 -0.2003  0.6199 -0.1789
 9484W        W26332  15.114  17.336   1.439  0.0592 -0.1109  0.0504
 9485W        W26333  11.879  16.682   5.629 -0.0273  0.2927 -0.1268
 9486W        W26334  11.259  11.639   3.367 -0.2776 -0.1356  0.0809
 9487W        W26335  11.740   7.772   1.571  0.2388  0.5295 -0.3589
 9488W        W26336   4.053  11.516  15.682  0.0281 -0.0703 -0.0409
 9489W        W26337  13.431  13.852  12.131 -0.1276 -0.3169  0.1680
 9490W        W26338  13.641  17.618   4.649 -0.2442 -0.0486  0.0910
 9491W        W26339   4.758   2.537  13.825  0.2324  0.0578  0.1011
 9492W        W26340  15.621  14.909  13.555  0.2683 -0.0323 -0.1211
 9493W        W26341  14.035  10.977  13.694 -0.4382  0.3512 -0.3651
 9494W        W26342   3.486   6.579  14.543  0.0122  0.0243  0.1355
 9495W        W26343  15.158  14.647  14.293  0.1557  0.3777 -0.2398
 9496W        W26344   5.743  17.242   1.432  0.0078 -0.2139  0.0281
 9497W        W26345  15.250   6.734  12.438 -0.0850  0.1826 -0.0754
 9498W        W26346   0.466  11.571  13.429 -0.0696 -0.0322  0.2065
 9499W        W26347   3.509   1.261   2.958 -0.4614 -0.1078 -0.3983
 9500W        W26348  12.021   0.669   2.086 -0.1541 -0.0625 -0.1267
 9501W        W26349   9.801  12.141   1.642 -0.1772 -0.0154 -0.0386
 9502W        W26350   5.139  12.156  14.358  0.0057 -0.1395 -0.0543
 9503W        W26351   6.543   4.724   2.600 -0.0461  0.0035  0.0239
 9504W        W26352   2.389   8.972  13.948  0.2335 -0.2086  0.2006
 9505W        W26353   2.322   3.194  12.266  0.2163  0.2443 -0.1557
 9506W        W26354   0.027   3.236   4.767  0.0425  0.0949  0.0025
 9507W        W26355   6.900  17.718  12.449 -0.1399 -0.1618  0.3534
 9508W        W26356  15.788  10.128   0.940 -0.0001 -0.0389  0.0049
 9509W        W26357   0.438   0.985  12.281  0.0537 -0.0380  0.1105
 9510W        W26358   4.720   5.429   0.961 -0.0210  0.2551  0.0602
 9511W        W26359  11.493   1.102   0.319 -0.1052  0.1646 -0.0069
 9512W        W26360   5.291  12.735  15.157 -0.2658  0.2736 -0.0746
 9513W        W26361  17.154  11.459   0.406 -0.1020 -0.1387  0.1909
 9514W        W26362  16.204  15.267   4.424 -0.1167 -0.0474  0.2104
 9515W        W26363   5.401   8.924   1.943  0.4956  0.0205  0.0015
 9516W        W26364  17.048   3.547   3.842  0.0631  0.1155  0.3036
 9517W        W26365   9.474   0.546  10.252 -0.4157 -0.0053  0.3320
 9518W        W26366  17.550   2.537   4.664 -0.2620  0.0445 -0.4158
 9519W        W26367   4.267   9.197   1.586  0.1031  0.0317 -0.0084
 9520W        W26368  11.515   7.715   2.040  0.0912 -0.3221  0.0033
 9521W        W26369   5.884  13.206   2.041  0.0675  0.0620 -0.2819
 9522W        W26370   0.470   2.605  10.515  0.0670 -0.3755  0.4482
 9523W        W26371  13.799   2.449  15.575 -0.3108  0.0539  0.1274
 9524W        W26372   8.111  17.278   1.482  0.0553 -0.0462 -0.1870
 9525W        W26373   0.071   2.437  13.462 -0.0319 -0.2317  0.2172
 9526W        W26374  12.036  13.002  13.193  0.1427 -0.0319 -0.1111
 9527W        W26375  15.572   3.624   1.399  0.1282  0.0763  0.2082
 9528W        W26376   3.679  17.079   0.502 -0.0732 -0.1131  0.2154
 9529W        W26377  11.359   9.083   2.248 -0.0734 -0.0464 -0.2113
 9530W        W26378   4.457  11.128   5.686 -0.1624  0.2171  0.2123
 9531W        W26379   0.407  12.276   1.401 -0.0406 -0.1507 -0.1025
 9532W        W26380   5.327  12.443  11.738 -0.0981 -0.4223  0.0844
 9533W        W26381  11.786  14.451  13.748 -0.3333  0.1056  0.0676
 9534W        W26382   5.324  17.605   3.856  0.0525 -0.0441  0.0988
 9535W        W26383  11.484   0.575  15.336  0.1789 -0.0101 -0.3003
 9536W        W26384   7.088  17.335   5.049  0.1767  0.1135  0.2314
 9537W        W26385   1.433  10.959  12.286  0.1504  0.1971  0.0000
 9538W        W26386   7.137  15.405   0.344 -0.0742  0.1519 -0.1601
 9539W        W26387   1.386   1.669  15.182 -0.1259 -0.1727  0.3952
 9540W        W26388  11.427   8.198  11.140  0.1512 -0.2002 -0.1348
 9541W        W26389   5.395   8.651   5.221  0.2329 -0.1118 -0.0845
 9542W        W26390   6.850   2.672  12.657 -0.3567 -0.6612  0.4190
 9543W        W26391  17.560   1.822   1.811  0.1646  0.2395 -0.0600
 9544W        W26392   9.315   7.700   1.398 -0.0444 -0.0097 -0.1905
 9545W        W26393   6.517   6.848  12.523 -0.2569  0.2185  0.1819
 9546W        W26394   7.574   1.737   2.310 -0.0262  0.0275 -0.1150
 9547W        W26395   5.575  13.260  15.203 -0.3069  0.3271 -0.1601
 9548W        W26396  11.971  13.217   3.708 -0.1556  0.1603 -0.2013
 9549W        W26397   1.084   8.628   0.752 -0.5080 -0.0361  0.1664
 9550W        W26398   4.655  14.356  14.438 -0.0631  0.1140  0.2623
 9551W        W26399   6.478  11.379  11.724  0.1085 -0.0137  0.0668
 9552W        W26400   6.308  15.639   4.135  0.2663  0.2827 -0.1126
 9553W        W26401  10.544  13.406   3.255  0.0647  0.1542 -0.1377
 9554W        W26402   9.266   2.202  13.918 -0.2498  0.0623 -0.0084
 9555W        W26403  12.044  11.453   3.305 -0.0099 -0.1445  0.2088
 9556W        W26404   7.340  15.938  15.273 -0.0079  0.1722  0.2893
 9557W        W26405  15.243   2.362   0.820 -0.1383  0.1425 -0.0811
 9558W        W26406   1.108  15.042  11.291  0.3385 -0.1523 -0.0136
 9559W        W26407   6.633  14.509  12.309 -0.2007 -0.2231 -0.1106
 9560W        W26408  12.390   2.202  11.566 -0.2127  0.1214  0.0968
 9561W        W26409  17.417  11.373  15.819 -0.2350 -0.0604 -0.1772
 9562W        W26410   5.772  16.203   1.573 -0.1312 -0.4292 -0.5182
 9563W        W26411   6.104  12.039  14.963  0.1710  0.1240 -0.1488
 9564W        W26412   5.769   4.292   0.053  0.1876  0.0359  0.1550
 9565W        W26413  17.220  12.453   1.034 -0.0048 -0.2152 -0.3964
 9566W        W26414   3.868   0.988  13.690 -0.1905  0.0603 -0.0535
 9567W        W26415   3.580   5.741  12.399 -0.2257 -0.1126  0.1754
 9568W        W26416  13.727  14.795   4.936  0.4928  0.0051 -0.0780
 9569W        W26417   6.419   5.009   3.924 -0.0496 -0.1266 -0.0652
 9570W        W26418   1.876   7.659  13.637 -0.4105  0.0441  0.0148
 9571W        W26419   9.071   8.946   2.254 -0.0055 -0.2458  0.2301
 9572W        W26420   2.374   1.539  12.633  0.1445 -0.1861  0.1026
 9573W        W26421   7.451  17.736   1.655  0.2207  0.2228 -0.4289
 9574W        W26422  13.220  16.336   2.183  0.0079  0.1027  0.2020
 9575W        W26423   0.816   9.009  11.468  0.0519  0.1622  0.0594
 9576W        W26424   3.663  10.041   3.166 -0.0451  0.0731 -0.0453
 9577W        W26425   2.308   0.545  14.234 -0.0831 -0.3450 -0.1380
 9578W        W26426   1.905   5.331  15.007  0.3483  0.0643  0.1331
 9579W        W26427   1.508  14.630   2.787 -0.3867 -0.1255  0.0444
 9580W        W26428  16.217   7.588  15.745  0.1566  0.2246 -0.1248
 9581W        W26429   4.187   7.778   4.034 -0.0805 -0.1410  0.2108
 9582W        W26430  17.815  13.961  14.524 -0.1926  0.2499  0.0529
 9583W        W26431   2.408  11.398   3.669  0.2178  0.2323  0.0999
 9584W        W26432   3.426  11.375   3.659 -0.0587 -0.2017  0.4760
 9585W        W26433  17.165   8.556  16.139  0.0290  0.0870 -0.0299
 9586W        W26434   8.910   6.429  15.730 -0.0700  0.3852 -0.1006
 9587W        W26435   5.899  12.074   0.156  0.4047 -0.2074  0.1769
 9588W        W26436  13.281  12.746   1.232  0.0537 -0.1176 -0.0506
 9589W        W26437  12.710  14.628   4.511  0.1818  0.2031  0.0825
 9590W        W26438   7.874  17.491  11.856  0.0537  0.1109 -0.2810
 9591W        W26439  11.866  11.839   5.372  0.0888  0.3462  0.2630
 9592W        W26440   4.801   4.342  12.889 -0.3550 -0.2051  0.1009
 9593W        W26441  11.573  10.155   4.717  0.0872 -0.1819 -0.0786
 9594W        W26442   8.280   2.742  12.567 -0.2212 -0.1998 -0.3551
 9595W        W26443  15.849   9.939  14.541 -0.3035  0.0447 -0.1686
 9596W        W26444   1.475  16.213  14.923 -0.2109  0.0590  0.2216
 9597W        W26445   6.309  11.668  12.131  0.0794 -0.2147 -0.1707
 9598W        W26446   8.687  17.924  14.019 -0.0184  0.0582 -0.0158
 9599W        W26447   0.409   9.008   0.664 -0.1174 -0.0052  0.1032
 9600W        W26448   4.526  17.096   0.859 -0.2565 -0.0990  0.1763
 9601W        W26449   4.422  17.404   4.111  0.1781  0.3366 -0.1877
 9602W        W26450   1.220  16.866   1.627  0.3101 -0.0963  0.2103
 9603W        W26451   7.809   4.145   4.813  0.0346 -0.2065 -0.1004
 9604W        W26452   7.240   8.327   2.994  0.0304 -0.0330 -0.2703
 9605W        W26453   8.366  13.453   0.820  0.1930  0.0691 -0.3145
 9606W        W26454  16.786  11.345   0.803 -0.2840  0.3591 -0.3212
 9607W        W26455   9.944  10.481   1.368  0.2373 -0.1695  0.1390
 9608W        W26456   8.867   0.917   0.005  0.1264  0.1418 -0.1187
 9609W        W26457   4.015  12.612   4.653  0.0361  0.1622  0.1000
 9610W        W26458   8.319   4.129   1.776  0.3565  0.5239 -0.3472
 9611W        W26459   7.719   5.400   2.749 -0.2059 -0.3617  0.1011
 9612W        W26460   5.567   5.671   2.760 -0.1540 -0.0050 -0.0201
 9613W        W26461  10.510   7.193   0.968  0.2936  0.0766  0.0356
 9614W        W26462   7.985   4.530   1.850  0.0451  0.0845 -0.2817
 9615W        W26463  14.502  16.173   4.022 -0.0327 -0.0130  0.3373
 9616W        W26464   7.532  13.333   1.449 -0.0414 -0.1476 -0.1343
 9617W        W26465  11.351  13.638   2.823 -0.1609 -0.0281  0.1696
 9618W        W26466  14.949  15.748  15.563  0.0093 -0.0520  0.0693
 9619W        W26467  11.318  17.731   5.817  0.2917 -0.0983  0.2628
 9620W        W26468   4.774  15.379   3.874  0.0961 -0.2820  0.2667
 9621W        W26469  16.575  15.176  13.921 -0.0114 -0.0239 -0.2481
 9622W        W26470  14.035   5.912   4.706 -0.3381  0.2405 -0.0120
 9623W        W26471   8.054  14.153   2.908  0.1162  0.2392  0.1029
 9624W        W26472   2.068  15.838  14.696 -0.2724 -0.2465  0.3450
 9625W        W26473   6.769  14.401  15.908  0.0732  0.0645 -0.0455
 9626W        W26474   4.613   2.404  11.947 -0.0735 -0.2786 -0.1628
 9627W        W26475  17.487   3.951   1.667  0.0159  0.1977 -0.0364
 9628W        W26476  13.556   8.878   0.404 -0.2461  0.0714  0.1202
 9629W        W26477  15.121  10.355  14.235  0.2839  0.2675 -0.0570
 9630W        W26478   0.670   3.913   0.960  0.0778  0.0958  0.0707
 9631W        W26479   2.890  12.298   4.599 -0.0334 -0.2278  0.2453
 9632W        W26480   7.075   8.684  11.670  0.1981  0.0503  0.2351
 9633W        W26481  10.323  12.808  11.802 -0.0780 -0.0206 -0.0716
 9634W        W26482  10.317   0.835   4.551  0.0761 -0.3358 -0.0950
 9635W        W26483   4.057  15.269   2.253  0.0029 -0.0073 -0.4055
 9636W        W26484  12.645  13.493   4.253  0.2279 -0.1069 -0.0220
 9637W        W26485  15.198   8.184  12.225 -0.5848 -0.0124  0.2025
 9638W        W26486  13.446  11.889  12.113  0.0137  0.0318 -0.0011
 9639W        W26487  14.520   5.870  12.569 -0.2233  0.2456 -0.4901
 9640W        W26488   1.886  15.981  15.117  0.1702  0.1030  0.0867
 9641W        W26489   0.933   6.553  11.574 -0.2251  0.0221 -0.1027
 9642W        W26490  14.555   2.042  15.172 -0.2338 -0.1651  0.1673
 9643W        W26491  16.541  13.834  12.119  0.0399  0.1981 -0.2849
 9644W        W26492  10.664   4.742   4.956  0.0366  0.0311 -0.1038
 9645W        W26493   6.384  12.882   0.405 -0.3408  0.1970  0.1185
 9646W        W26494  14.937   6.406   4.302  0.0377 -0.1562  0.0033
 9647W        W26495   0.617   6.262  11.272  0.2088  0.1181 -0.0633
 9648W        W26496  10.956  14.191  15.776 -0.0245 -0.0184  0.0118
 9649W        W26497   7.829  11.584   5.051 -0.1484 -0.2207 -0.2353
 9650W        W26498  13.020   9.420  13.017 -0.1134  0.0893 -0.0482
 9651W        W26499  12.911   5.035  16.020 -0.0977  0.0220 -0.2785
 9652W        W26500  10.796  10.996  11.354 -0.1685  0.1236  0.2453
 9653W        W26501  10.431   8.539  14.968  0.3186 -0.1344 -0.0484
 9654W        W26502  13.362   1.429  15.311  0.1891 -0.4540 -0.0649
 9655W        W26503  14.132  17.489   1.810 -0.2693  0.0283 -0.0489
 9656W        W26504  12.961  10.114   1.956  0.1062 -0.1385  0.1085
 9657W        W26505  11.226   9.206   5.775  0.0860 -0.1411 -0.1531
 9658W        W26506   1.682  10.063  12.421  0.3652 -0.1453 -0.1235
 9659W        W26507  17.171  13.416   5.189  0.0252  0.0845  0.0284
 9660W        W26508  15.325   5.726  12.661  0.0423  0.0742 -0.1966
 9661W        W26509   3.036   4.042  12.452 -0.0612 -0.1251  0.2367
 9662W        W26510   5.031   2.987   2.531 -0.0322 -0.0829 -0.3871
 9663W        W26511   7.543  16.283  12.546  0.1910  0.0127 -0.0393
 9664W        W26512   4.772  12.308   0.661 -0.2837 -0.3800  0.1983
 9665W        W26513  12.463   4.800  13.190 -0.4187 -0.0650  0.1246
 9666W        W26514   0.199   7.165   3.144 -0.2363  0.0048 -0.2267
 9667W        W26515   1.540  17.046   3.257 -0.2665 -0.1764  0.3335
 9668W        W26516   6.205  15.705   0.630 -0.0746 -0.0574 -0.0551
 9669W        W26517   4.282  17.193  11.517  0.0617  0.0410  0.0740
 9670W        W26518  17.973  12.584   3.923  0.1832 -0.0382 -0.1127
 9671W        W26519   4.134  13.811  16.173 -0.2826 -0.2776  0.0446
 9672W        W26520  15.941   8.876   0.213  0.1548  0.0541  0.2785
 9673W        W26521  16.618  10.827   0.820 -0.1185  0.0273  0.1025
 9674W        W26522  10.873   7.683  10.798 -0.0998  0.1234  0.0693
 9675W        W26523   1.789  10.986   1.181  0.2029  0.3232 -0.0008
 9676W        W26524   2.553   7.417  11.558 -0.2379 -0.1397  0.3408
 9677W        W26525   9.006   0.292  12.205  0.4698  0.3740 -0.0636
 9678W        W26526   2.838   9.226  13.995  0.1061 -0.0899 -0.2207
 9679W        W26527   9.791  10.172   0.980 -0.0240  0.0958 -0.2187
 9680W        W26528  10.142  17.519   4.481 -0.2154  0.1898  0.2595
 9681W        W26529  11.379   2.462   0.037 -0.1667  0.0511 -0.2759
 9682W        W26530  13.628   3.860  15.687  0.2400 -0.0570 -0.2711
 9683W        W26531   9.191  11.325   0.391  0.1351  0.0425 -0.3357
 9684W        W26532   8.260  14.096   4.139  0.0833  0.0458 -0.0946
 9685W        W26533  13.322   3.191   2.970  0.1434  0.2308  0.0454
 9686W        W26534  12.099   4.849  14.577  0.2624  0.2019 -0.2863
 9687W        W26535   1.286   7.681   2.065 -0.0849 -0.0013 -0.2878
 9688W        W26536  12.740   4.183   3.836  0.2234 -0.2752 -0.2486
 9689W        W26537  13.374   4.834  16.162 -0.2215  0.1582 -0.2572
 9690W        W26538  16.823   7.412  13.259 -0.3179  0.1670  0.0589
 9691W        W26539   9.624   9.291   0.240 -0.0162  0.0263  0.2666
 9692W        W26540   1.567   4.174   3.036 -0.0445  0.1515 -0.3991
 9693W        W26541  14.920   7.836   1.149 -0.0532  0.1146 -0.0760
 9694W        W26542  10.200   4.121  15.071  0.1307  0.2283  0.0859
 9695W        W26543   4.399  10.076  15.633  0.2519 -0.0804  0.1257
 9696W        W26544   0.619  13.996   2.789  0.3627 -0.0908 -0.1278
 9697W        W26545   3.739   5.941   1.060 -0.0801  0.5020  0.1355
 9698W        W26546  15.113   9.292   1.508 -0.1154  0.0709 -0.4551
 9699W        W26547   7.356  10.230  14.230 -0.3657 -0.1701  0.2141
 9700W        W26548   4.432   9.746   2.726 -0.2282 -0.0854 -0.1366
 9701W        W26549   9.334   6.738   0.367  0.1073  0.0782 -0.2413
 9702W        W26550  13.785  15.316  11.986 -0.2088  0.0654 -0.0462
 9703W        W26551   0.178  11.960  12.062  0.0551 -0.0675  0.0809
 9704W        W26552  17.549   3.126  15.227 -0.0718  0.3371  0.4438
 9705W        W26553  15.633   5.870   3.962 -0.1927  0.0822 -0.0941
 9706W        W26554   5.985  14.419  13.653  0.1553 -0.1267 -0.0044
 9707W        W26555   2.525  14.327   3.554  0.1060  0.0816 -0.1510
 9708W        W26556   6.844   3.493   1.103  0.0911  0.3954 -0.2576
 9709W        W26557  14.957   8.420  14.728  0.2854 -0.0860 -0.1308
 9710W        W26558  12.697   8.727   0.427  0.1690 -0.1081  0.0941
 9711W        W26559  14.012   5.728   0.053  0.0623  0.1028 -0.1598
 9712W        W26560  17.696  15.783  14.468  0.1547 -0.0753 -0.0703
 9713W        W26561   6.276  17.140   3.997  0.3217 -0.0021 -0.2845
 9714W        W26562  13.656   2.833  13.978 -0.3202 -0.1314 -0.0004
 9715W        W26563  17.753  16.117   1.335 -0.0620  0.3186  0.1257
 9716W        W26564   3.965   7.242  15.889  0.1065  0.0021  0.1918
 9717W        W26565  17.250   7.521   1.291 -0.0171 -0.1942  0.1160
 9718W        W26566   4.233  15.398   0.845 -0.1099 -0.1939 -0.0255
 9719W        W26567   9.365  13.159   0.914 -0.1131  0.1686  0.1433
 9720W        W26568  15.917  12.949  11.059 -0.4440 -0.0662 -0.0909
 9721W        W26569   3.799   3.225   4.803  0.0083  0.0320  0.0531
 9722W        W26570   1.485   7.978   4.888 -0.0639  0.2473  0.0267
 9723W        W26571   4.296  10.572  12.030  0.0114  0.3999 -0.1093
 9724W        W26572   3.764   4.703   1.408  0.0025  0.0875 -0.1500
 9725W        W26573   4.864  11.802  10.871 -0.0783 -0.2199  0.1642
 9726W        W26574   4.060  12.748  13.260 -0.1330 -0.2891  0.1972
 9727W        W26575   1.328   7.531  14.074 -0.0393  0.1097 -0.0177
 9728W        W26576   6.052  13.518  16.188  0.0862  0.2300 -0.1618
 9729W        W26577   4.436   2.564   4.691  0.1612  0.1099  0.0007
 9730W        W26578   6.303   7.911  11.680 -0.1020  0.2136  0.0571
 9731W        W26579   2.178  10.609  11.198 -0.0177 -0.3589 -0.1426
 9732W        W26580  11.106   3.833   5.187  0.3247  0.1293  0.0056
 9733W        W26581  16.837  13.676  12.734 -0.2154  0.4426  0.3192
 9734W        W26582  10.871  13.339   3.663 -0.0987  0.2924 -0.0797
 9735W        W26583   7.327   9.598  11.592  0.0790 -0.0306 -0.1345
 9736W        W26584  14.352  11.589   0.722 -0.0851  0.0065 -0.3582
 9737W        W26585  12.468   6.742  10.872  0.1828 -0.0446 -0.0340
 9738W        W26586  15.335  11.393   0.503 -0.0999 -0.0264  0.3193
 9739W        W26587   7.737  13.843  13.644  0.0647 -0.2485 -0.0133
 9740W        W26588  10.724  11.851  15.058 -0.1687 -0.2796  0.2474
 9741W        W26589  12.203   4.517   0.106 -0.0832 -0.0893  0.4631
 9742W        W26590  12.914   4.577  12.275  0.1179 -0.4206  0.0520
 9743W        W26591   3.868   7.882   3.080  0.1336 -0.0984 -0.2834
 9744W        W26592   9.057   7.934   4.812 -0.0857 -0.1101 -0.0001
 9745W        W26593   9.912  14.898   5.310  0.5548  0.3901 -0.0941
 9746W        W26594   4.651   5.533   1.506  0.0948 -0.0826  0.0879
 9747W        W26595   3.642   1.650   0.022  0.1026 -0.0244  0.0660
 9748W        W26596   9.713   9.007  15.633 -0.2056  0.1263  0.0631
 9749W        W26597  13.077   1.802  11.725 -0.0262  0.0800 -0.0354
 9750W        W26598   0.729  10.190   0.105  0.2075 -0.0520  0.0913
 9751W        W26599   5.075  13.039   3.086  0.4144 -0.1116 -0.2816
 9752W        W26600  17.291   1.472  15.688  0.2641 -0.1197 -0.1431
 9753W        W26601   1.866  12.739   2.523  0.2662  0.3291 -0.2212
 9754W        W26602   5.745   5.093   3.285 -0.3265 -0.1518  0.0873
 9755W        W26603   6.444  14.956  12.331  0.1867  0.1468  0.0806
 9756W        W26604   7.370   2.541   1.240 -0.0726 -0.0620 -0.0163
 9757W        W26605   7.654  10.661  14.123  0.0029  0.2485  0.2032
 9758W        W26606  11.242   0.231  14.900 -0.0330  0.2139  0.1350
 9759W        W26607  11.728  12.894  14.570  0.2746  0.1766 -0.3369
 9760W        W26608   9.941   1.616   5.427 -0.3033 -0.0170 -0.2103
 9761W        W26609   2.354   7.851   1.289  0.0128  0.0679 -0.0269
 9762W        W26610   0.359  17.028  13.358  0.1588 -0.0603  0.2224
 9763W        W26611   4.252   5.139  15.968 -0.0667 -0.2661 -0.1513
 9764W        W26612   7.198   3.724   1.695 -0.0568  0.1976 -0.0945
 9765W        W26613   6.476  14.153  12.760  0.0696  0.0552 -0.2162
 9766W        W26614   8.534  16.952  14.514 -0.1318 -0.0109 -0.0441
 9767W        W26615   0.496   3.445   4.893  0.4085 -0.3211 -0.1330
 9768W        W26616  16.504  18.017   3.100 -0.1190  0.0275 -0.0607
 9769W        W26617   2.826   5.172   1.480 -0.0748  0.1783  0.0415
 9770W        W26618   8.646   8.162  12.775 -0.3990  0.1637  0.1440
 9771W        W26619   6.625   4.796  14.430 -0.1425 -0.0592 -0.0597
 9772W        W26620   9.035   8.499   1.992 -0.2347  0.0021 -0.1404
 9773W        W26621  11.187   4.797   3.148  0.1957  0.1431 -0.0128
 9774W        W26622   4.361  15.364  15.823 -0.2083  0.2144  0.3144
 9775W        W26623  16.438   7.686  14.962  0.0806  0.1137 -0.0510
 9776W        W26624   8.114  16.041  14.397 -0.0823 -0.1601 -0.2058
 9777W        W26625  10.065   2.734  14.057 -0.1507 -0.0410  0.0653
 9778W        W26626  16.119  16.238  12.234  0.1537 -0.0465 -0.1753
 9779W        W26627   2.556   7.630   0.375  0.2755  0.0857 -0.1597
 9780W        W26628   3.555  10.730   4.279  0.0253  0.1400 -0.0228
 9781W        W26629   1.327  15.383  13.408 -0.1739  0.4437 -0.0393
 9782W        W26630   3.052  10.743   4.250 -0.1505  0.1612  0.0547
 9783W        W26631   1.635  13.209  11.016  0.4688 -0.1076 -0.0377
 9784W        W26632   0.734   3.994  16.195 -0.1923  0.1123 -0.4163
 9785W        W26633  10.497  12.324   2.049  0.0685  0.0603 -0.2518
 9786W        W26634  11.081   4.519   0.577  0.0381 -0.2057  0.1042
 9787W        W26635   1.738   2.782  12.579  0.1587  0.2082  0.2969
 9788W        W26636   0.053   2.025   0.323  0.1394  0.3570 -0.1570
 9789W        W26637   8.747   7.935   0.034  0.0926 -0.2770 -0.2999
 9790W        W26638  17.996  17.256  13.271  0.0486  0.0192  0.1082
 9791W        W26639  13.009   5.957  15.428 -0.2664  0.0251 -0.1685
 9792W        W26640  17.043  10.559   1.781 -0.2909  0.2004  0.1942
 9793W        W26641   5.519  13.090  13.782 -0.3374 -0.0309 -0.2322
 9794W        W26642   2.822  14.802   1.586 -0.1572  0.0171  0.0861
 9795W        W26643   3.086   6.399  14.270 -0.3030  0.1073  0.1033
 9796W        W26644  17.432   8.040  13.483  0.0622 -0.0147  0.0362
 9797W        W26645  16.039   9.559  15.236  0.3631 -0.1720  0.1124
 9798W        W26646  13.360  14.454  11.674 -0.2677 -0.1274 -0.1838
 9799W        W26647   5.756   0.973  14.399 -0.0214  0.0834 -0.1564
 9800W        W26648  10.572  13.195  13.970 -0.0021 -0.0984 -0.2792
 9801W        W26649   8.754   2.343  13.679  0.0867  0.0269  0.1216
 9802W        W26650   9.057   9.457   3.852 -0.2270  0.0684  0.0575
 9803W        W26651   6.315  13.993   1.020  0.1288  0.0223 -0.1776
 9804W        W26652   0.275   0.456  14.341 -0.0247  0.0207 -0.1002
 9805W        W26653   7.445  11.563   4.626 -0.2050 -0.0472 -0.2656
 9806W        W26654  10.482  13.500  12.193 -0.2738  0.0313  0.0302
 9807W        W26655   7.854   5.429  14.977 -0.2664  0.1450  0.3083
 9808W        W26656  16.635   1.223   2.492  0.2335 -0.2178  0.0212
 9809W        W26657  11.128   3.742   1.780  0.1106 -0.0343 -0.0251
 9810W        W26658   4.507  14.118  11.169  0.3658 -0.2599  0.1852
 9811W        W26659   4.446  16.180   2.461  0.0323 -0.2376  0.1642
 9812W        W26660  14.836   0.566  14.838  0.1130  0.2733 -0.1696
 9813W        W26661   2.690  12.469  13.006  0.0227 -0.2056  0.0644
 9814W        W26662   6.121   9.429  13.339 -0.2803 -0.0934  0.2649
 9815W        W26663  13.594  16.170  12.373 -0.0918 -0.1438 -0.1610
 9816W        W26664   1.526   3.211   0.360 -0.3317 -0.0266  0.1789
 9817W        W26665   2.848  14.570   0.344  0.3324  0.0621 -0.2256
 9818W        W26666  12.935  14.268  11.420  0.2474 -0.1924  0.1173
 9819W        W26667  10.090   6.766   1.086 -0.2443 -0.0003  0.0145
 9820W        W26668   2.279  11.947  15.294 -0.0639 -0.0248  0.2550
 9821W        W26669  12.197  11.204  13.301  0.1651 -0.1326 -0.1983
 9822W        W26670   1.016   8.694  12.846 -0.2938 -0.0105  0.1139
 9823W        W26671   2.411   4.890  10.912  0.0078 -0.3925  0.0062
 9824W        W26672   0.994  13.731   1.050 -0.0629  0.0976  0.0117
 9825W        W26673   9.930  16.864  14.069  0.1754 -0.1848 -0.0211
 9826W        W26674   0.850  11.890  14.322  0.0021  0.0593  0.0473
 9827W        W26675   8.628   5.268  14.517  0.4217 -0.0793  0.2461
 9828W        W26676   0.402   5.774  13.900  0.1674  0.1797  0.1560
 9829W        W26677  13.966   0.556  11.516  0.2132 -0.0077  0.1623
 9830W        W26678  15.507  16.452   5.209  0.1593 -0.2472  0.4798
 9831W        W26679  12.765  14.289   3.460  0.0946  0.1717  0.0264
 9832W        W26680   0.034   7.446   4.524  0.3755  0.0007 -0.2299
 9833W        W26681  15.679  14.739   3.063  0.0669  0.1458  0.1260
 9834W        W26682   3.706   3.659  11.332  0.1963 -0.1109 -0.4323
 9835W        W26683  15.257  17.812  10.330 -0.1824 -0.1847  0.0699
 9836W        W26684  12.335   4.114   1.329  0.1700  0.2688  0.0218
 9837W        W26685   4.358  17.539   0.913  0.0635  0.0179 -0.1159
 9838W        W26686  15.458  16.736  12.017  0.1663  0.3988  0.1830
 9839W        W26687  13.162   6.180  11.182 -0.1945  0.2009  0.0916
 9840W        W26688  12.351   8.360   0.067  0.0631  0.2018  0.0597
 9841W        W26689   7.173  14.452   1.912  0.0139 -0.2202 -0.1094
 9842W        W26690  15.308   1.698   4.731 -0.1962 -0.1703  0.1047
 9843W        W26691   2.393   3.917  14.774  0.1060  0.2827 -0.2088
 9844W        W26692   2.223   5.855   1.308 -0.2598  0.5965 -0.2488
 9845W        W26693  10.027   4.943  12.179 -0.0605  0.1262  0.3866
 9846W        W26694   3.803   5.246  15.206  0.2176  0.0443 -0.1502
 9847W        W26695   9.944   3.521  11.290 -0.1817  0.1536  0.0615
 9848W        W26696  12.662   2.884   4.459 -0.0346  0.0882  0.1774
 9849W        W26697  15.029  11.480  11.258 -0.1012  0.1460  0.2152
 9850W        W26698  17.036   4.784   0.975 -0.3222  0.1974  0.0609
 9851W        W26699  13.450  10.197   4.643  0.1515  0.0415  0.0062
 9852W        W26700  11.250  11.309   5.915  0.2235 -0.1364  0.1249
 9853W        W26701  10.857   4.110   1.860 -0.3158 -0.2015 -0.0488
 9854W        W26702   3.662   9.654   3.815 -0.0001 -0.0067  0.2145
 9855W        W26703   2.286  14.711   1.697  0.2430 -0.0464  0.1642
 9856W        W26704   4.746  15.285  13.612 -0.0299 -0.0383  0.2405
 9857W        W26705   8.021  13.720   2.632 -0.0305 -0.2000 -0.1215
 9858W        W26706  16.671   7.070  12.893  0.2972  0.1711 -0.0453
 9859W        W26707  11.132  10.479  15.097  0.3476 -0.0538  0.0901
 9860W        W26708  14.867   1.930  15.645 -0.3109 -0.2972 -0.1193
 9861W        W26709   6.525   6.332   3.729  0.1926 -0.0354  0.2527
 9862W        W26710   5.531  10.801   4.348 -0.2954  0.0264  0.0984
 9863W        W26711   3.572   0.971  15.074 -0.0034  0.1031  0.0521
 9864W        W26712  10.380  10.851   4.119  0.0477 -0.0332 -0.0303
 9865W        W26713   6.507  16.833   2.528  0.0089 -0.1526  0.0701
 9866W        W26714   9.126   6.259  10.256 -0.1374 -0.0353 -0.3150
 9867W        W26715  14.014   9.245   4.463  0.1156 -0.0624 -0.1365
 9868W        W26716  17.475  14.252  14.726 -0.4186  0.0067  0.4151
 9869W        W26717   3.719   8.306   3.282 -0.1101  0.0183 -0.0474
 9870W        W26718   8.566   7.223  14.211  0.1814  0.1550  0.1593
 9871W        W26719  13.207  15.598   5.536 -0.1797 -0.1819  0.0725
 9872W        W26720   5.699   0.962   2.748  0.0997 -0.0841 -0.1906
 9873W        W26721   5.610   0.545  11.794  0.0702  0.1238  0.0181
 9874W        W26722  11.037   9.922   6.171  0.3302  0.2129  0.4627
 9875W        W26723   2.085   3.806   1.890  0.0128 -0.1034 -0.1721
 9876W        W26724   4.525   4.840   0.424  0.0607  0.1185  0.0549
 9877W        W26725  14.188  13.896  16.192  0.1069  0.1408 -0.1352
 9878W        W26726  11.073   8.279   2.733 -0.2249 -0.0725 -0.0854
 9879W        W26727   2.438  11.770   3.108 -0.0278  0.2020 -0.1245
 9880W        W26728  15.312   8.449   4.422 -0.2190  0.1283 -0.2277
 9881W        W26729   6.995  17.418   0.780 -0.0395 -0.1412  0.0405
 9882W        W26730   2.306   0.749   2.636  0.1553 -0.3112  0.0205
 9883W        W26731   8.290   9.808  11.720  0.1676  0.1897 -0.0044
 9884W        W26732  14.934  14.473   4.000 -0.1006  0.4499 -0.2225
 9885W        W26733  17.384  17.617   5.108  0.3129  0.1827  0.0329
 9886W        W26734  10.915  12.649  13.057  0.2764 -0.0392 -0.0493
 9887W        W26735   6.117   5.362  11.328 -0.0546 -0.1977  0.1368
 9888W        W26736   4.921  16.444   1.185 -0.0178  0.0167 -0.0091
 9889W        W26737  15.850   7.996   2.651  0.0979  0.2023 -0.0895
 9890W        W26738   9.778   6.578  11.410  0.1792 -0.1101 -0.1353
 9891W        W26739   8.921   8.616  11.566 -0.0195 -0.3239 -0.1911
 9892W        W26740   5.697   7.341   3.085  0.0603 -0.0881  0.0337
 9893W        W26741   6.254   4.027  11.986 -0.0267  0.0524  0.0232
 9894W        W26742  10.579   9.335  11.292 -0.0161  0.1003  0.1523
 9895W        W26743   2.002   6.978   0.773  0.1816 -0.0874 -0.0292
 9896W        W26744   9.194   9.601  14.163 -0.1636 -0.0650  0.2371
 9897W        W26745   7.324   0.793   0.850  0.1049 -0.0847  0.1658
 9898W        W26746   2.495  14.332   1.284  0.3456  0.3740  0.0783
 9899W        W26747   5.375  16.710   4.724  0.0041  0.0335 -0.1970
 9900W        W26748   5.093  14.487  11.689 -0.0487 -0.0738  0.1566
 9901W        W26749  17.629  13.206   4.551  0.1059 -0.0584 -0.1298
 9902W        W26750   1.198   4.803   4.957  0.1104 -0.0588 -0.0543
 9903W        W26751  14.982  13.931   1.752  0.1074  0.0615 -0.1342
 9904W        W26752   7.981  11.390   0.534  0.1642  0.0704  0.0492
 9905W        W26753   1.204  12.753   0.869 -0.3197  0.1914 -0.0596
 9906W        W26754  12.863  15.201  11.230 -0.1907  0.0685  0.1745
 9907W        W26755   7.168   6.132   4.815 -0.0850 -0.0096 -0.0965
 9908W        W26756  15.437  13.529  14.738 -0.0596 -0.3116  0.0049
 9909W        W26757   6.999  10.106  12.121  0.2685  0.2184  0.3089
 9910W        W26758  16.607   7.122   2.780  0.1053 -0.1996 -0.1382
 9911W        W26759   1.824   4.470  12.390 -0.0683 -0.1413  0.2154
 9912W        W26760   9.049  17.149  14.424 -0.2396  0.2259 -0.1374
 9913W        W26761  16.198  11.045   0.486 -0.0028 -0.2752 -0.0778
 9914W        W26762   3.719   4.659   3.324 -0.1648  0.1249  0.2848
 9915W        W26763  11.130   3.008  14.792  0.1230 -0.0123  0.3571
 9916W        W26764   2.744   9.941   4.137  0.0161 -0.2726  0.1288
 9917W        W26765   5.405  11.506  13.382  0.0634 -0.2418  0.0295
 9918W        W26766   6.518  17.146  15.093 -0.0258 -0.1372  0.0203
 9919W        W26767   2.663   0.988  12.173  0.0654  0.1070  0.0950
 9920W        W26768  16.744   4.335  12.071 -0.0608  0.3807 -0.0700
 9921W        W26769  12.000  15.847   3.269 -0.3965  0.0689 -0.0019
 9922W        W26770   3.067  11.280   2.501  0.2306 -0.0972  0.1352
 9923W        W26771  12.147  10.756  11.811  0.3816 -0.0774  0.3687
 9924W        W26772   6.470  13.329  14.163  0.2108  0.0417 -0.0523
 9925W        W26773   4.602   8.285   1.167  0.1368 -0.0333  0.1591
 9926W        W26774   2.231  16.860  11.644 -0.0425 -0.2666 -0.0180
 9927W        W26775  17.534   4.793   0.923  0.2154 -0.0425  0.1393
 9928W        W26776   5.866   8.847   4.644  0.0298 -0.2340 -0.0784
 9929W        W26777   7.518  13.699  14.838  0.0461 -0.1725 -0.4274
 9930W        W26778  13.800  17.261  10.982 -0.0025 -0.0992 -0.1756
 9931W        W26779  13.329   6.227  16.168  0.0268 -0.3318  0.3126
 9932W        W26780   2.680  16.752   5.075  0.1304  0.2974  0.1267
 9933W        W26781  15.377  12.134  16.152 -0.1563 -0.0679  0.1697
 9934W        W26782   4.888   8.740   1.112  0.1856  0.4477  0.0416
 9935W        W26783  10.054   0.097  14.574 -0.0551 -0.3449  0.0850
 9936W        W26784  12.811  14.864  16.214  0.0646  0.0691  0.3048
 9937W        W26785   8.388  13.048  14.898 -0.1185 -0.2413 -0.0494
 9938W        W26786   8.756  11.555   4.300 -0.3496  0.2670  0.0124
 9939W        W26787  14.262  10.935   4.656 -0.0957 -0.0168 -0.3773
 9940W        W26788   1.922  16.098  13.114 -0.0008  0.1124  0.2130
 9941W        W26789   5.977   1.832  12.388 -0.0384 -0.3080 -0.2361
 9942W        W26790  16.831   8.779  15.589  0.2947 -0.1169  0.0170
 9943W        W26791   9.847   0.346   4.540 -0.2044 -0.0391  0.1425
 9944W        W26792   0.655  17.162   3.067 -0.2129  0.0589 -0.1903
 9945W        W26793  15.582  15.318   0.379 -0.1848 -0.2791  0.0755
 9946W        W26794  16.268   9.760  15.668  0.0073  0.3712 -0.0028
 9947W        W26795  15.892   2.867   1.198  0.3442  0.0407  0.0122
 9948W        W26796   8.185  12.855  14.160 -0.0491 -0.0887 -0.0001
 9949W        W26797   2.741  11.053  11.880 -0.1507  0.2498  0.2303
 9950W        W26798  16.099  11.326  12.717 -0.3001  0.0362  0.2338
 9951W        W26799   2.474  17.585   4.630  0.0488  0.0945 -0.2266
 9952W        W26800  13.508   4.759  11.409 -0.0390  0.1560  0.0184
 9953W        W26801   0.571  11.030  15.937  0.0414 -0.1854 -0.1033
 9954W        W26802  13.127   0.726  10.696  0.1242 -0.0470 -0.1050
 9955W        W26803   1.855   0.388   0.266  0.1958 -0.1994 -0.1086
 9956W        W26804   6.674   9.436  15.109  0.0082 -0.2237  0.1048
 9957W        W26805   0.027  12.519  13.324 -0.2429  0.0039  0.2532
 9958W        W26806  17.624   1.898   4.491 -0.2232  0.1864 -0.2653
 9959W        W26807  16.705  15.091   4.573 -0.0790 -0.1927  0.0586
 9960W        W26808  13.434  13.650  15.007 -0.0265  0.0159  0.1544
 9961W        W26809   2.810  17.806   4.250  0.1542 -0.2294 -0.0247
 9962W        W26810   6.794   5.167  14.976  0.0005 -0.2266 -0.0393
 9963W        W26811  15.815  18.036   4.670  0.2583  0.1911  0.1852
 9964W        W26812   5.148  17.705  13.958 -0.1446 -0.0582  0.1655
 9965W        W26813  11.440  13.619   4.569 -0.0171  0.2142  0.0372
 9966W        W26814  12.384   7.468   2.646 -0.0677  0.0703 -0.2576
 9967W        W26815   6.710   8.673  15.475  0.0180 -0.2315 -0.0906
 9968W        W26816   1.569   8.481  12.110  0.0955 -0.0915  0.0886
 9969W        W26817   2.299   9.553   3.437 -0.0567 -0.5390 -0.1382
 9970W        W26818   0.911   9.047  15.130 -0.1508  0.0745 -0.0020
 9971W        W26819   9.446  18.004  11.380  0.2325  0.0904 -0.2126
 9972W        W26820  11.942   1.945  15.047 -0.2253  0.2232 -0.3300
 9973W        W26821   3.945  12.103  12.512 -0.0684 -0.2683 -0.2331
 9974W        W26822  17.271  16.070  14.484 -0.0429  0.0564 -0.1299
 9975W        W26823   1.186   7.125   0.228 -0.0964 -0.0762 -0.1736
 9976W        W26824  17.120   5.627  12.049  0.1390  0.2059 -0.1274
 9977W        W26825   4.805   0.171  12.026  0.2217 -0.1854  0.0716
 9978W        W26826   1.282   1.330   3.291  0.1348  0.1372  0.1146
 9979W        W26827  15.284  11.491  12.824 -0.1722  0.2996  0.3834
 9980W        W26828   8.448   9.030  10.395  0.0966  0.0815 -0.0887
 9981W        W26829  12.305   7.572   3.570 -0.2724 -0.0730  0.2927
 9982W        W26830  11.306  11.124   5.366 -0.2185  0.0271 -0.3505
 9983W        W26831   8.014  16.509  12.809 -0.1687 -0.1286  0.1964
 9984W        W26832  13.031   4.987  11.977  0.3325 -0.1896  0.0861
 9985W        W26833   2.485   0.118  13.920 -0.0669 -0.1452  0.1339
 9986W        W26834  12.265  12.012   4.251 -0.0991 -0.2912 -0.0240
 9987W        W26835   7.545  10.874  12.545 -0.0409 -0.0162  0.0869
 9988W        W26836   7.855   9.258   4.555 -0.0050 -0.0158 -0.0054
 9989W        W26837  14.200  16.949   4.803  0.1808 -0.0050 -0.0277
 9990W        W26838   9.939   6.948   1.711 -0.1427 -0.1156  0.0491
 9991W        W26839  11.319  17.693   0.585 -0.3118  0.1462  0.1255
 9992W        W26840  10.600  14.271   4.296 -0.1247  0.2303  0.3045
 9993W        W26841   6.444   4.766   0.926 -0.3842 -0.0685  0.1946
 9994W        W26842  12.419   6.904  14.604  0.0366 -0.0877  0.0141
 9995W        W26843  13.656  14.039   1.520 -0.2826  0.3221 -0.0761
 9996W        W26844  16.179  11.759  16.210  0.1150  0.1814 -0.0676
 9997W        W26845   3.086  14.828   4.733 -0.0917 -0.0991 -0.1541
 9998W        W26846  14.826  14.649  13.478 -0.3563 -0.4127  0.1747
 9999W        W26847  11.462  12.472  16.250 -0.4182  0.3698 -0.1422
10000W        W26848  10.352  10.579  12.193  0.3056  0.1326 -0.2190
10001W        W26849   0.487  13.100   0.192  0.1578  0.0144  0.1689
10002W        W26850  14.836  16.021   2.720  0.2544 -0.3498  0.0956
10003W        W26851  17.583  17.360   0.049 -0.0936 -0.0568  0.0174
10004W        W26852  16.200  15.501  12.808  0.0312  0.3580  0.2745
10005W        W26853   5.473   9.380   1.231 -0.1144 -0.0565  0.1410
10006W        W26854  15.418  16.864  13.972  0.4417  0.0815  0.0364
10007W        W26855  11.961   3.822  13.101  0.0801 -0.0519 -0.3839
10008W        W26856  11.723  16.425   2.685 -0.1143 -0.2139  0.1506
10009W        W26857   5.060   4.349   2.191  0.2407 -0.0603 -0.0097
10010W        W26858  14.405   9.867  13.153  0.1111 -0.0715 -0.1798
10011W        W26859   1.824   7.136   2.471  0.0270 -0.0693  0.1048
10012W        W26860   6.002   2.088   3.330  0.1669  0.1056 -0.2684
10013W        W26861   4.141   7.580   4.698 -0.3434  0.0750 -0.1155
10014W        W26862  13.948   6.646  11.802  0.2003  0.2495 -0.2591
10015W        W26863  15.436   3.843  13.066  0.0417  0.0817  0.0936
10016W        W26864   3.234   2.691   2.968 -0.2993  0.1677  0.0536
10017W        W26865   4.203   2.432   3.103  0.3067  0.0024 -0.1621
10018W        W26866   0.908  15.212   4.354  0.0363  0.0939  0.5841
10019W        W26867   4.356   4.561   5.981 -0.1063 -0.0959  0.4951
10020W        W26868  17.079  14.581  13.038  0.0301  0.0565 -0.3959
10021W        W26869   9.362   5.462   3.230  0.0792 -0.2643  0.1265
10022W        W26870   2.930   7.314   4.091  0.0909  0.2405  0.2674
10023W        W26871   8.496   0.609  15.859 -0.1265  0.1787 -0.0504
10024W        W26872   8.991  12.844   1.227 -0.3236  0.1551  0.2474
10025W        W26873   5.790   4.742  14.582 -0.3212 -0.0777  0.1483
10026W        W26874   8.155   5.829  11.440 -0.0279 -0.5608  0.1051
10027W        W26875  14.854   5.404   0.994 -0.0261 -0.0303  0.0924
10028W        W26876  14.703   2.675  15.914 -0.1242 -0.3455 -0.2028
10029W        W26877   4.490   6.415   3.532 -0.1010 -0.0257 -0.1201
10030W        W26878  14.101   5.588   1.187  0.0381 -0.0920  0.0036
10031W        W26879  12.860   3.567  12.186 -0.3568 -0.2821 -0.1924
10032W        W26880  14.648   6.047   2.049 -0.2049  0.1676 -0.1176
10033W        W26881  12.041   4.380   0.873 -0.1401 -0.2023 -0.1397
10034W        W26882  14.523   2.026  10.316 -0.1078 -0.2751  0.2188
10035W        W26883  13.514  11.333  14.907  0.2362 -0.0506  0.1013
10036W        W26884  14.394   1.804   4.870 -0.1611 -0.0661 -0.2644
10037W        W26885   2.969   8.675  14.095 -0.0568 -0.0794  0.1986
10038W        W26886  11.164  10.824   0.854  0.0495 -0.4134  0.2641
10039W        W26887   0.681   8.699  11.074 -0.2522 -0.1356 -0.1445
10040W        W26888   4.313  15.867   2.997  0.2273 -0.0626  0.0045
10041W        W26889  10.215   3.781   2.589 -0.0058 -0.0108 -0.2864
10042W        W26890  18.045   8.700  13.986 -0.1946 -0.0806 -0.1028
10043W        W26891  11.165   6.683  12.678  0.0319 -0.1149 -0.0203
10044W        W26892  15.786  15.660  15.275  0.0605  0.0747 -0.0333
10045W        W26893  13.799   5.865  13.781  0.0079 -0.0464 -0.1664
10046W        W26894  14.977   7.885   4.076 -0.2655 -0.1070 -0.1013
10047W        W26895   1.082  13.541  15.753 -0.0639 -0.1791  0.1572
10048W        W26896  14.257   1.438  14.910 -0.2280 -0.3482 -0.3459
10049W        W26897   5.447  16.766  15.810 -0.2065 -0.0767 -0.0316
10050W        W26898  16.806  12.515  11.024  0.3484 -0.0446  0.2335
10051W        W26899  17.119  13.032   0.771 -0.0561 -0.1894 -0.2297
10052W        W26900  12.127   9.130  14.471  0.4691  0.0464  0.0854
10053W        W26901   2.728  10.697  14.783 -0.1145 -0.5597 -0.1715
10054W        W26902  15.579  16.604  15.400 -0.1015 -0.1150  0.2518
10055W        W26903  17.860  13.100  11.037  0.1658 -0.1547 -0.2062
10056W        W26904  14.422   0.784  11.639  0.0278  0.0900 -0.0168
10057W        W26905  16.952  14.184  13.286  0.1737  0.2429  0.0451
10058W        W26906   5.057   4.907  16.111 -0.2981  0.1245  0.0482
10059W        W26907   9.429  15.757   0.436 -0.0781 -0.1111 -0.0041
10060W        W26908   6.974   4.078  14.635 -0.3542 -0.0007 -0.1117
10061W        W26909   6.628   3.510   0.576 -0.0738 -0.0292  0.2746
10062W        W26910  14.652  12.752  13.775 -0.3280  0.0844  0.0908
10063W        W26911   7.101  10.737  14.248  0.0755  0.0882  0.1952
10064W        W26912   6.893  18.039  13.421 -0.2450  0.0383  0.0877
10065W        W26913  15.873   3.802   4.271 -0.1125 -0.1407  0.0743
10066W        W26914  17.035   4.002   5.203  0.0823 -0.0985 -0.1598
10067W        W26915   1.744  17.222   2.794  0.0937  0.0443 -0.2937
10068W        W26916  12.732  12.318  11.672  0.0703 -0.1869 -0.1149
10069W        W26917  10.699   2.525  13.713 -0.1003  0.1244 -0.0288
10070W        W26918  11.632  11.607   2.998  0.3299 -0.0457  0.2815
10071W        W26919  12.787   6.026  12.055 -0.0358  0.0816 -0.1990
10072W        W26920  13.445  13.157  10.695  0.0290  0.0717  0.2549
10073W        W26921   4.536   7.043  15.740 -0.0474  0.4418 -0.0739
10074W        W26922  10.610   8.645  15.933 -0.3596  0.1821  0.1471
10075W        W26923  10.823   5.857  10.775 -0.3097  0.0726 -0.0851
10076W        W26924  13.110  11.544  14.610 -0.2657  0.0620  0.1198
10077W        W26925   4.395  16.196  13.702 -0.0190 -0.0166  0.0808
10078W        W26926  14.250  15.901   4.908 -0.0782 -0.0667 -0.0303
10079W        W26927   7.994  13.962   3.762  0.1883 -0.1870  0.1119
10080W        W26928  11.969  12.559  11.499  0.1113  0.1500 -0.1381
10081W        W26929   3.334   5.197  15.789 -0.1525 -0.0359 -0.0676
10082W        W26930  10.114  16.983   1.141  0.3641 -0.1054  0.1359
10083W        W26931  15.858   1.237   1.600  0.0843  0.3970  0.0543
10084W        W26932   4.813   8.990   6.120 -0.3579 -0.3341  0.1846
10085W        W26933  13.177   9.518   4.496  0.1235  0.0916 -0.4868
10086W        W26934  10.470   7.824  12.578  0.1995  0.1895 -0.0370
10087W        W26935  16.953  15.614   3.525  0.1875 -0.1965  0.1472
10088W        W26936  10.391   8.910  12.302  0.0374 -0.0028 -0.2929
10089W        W26937   0.855  10.309   9.938  0.1554 -0.2396  0.0659
10090W        W26938   7.482  17.311  11.595  0.0150  0.3476 -0.1467
10091W        W26939   5.422   3.394  12.403 -0.2186  0.0957 -0.2260
10092W        W26940  14.749   0.715  13.669 -0.0477 -0.0339  0.3145
10093W        W26941   0.330  16.271   3.099  0.1544  0.1981 -0.0057
10094W        W26942  14.847   5.435  12.373  0.1422  0.3901 -0.0515
10095W        W26943   5.808   6.488  14.705  0.1152  0.0218  0.0937
10096W        W26944   3.223   1.677   2.249 -0.2481  0.0131 -0.3216
10097W        W26945  14.390   9.464   3.176 -0.2039  0.0306  0.2449
10098W        W26946  11.849   5.751  10.192 -0.0126  0.1136 -0.0341
10099W        W26947  15.533  14.438   2.215 -0.3663 -0.1639 -0.0538
10100W        W26948  16.085   3.769   2.795 -0.1877  0.3435 -0.2851
10101W        W26949  17.828  14.503   4.286 -0.0294 -0.3152 -0.2172
10102W        W26950   5.782  10.043   5.337  0.2170  0.1550 -0.2197
10103W        W26951  11.499  11.848  13.374 -0.1468 -0.3313 -0.0431
10104W        W26952  17.948   2.334   3.175 -0.0525 -0.1502  0.0057
10105W        W26953  11.763  11.972  14.218  0.0961 -0.0573 -0.1458
10106W        W26954   7.313   5.130  12.433 -0.2355  0.0673  0.0133
10107W        W26955   1.340  14.643  14.842 -0.3779 -0.3134  0.0338
10108W        W26956   2.563   1.828  13.001  0.1470 -0.0473  0.3497
10109W        W26957   1.323  13.318   0.878  0.1464  0.1465  0.1838
10110W        W26958   9.470  11.619  12.251  0.0404 -0.1606  0.1997
10111W        W26959  13.895  16.491  13.416  0.0506  0.1201  0.1594
10112W        W26960   4.710  13.387  15.505 -0.0285  0.1061 -0.0745
10113W        W26961   8.724   5.680   0.700  0.1037 -0.2357 -0.1294
10114W        W26962  10.372   3.021   1.961  0.0569 -0.1286  0.0910
10115W        W26963   4.540  13.217   3.392  0.0577 -0.0161  0.1845
10116W        W26964  16.169   9.391  11.684  0.1289 -0.1761  0.3181
10117W        W26965  14.989   3.838  11.479  0.1392 -0.1637  0.4768
10118W        W26966  10.749  13.653   2.031 -0.1862  0.0083  0.1498
10119W        W26967   3.135  14.942   2.103 -0.2883 -0.1882 -0.1193
10120W        W26968   0.010   4.091  12.041  0.0016 -0.2218  0.0413
10121W        W26969   0.980   0.397  12.327  0.2973 -0.0189 -0.3259
10122W        W26970  15.839   7.983   1.540  0.0253 -0.2548  0.1369
10123W        W26971   9.325   8.359  14.851 -0.3941  0.2490 -0.1598
10124W        W26972   7.690   7.797  12.498  0.1175 -0.1005 -0.1670
10125W        W26973  16.619   8.295  13.652  0.0389  0.0527 -0.0609
10126W        W26974  15.299   0.077   0.522  0.0710 -0.1462  0.3610
10127W        W26975  16.007   2.150  16.100 -0.0173  0.4761  0.3547
10128W        W26976  17.156   5.597  15.058 -0.0331 -0.1107 -0.1423
10129W        W26977   5.714   2.020  12.926  0.2189  0.1668  0.3724
10130W        W26978  15.856   7.382  11.283  0.0120  0.1423 -0.3889
10131W        W26979  16.967   4.631   0.132 -0.2924  0.0752  0.0272
10132W        W26980   6.501  10.232  12.097  0.2367 -0.2419 -0.1344
10133W        W26981   6.626   6.730   1.683  0.0737 -0.1174  0.0581
10134W        W26982   6.945  14.629   4.153 -0.3227 -0.1417  0.0446
10135W        W26983   6.369   9.909   1.944  0.2214 -0.3097  0.2356
10136W        W26984  11.842  17.126  16.270 -0.0306  0.2334  0.1097
10137W        W26985   2.879   6.907   2.570  0.2801 -0.1821 -0.1643
10138W        W26986   9.328  10.877  13.120  0.1296 -0.2897  0.0562
10139W        W26987   2.079   3.362   3.400  0.2350 -0.0996  0.0812
10140W        W26988  12.672  10.437   0.096  0.0324 -0.1281 -0.1084
10141W        W26989   6.604   9.256  11.933  0.0690 -0.2955 -0.0668
10142W        W26990   0.840  10.959  13.571 -0.4559 -0.1303  0.0668
10143W        W26991   6.084  11.617   1.812 -0.0042 -0.0337  0.0468
10144W        W26992   5.503  14.274  11.549  0.0554  0.0662 -0.1921
10145W        W26993   3.286  14.641  11.270  0.0577  0.0748  0.0217
10146W        W26994  11.272   1.747  13.729  0.1085 -0.1102 -0.0973
10147W        W26995   9.028  12.405  15.794 -0.0569  0.1641 -0.0326
10148W        W26996  13.927   6.199   3.727  0.3624 -0.3132 -0.0125
10149W        W26997  15.666   5.163   3.171  0.0571 -0.1327 -0.0864
10150W        W26998   4.792  10.293   2.604 -0.0969 -0.3244  0.0163
10151W        W26999   2.645   9.184  13.545 -0.3228  0.2545 -0.1796
10152W        W27000   2.867   7.702  16.216  0.1202  0.1132  0.0880
10153W        W27001  16.035  11.712  13.463 -0.2645 -0.0420 -0.0117
10154W        W27002   3.590  10.492  12.958  0.2487  0.0348  0.3667
10155W        W27003  14.399  17.100   3.251 -0.3096 -0.0907  0.2447
10156W        W27004   6.137   0.987   4.544  0.2079 -0.1686  0.2307
10157W        W27005  17.683   5.258   2.219  0.0467 -0.0672  0.2614
10158W        W27006   3.492   7.166   4.079 -0.3539  0.1907  0.4124
10159W        W27007  11.428  15.110  12.729 -0.0380  0.0713  0.6675
10160W        W27008   6.004   5.504  11.823 -0.1521 -0.0644 -0.2162
10161W        W27009   0.148  11.847  10.202  0.0477 -0.0252 -0.1316
10162W        W27010   9.709   5.534   4.816  0.2582 -0.2196 -0.0671
10163W        W27011   1.481  15.372   0.688  0.2122  0.0703 -0.1121
10164W        W27012   3.128  10.081  12.195  0.1176  0.0240 -0.0204
10165W        W27013   9.918  14.974  11.921 -0.0657 -0.2778  0.3280
10166W        W27014  17.711  14.024   1.729  0.1065  0.3814  0.3523
10167W        W27015   8.359   4.757  11.659 -0.0232  0.0650  0.2357
10168W        W27016   8.577   7.841  15.528 -0.2153  0.0971  0.2869
10169W        W27017   6.338  10.898   1.132  0.2586  0.0807 -0.1475
10170W        W27018  16.480   6.009  11.705 -0.1996  0.2408  0.0424
10171W        W27019  10.349   0.120  15.885 -0.1864 -0.0518 -0.0802
10172W        W27020  16.535   2.699  12.953 -0.2330  0.2039 -0.2190
10173W        W27021   8.140   8.403   2.565  0.0547 -0.1457 -0.0291
10174W        W27022  10.998   3.820  11.805 -0.1789  0.0220 -0.3627
10175W        W27023   6.903  15.396   3.442  0.1216  0.0039 -0.0623
10176W        W27024  15.481  10.574   0.298  0.1569 -0.0021 -0.4177
10177W        W27025   8.723  12.410  16.185 -0.0711  0.1293  0.3371
10178W        W27026  15.399   3.514   0.397  0.1288 -0.1174  0.1660
10179W        W27027   9.738  10.637   0.221  0.0493 -0.3218 -0.0598
10180W        W27028   7.323   9.377   5.292 -0.1022  0.1424 -0.1495
10181W        W27029  11.655  11.114   3.177  0.0222 -0.4076 -0.0399
10182W        W27030  14.771   8.810  15.011  0.3099  0.1140 -0.0473
10183W        W27031  17.233  15.256   4.220  0.2092 -0.0890 -0.0953
10184W        W27032   8.883   9.465   3.381 -0.3416  0.1313 -0.0188
10185W        W27033   4.515  14.859  12.408 -0.1938 -0.3043 -0.1184
10186W        W27034   9.865  11.762   1.958 -0.1845  0.4656 -0.0450
10187W        W27035   8.093  10.163   1.755 -0.2043 -0.0228 -0.1061
10188W        W27036  15.927  17.496  13.501  0.0196  0.2559  0.2275
10189W        W27037   1.829   3.830   5.778  0.3151  0.1771 -0.1555
10190W        W27038   2.554   5.340  13.256 -0.2384 -0.0386  0.0632
10191W        W27039   2.492   9.284   4.011  0.0195 -0.0225 -0.0085
10192W        W27040  10.370   0.446   4.280  0.1083  0.1416 -0.1504
10193W        W27041   3.759   4.579   3.805 -0.0449 -0.0360 -0.1014
10194W        W27042   4.484  10.271   4.417 -0.1614 -0.3999  0.1712
10195W        W27043   7.543  15.904   4.546  0.1180 -0.0175 -0.0109
10196W        W27044   8.189  13.046  12.951  0.0368 -0.0714  0.1244
10197W        W27045  17.795   7.782   4.853 -0.1585 -0.0736  0.1860
10198W        W27046   9.768  10.163   2.705 -0.2009  0.4911  0.1342
10199W        W27047  17.348   1.770  13.410  0.1719 -0.0351 -0.0776
10200W        W27048   9.387   0.508   0.042  0.0877 -0.1541  0.2397
10201W        W27049  11.023   1.642  15.258 -0.2425 -0.1062  0.1078
10202W        W27050   3.961   9.059   2.885  0.2102 -0.0691  0.1053
10203W        W27051   3.037  11.025  16.006  0.1119  0.1658  0.1901
10204W        W27052  11.304  14.664  12.503  0.1471 -0.1432 -0.1109
10205W        W27053   0.539   2.099  11.426  0.1835  0.0463  0.2126
10206W        W27054  12.004   3.285   3.113 -0.1125  0.4905 -0.0595
10207W        W27055   6.322   9.688   1.079 -0.2961  0.0478 -0.1929
10208W        W27056  11.874   1.549  13.179 -0.2160 -0.0916 -0.0079
10209W        W27057  14.043  17.602   0.555  0.0784 -0.1733 -0.4552
10210W        W27058   0.036  17.237  15.361  0.4765 -0.0039 -0.1243
10211W        W27059   3.665   9.101  13.387  0.2726 -0.3289  0.1398
10212W        W27060  10.347   6.409   2.148  0.2093  0.0884  0.0853
10213W        W27061   0.904   1.931  15.568  0.2935 -0.1358  0.2994
10214W        W27062   1.020   8.449  12.091  0.1564  0.4409 -0.1586
10215W        W27063  11.784  13.381  13.301  0.3026 -0.1199 -0.1059
10216W        W27064   9.211  17.917   1.461 -0.2519 -0.1019  0.2097
10217W        W27065   9.138   7.359  12.951 -0.0168  0.1527 -0.0972
10218W        W27066   0.105  17.275  13.765  0.3323 -0.0759 -0.2259
10219W        W27067  17.218   1.618  16.176  0.0111  0.1133  0.0322
10220W        W27068  12.572   1.581   4.720  0.4059 -0.0699  0.2197
10221W        W27069   8.565   5.078  13.704  0.1889 -0.3387 -0.0593
10222W        W27070   7.426  13.096  13.549  0.1132 -0.1549  0.0368
10223W        W27071  11.816   3.149  12.448  0.2229  0.0006  0.0229
10224W        W27072   7.808   7.447   1.642  0.1569 -0.3366  0.0637
10225W        W27073   3.137   2.087   4.423  0.0142 -0.4751  0.3527
10226W        W27074   3.026  14.040  15.200 -0.2899 -0.2014 -0.1567
10227W        W27075  18.042   9.470  11.474  0.0991  0.0142  0.1815
10228W        W27076  14.379  11.592   0.240  0.2922 -0.1932  0.2930
10229W        W27077  17.295  17.328  12.976  0.1202  0.0784  0.2246
10230W        W27078  11.881   5.490   0.046 -0.2227  0.0142  0.2469
10231W        W27079   8.998   7.972   4.264  0.2477 -0.2255 -0.2979
10232W        W27080   9.226   5.747  14.004  0.0362  0.0538  0.0549
10233W        W27081   4.710  14.375  15.502  0.0220 -0.1004 -0.0269
10234W        W27082   3.686   6.936  16.142 -0.0499  0.1594 -0.0333
10235W        W27083   3.479  12.502   5.578 -0.2031 -0.3324  0.2650
10236W        W27084  12.771   3.219  10.603  0.5299 -0.3519  0.1920
10237W        W27085  11.316  11.780   3.846  0.1252  0.1893  0.0761
10238W        W27086  17.522  13.062  13.637 -0.0012 -0.0330  0.1127
10239W        W27087  14.855   9.654   0.278 -0.0214  0.0148 -0.0781
10240W        W27088   4.914   2.473   1.809 -0.0978  0.1173 -0.1123
10241W        W27089  10.049   6.966  12.609  0.2088  0.1335 -0.0502
10242W        W27090   1.116  14.228  13.854 -0.4070  0.1919  0.0485
10243W        W27091  14.539   7.092   0.891  0.2041  0.0215  0.1968
10244W        W27092  14.102  12.455   0.464  0.1009  0.0021 -0.0584
10245W        W27093   1.837  13.764  14.212  0.1020  0.0942 -0.0826
10246W        W27094  13.115   3.104   4.538 -0.2530 -0.0594 -0.0981
10247W        W27095  14.828  11.566  14.916  0.0775  0.0802  0.0068
10248W        W27096   6.974  10.014  11.606 -0.2137  0.2243 -0.0489
10249W        W27097   1.197   2.771  14.346  0.1082 -0.0394  0.0717
10250W        W27098  10.593   0.487  11.417 -0.3474  0.0649  0.1076
10251W        W27099   0.672  11.317   0.115 -0.0000  0.1016  0.1693
10252W        W27100   8.124  17.924  11.629  0.2960  0.0623 -0.0483
10253W        W27101   2.669   3.284   1.199 -0.2520  0.1772 -0.0945
10254W        W27102   7.572  15.244   3.553  0.1561 -0.1532  0.0933
10255W        W27103   7.488   3.531  14.722  0.2181 -0.0682 -0.2058
10256W        W27104   4.783  11.421  15.069 -0.1226  0.1866  0.0227
10257W        W27105   4.439   2.362   1.749 -0.0167  0.0512 -0.1207
10258W        W27106   1.626  14.361   0.253 -0.3146  0.2471 -0.0875
10259W        W27107   2.788   5.486  12.564 -0.1837  0.2442 -0.2708
10260W        W27108  12.354  16.174   3.990 -0.1038  0.0142  0.1745
10261W        W27109   9.725   6.444   3.974  0.1955 -0.2027 -0.2198
10262W        W27110  16.036   4.501  12.526 -0.1813 -0.0247  0.2681
10263W        W27111   7.580  16.000   2.576 -0.2283  0.0389  0.2085
10264W        W27112  12.968  17.489  11.550 -0.1017 -0.1370 -0.0527
10265W        W27113   5.510   6.892   0.525  0.0605 -0.0465  0.1263
10266W        W27114   8.020   0.932  15.825  0.0029  0.1574  0.1276
10267W        W27115  11.013  14.021   1.319 -0.1107 -0.0731 -0.1484
10268W        W27116  10.520   0.461  11.944 -0.0004 -0.0022 -0.0348
10269W        W27117   1.642   3.479  13.239 -0.1462 -0.0961 -0.1603
10270W        W27118   2.123  11.918  10.771  0.1035 -0.0247  0.1839
10271W        W27119   6.130   9.074  13.764  0.0956  0.1219  0.0295
10272W        W27120  10.063   7.343   1.085  0.1009 -0.1094  0.0208
10273W        W27121  10.522   6.940  12.726 -0.1026  0.1044  0.1515
10274W        W27122   5.126  12.664   6.365 -0.3363 -0.1504 -0.1387
10275W        W27123   7.029  13.984   4.812 -0.1457 -0.0304 -0.1286
10276W        W27124   8.715  13.134  12.878 -0.0577 -0.2743  0.1172
10277W        W27125  14.218  10.617  10.196  0.1763  0.1417 -0.1424
10278W        W27126   7.156   8.698   4.407  0.0300  0.0211  0.1179
10279W        W27127  11.277  16.392   0.931 -0.0144 -0.1194  0.1994
10280W        W27128  17.108  17.200  13.815 -0.3299  0.2887 -0.1434
10281W        W27129  11.284   4.487  15.976 -0.2162  0.3900  0.0121
10282W        W27130   8.466   7.426  14.632 -0.0116 -0.0670 -0.0343
10283W        W27131   6.555   3.616  11.991  0.0382 -0.2998  0.0084
10284W        W27132   4.588   4.539  11.236  0.1231 -0.0018 -0.0350
10285W        W27133  15.471   8.568  11.667 -0.2490 -0.1368  0.0351
10286W        W27134   4.172   6.994  12.432 -0.1306  0.0415 -0.4239
10287W        W27135  13.423   5.630  13.505  0.3013 -0.2951 -0.0964
10288W        W27136  15.370  16.782  14.879  0.0681  0.5117 -0.1199
10289W        W27137  10.312   0.019  12.986 -0.3190 -0.1265 -0.2053
10290W        W27138  16.099  10.905   3.184 -0.1316 -0.1060 -0.0833
10291W        W27139   4.766  17.733  15.016  0.0701  0.3059  0.2175
10292W        W27140  13.656   1.380   5.196 -0.1109 -0.1293 -0.2328
10293W        W27141  12.928   7.504  15.085 -0.0233 -0.0355  0.4422
10294W        W27142   1.633   3.154   1.945 -0.2562 -0.3590  0.1387
10295W        W27143  13.308   5.089   3.882 -0.1772 -0.1435  0.3697
10296W        W27144   7.689   4.069  13.903  0.3066 -0.0450 -0.1113
10297W        W27145  11.546  12.622   4.136  0.0384 -0.2392  0.1524
10298W        W27146   8.744  17.756   1.395  0.1659  0.0483 -0.1547
10299W        W27147  13.911   9.015   1.839 -0.1054  0.0316  0.1244
10300W        W27148   7.687  14.140   0.089  0.0759 -0.1454 -0.0549
10301W        W27149  10.746  17.955   2.404 -0.0138 -0.0141 -0.1630
10302W        W27150   1.108   5.691   4.088 -0.1719 -0.1437 -0.0351
10303W        W27151   4.471   8.596  14.084  0.0643 -0.0353  0.0036
10304W        W27152   3.690  11.494   3.254 -0.4000 -0.1253 -0.1388
10305W        W27153   7.509   9.256  16.130 -0.1325  0.2003  0.0778
10306W        W27154   3.573  12.205  12.906  0.0998 -0.0228 -0.1209
10307W        W27155  13.962  15.218  11.258 -0.0676  0.0813  0.1894
10308W        W27156  13.965   7.971  14.171  0.1571 -0.1157 -0.1459
10309W        W27157  17.874   6.883   1.725 -0.1452 -0.2956 -0.0265
10310W        W27158   1.849   1.946   4.142 -0.1584 -0.3019  0.1195
10311W        W27159   8.584   7.578   1.859  0.2772 -0.0783 -0.2231
10312W        W27160  16.300   8.383   2.285  0.1234 -0.1121 -0.0481
10313W        W27161   1.636   4.594  16.096 -0.0984 -0.2862  0.0190
10314W        W27162  13.625  15.011   2.865  0.0033 -0.0809 -0.0638
10315W        W27163   4.081   8.362   1.842 -0.0571  0.1077 -0.2203
10316W        W27164   2.820  12.080   3.236  0.0368 -0.0263  0.3017
10317W        W27165  12.250  15.733  12.351 -0.1279  0.0956  0.2373
10318W        W27166   7.340  14.397  14.408 -0.0413  0.0881 -0.1767
10319W        W27167  13.478  11.482   0.143  0.0828  0.1490  0.2783
10320W        W27168  15.204  12.056  12.921 -0.1206  0.1385  0.1934
10321W        W27169   7.128   9.001  15.906 -0.2096  0.0494 -0.0322
10322W        W27170   0.502  11.152   5.164 -0.1411 -0.0821  0.3755
10323W        W27171  16.806   5.410   5.915 -0.0950  0.0571 -0.1182
10324W        W27172   9.940   6.947  15.559  0.0924  0.2317  0.1336
10325W        W27173   8.300   8.799  11.508  0.1454 -0.4205 -0.2129
10326W        W27174  14.716  11.068   4.095 -0.0709 -0.1484  0.0556
10327W        W27175   7.429  14.695  12.076 -0.1881  0.0136 -0.0768
10328W        W27176   8.485   8.550  14.393  0.3176  0.1875  0.1283
10329W        W27177   5.013  13.788  13.832  0.0648  0.1548  0.1574
10330W        W27178  15.757  10.181  12.738  0.1610 -0.0823  0.3602
10331W        W27179   1.122  10.407   3.087 -0.1696  0.2355 -0.0183
10332W        W27180   4.684   5.927   4.091  0.1079 -0.2017 -0.0573
10333W        W27181   6.959   5.920  11.322 -0.1329  0.1745 -0.1889
10334W        W27182   5.680   8.110  14.208 -0.1542 -0.0886  0.0429
10335W        W27183  18.020  16.334  13.746 -0.1655 -0.0376 -0.2101
10336W        W27184  14.775  15.782  16.035  0.0875 -0.1887 -0.1973
10337W        W27185   8.061   1.037   3.811 -0.1896  0.3445  0.1387
10338W        W27186  17.701   3.465   2.540 -0.0920  0.0940 -0.3817
10339W        W27187   5.616  13.347  15.956  0.0209 -0.1372 -0.1138
10340W        W27188   7.872   3.417   2.831  0.2141  0.0468  0.0381
10341W        W27189  10.088   7.091   5.247  0.1504 -0.4043 -0.2343
10342W        W27190  12.855   2.464   3.407  0.0553  0.4082  0.3822
10343W        W27191  17.373   4.983   3.528  0.0390  0.2861  0.1546
10344W        W27192  12.795   3.496  12.695  0.2088 -0.0275 -0.0586
10345W        W27193  14.600  13.422   0.820 -0.0795 -0.1787  0.1097
10346W        W27194   8.849  17.834   5.195  0.0526 -0.0884  0.0660
10347W        W27195   7.464   7.195   2.194  0.1694 -0.0236  0.2017
10348W        W27196  14.288   6.394  11.440  0.1053 -0.0443 -0.0655
10349W        W27197   1.323   3.858   2.312 -0.2737  0.0716  0.0849
10350W        W27198  13.583   9.652  12.084  0.0523 -0.0120  0.1927
10351W        W27199   9.924  15.090   0.663  0.1414  0.1189  0.1328
10352W        W27200  12.485  14.922  11.990  0.0640  0.0038 -0.1564
10353W        W27201   4.298  11.779   1.204 -0.0563 -0.4303 -0.0612
10354W        W27202   7.342   4.665  12.765  0.0300  0.0836  0.1551
10355W        W27203   8.462  11.568  13.401 -0.0990  0.1580 -0.1372
10356W        W27204   3.334  12.017  13.483 -0.1872  0.1102 -0.0920
10357W        W27205   7.742   0.639  13.492 -0.2136  0.0048  0.0658
10358W        W27206  12.201  16.762   5.242 -0.2913 -0.0618 -0.0419
10359W        W27207   7.575  13.964   4.738 -0.2635  0.1490 -0.1729
10360W        W27208  14.822   0.551   1.183 -0.0119 -0.3416  0.2747
10361W        W27209   0.896  15.038  15.717 -0.1149 -0.1505 -0.1008
10362W        W27210   8.227   5.791   3.482  0.0900  0.2778  0.0571
10363W        W27211  10.202   4.621   1.609 -0.0458 -0.1082 -0.2134
10364W        W27212  13.131  16.584   5.640 -0.4449  0.0341  0.3473
10365W        W27213   2.882   9.114   2.201  0.0288  0.1080 -0.0178
10366W        W27214   2.124  11.936  15.899  0.1078 -0.0928  0.0281
10367W        W27215  15.426   1.422   3.337  0.2787 -0.1335 -0.0662
10368W        W27216  14.360  14.635  14.902  0.1913 -0.0448 -0.1321
10369W        W27217  12.969  17.548  12.159 -0.0448  0.0089  0.2199
10370W        W27218  12.667   3.420  14.511  0.1225  0.0750 -0.1042
10371W        W27219  16.669  12.168   3.959 -0.4718  0.1467  0.1643
10372W        W27220  13.253   9.405   0.558  0.0864  0.0429 -0.0857
10373W        W27221   1.543  12.863  11.442 -0.2203 -0.0674 -0.0381
10374W        W27222   3.886   6.546   2.768  0.2972  0.0122  0.1704
10375W        W27223   0.524   9.644  13.927 -0.1769 -0.0191 -0.1585
10376W        W27224   9.706   4.504   0.520 -0.1276  0.1815 -0.1260
10377W        W27225   4.550   1.892  14.566  0.1842 -0.2279 -0.0220
10378W        W27226  10.436  13.758  15.281  0.5533  0.1318  0.1099
10379W        W27227  14.487  12.620  12.768  0.3000  0.0973  0.1759
10380W        W27228   9.125   9.036   3.655  0.0792  0.0262  0.2076
10381W        W27229  15.870  13.405  13.860  0.2189  0.1711 -0.1527
10382W        W27230   5.954   2.942   4.116  0.3279  0.2608 -0.1826
10383W        W27231   6.393  14.094  13.805  0.0844 -0.0787  0.0298
10384W        W27232   0.608  12.548  11.348 -0.0010 -0.2195  0.4400
10385W        W27233   1.553  12.580  14.639  0.1871  0.0033  0.2556
10386W        W27234   5.646   4.009  13.480  0.3738 -0.0334  0.0912
10387W        W27235   8.060  16.795  11.964 -0.0174 -0.1331  0.1338
10388W        W27236   5.444  13.203   0.176  0.0421  0.1920 -0.1656
10389W        W27237  11.731  10.222   4.238  0.1334 -0.2316  0.0602
10390W        W27238   1.689  15.021  14.607 -0.3477 -0.0630  0.1674
10391W        W27239  16.353   9.447   1.999  0.1476 -0.1140  0.0781
10392W        W27240   9.816  15.448   0.263 -0.1404  0.0069  0.0946
10393W        W27241   0.814   7.903   1.911  0.1434  0.2842  0.1486
10394W        W27242   6.446   9.110  12.484  0.0378  0.1335  0.1054
10395W        W27243   3.686  14.650  13.656 -0.2751  0.0163  0.0040
10396W        W27244   6.592   8.688  11.995 -0.1347 -0.1030  0.3797
10397W        W27245   1.679  11.729   4.702  0.0316 -0.0017  0.1531
10398W        W27246   6.493   4.509   5.069 -0.1803  0.0657 -0.3221
10399W        W27247  14.969   3.810  15.547 -0.1708 -0.0198  0.1321
10400W        W27248  16.228   4.282  15.158 -0.2633  0.2657 -0.0002
10401W        W27249   2.371  16.322  15.921  0.1125 -0.0006 -0.0358
10402W        W27250  14.483  10.041   1.081  0.0863 -0.2291  0.1648
10403W        W27251  15.112  14.509  10.741  0.0883  0.1895  0.1139
10404W        W27252   2.120  12.540   1.560  0.0285 -0.1308  0.2436
10405W        W27253  16.969   2.462  12.619  0.2185 -0.0586 -0.0624
10406W        W27254   6.773  14.066  11.357 -0.4094 -0.1454  0.1679
10407W        W27255  10.068   2.856  12.674 -0.1603  0.1516 -0.1133
10408W        W27256   2.579   4.174  11.566  0.1802  0.0340  0.0524
10409W        W27257   0.503   8.304   4.069 -0.3215 -0.0620  0.1833
10410W        W27258  17.373  13.436   4.148  0.0959  0.1941 -0.0940
10411W        W27259   7.702   1.985   0.799 -0.1396 -0.4468 -0.1185
10412W        W27260  10.978  16.054   0.680  0.5991  0.0764  0.2162
10413W        W27261  14.883   6.263  11.472  0.1474  0.2609 -0.0192
10414W        W27262   5.593  13.599   1.918  0.3328 -0.0943  0.1525
10415W        W27263   7.140   5.008  15.711  0.0813  0.0688 -0.0393
10416W        W27264  14.542  11.691  13.955 -0.3467 -0.3145 -0.0363
10417W        W27265   6.208   3.871  13.350 -0.0812 -0.0380 -0.0116
10418W        W27266   0.754  15.657   4.307  0.2539 -0.0981 -0.0174
10419W        W27267  16.107  10.848  11.413  0.2165 -0.4255 -0.4242
10420W        W27268   1.757   2.372   0.090  0.2012 -0.1452  0.0101
10421W        W27269   9.224   0.090  16.167 -0.0274 -0.0191  0.2420
10422W        W27270   9.288  13.287   5.812  0.0994  0.2145  0.3945
10423W        W27271   4.582  13.615   0.910  0.0089 -0.2777  0.0185
10424W        W27272  15.859   0.947   4.142 -0.1290 -0.1666 -0.2489
10425W        W27273  15.642   9.988   0.512  0.1273  0.1721 -0.2442
10426W        W27274  16.614   8.045  14.119  0.0082  0.2974  0.0633
10427W        W27275  11.967   1.265  15.909 -0.1395  0.1767  0.2359
10428W        W27276   4.861   8.279  14.809 -0.1249  0.1572  0.2807
10429W        W27277   3.975  10.391  13.794  0.0197  0.0017  0.1414
10430W        W27278   6.781  14.197   0.162 -0.3607 -0.0981  0.3208
10431W        W27279   5.342  16.428   1.631  0.1313  0.0469 -0.2865
10432W        W27280  13.170  17.792   1.609 -0.0800  0.2823  0.0024
10433W        W27281   1.941  10.231  11.439  0.0780  0.0978  0.1117
10434W        W27282   9.637  11.864   1.276 -0.0712 -0.3228  0.2659
10435W        W27283   6.375  15.976   3.083 -0.1902 -0.0730 -0.0257
10436W        W27284   6.190   5.272   3.501 -0.3414  0.2958 -0.1433
10437W        W27285   0.103  10.068   0.057 -0.0594  0.0231 -0.1692
10438W        W27286   7.302   3.571  11.179  0.0829 -0.1883 -0.2461
10439W        W27287   2.458   3.948   4.169 -0.0706  0.2324  0.0949
10440W        W27288   4.535  16.782  14.792  0.1511 -0.1481  0.0251
10441W        W27289  10.468   2.368   3.058 -0.1686  0.1433 -0.1088
10442W        W27290  12.547   7.100  13.571  0.0534 -0.1079 -0.2570
10443W        W27291   4.263   2.844   0.321 -0.0115 -0.1040 -0.1284
10444W        W27292   8.092  15.985   1.210  0.2774 -0.0506 -0.1143
10445W        W27293  11.401   2.032  12.857  0.3431 -0.1012 -0.1672
10446W        W27294   1.641   8.731   4.318  0.1216 -0.1749  0.1161
10447W        W27295   3.349   6.467   2.896  0.2504  0.1204  0.2176
10448W        W27296  11.935  10.788  13.050  0.1193 -0.0161  0.3115
10449W        W27297   2.835  15.814  14.128 -0.3185  0.2645 -0.1598
10450W        W27298   2.326   0.389  10.310  0.4303  0.0445  0.2100
10451W        W27299  12.257  10.476   0.451  0.1976 -0.0382 -0.0359
10452W        W27300  12.537  13.659  14.829  0.0424 -0.0425  0.1065
10453W        W27301  15.220   5.780   2.117  0.1074  0.1488  0.0159
10454W        W27302   9.197  11.806   0.502 -0.1478 -0.0515  0.0540
10455W        W27303  12.237  13.128   0.130 -0.0991  0.0851 -0.1555
10456W        W27304   2.099   5.930   4.748 -0.0759  0.0791 -0.0889
10457W        W27305  12.080   2.989  15.657 -0.3309  0.0697 -0.0024
10458W        W27306   1.433   6.602  15.011  0.1177  0.0382 -0.1941
10459W        W27307   4.523  15.718  10.495  0.1755 -0.3277  0.3657
10460W        W27308   8.600  17.039  15.935  0.3082  0.2990  0.0694
10461W        W27309  15.273   2.897  14.470 -0.2570 -0.0041 -0.0823
10462W        W27310   4.621  13.362  14.473 -0.0210  0.0701 -0.1088
10463W        W27311  14.676  13.454  15.359 -0.1694 -0.1002  0.2275
10464W        W27312  11.327   7.666   3.080 -0.1512  0.0353  0.1056
10465W        W27313   2.216  10.625   2.290  0.1474  0.1079 -0.1539
10466W        W27314  13.153   8.486   2.930  0.0929  0.1777 -0.3242
10467W        W27315  15.797   4.984  10.816  0.1855 -0.1448  0.0738
10468W        W27316  15.134  15.405   3.068  0.0188 -0.2371  0.0677
10469W        W27317   7.603  17.075  11.977  0.1008 -0.0276 -0.3428
10470W        W27318   1.388   1.535  13.086 -0.0344  0.2043 -0.1347
10471W        W27319   6.367   2.407   1.322 -0.2667  0.1777  0.2012
10472W        W27320  11.060  16.880  15.435  0.2562 -0.1951  0.0524
10473W        W27321  12.686   2.157  13.838 -0.0793  0.0092  0.2672
10474W        W27322  12.310   5.128   1.794  0.1351  0.2155  0.0710
10475W        W27323   4.076   7.701  11.309 -0.3016 -0.0187 -0.1834
10476W        W27324   3.190  12.082  15.791  0.0672  0.2790 -0.0323
10477W        W27325  13.106  10.730   1.274  0.0625  0.0747  0.0113
10478W        W27326  11.711  17.810  13.828  0.1693  0.0640 -0.1580
10479W        W27327   2.878  16.560   0.279  0.0629  0.1394  0.4549
10480W        W27328   3.061   7.876   3.437  0.0379 -0.1093 -0.3565
10481W        W27329   4.325  10.846   5.195  0.0132  0.0404 -0.1846
10482W        W27330   2.453  14.348   4.013  0.0122  0.0515 -0.1693
10483W        W27331  12.665  16.284  12.115  0.0145 -0.3294  0.0166
10484W        W27332   0.812  16.527   3.064 -0.0466 -0.0443  0.1059
10485W        W27333  11.000   9.077   0.804  0.1199  0.2569  0.2917
10486W        W27334   3.207  12.859   1.988 -0.1286 -0.0823  0.0246
10487W        W27335   5.111  13.361   2.654  0.0126  0.3274 -0.0485
10488W        W27336   7.667  13.293   2.649 -0.3656 -0.2661 -0.1322
10489W        W27337   6.785   9.154  13.226 -0.1821  0.1682 -0.0602
10490W        W27338   6.151  11.724   2.315  0.1065  0.1295  0.0618
10491W        W27339  12.893  13.357   3.854  0.1489 -0.3531  0.0554
10492W        W27340  14.619  17.474   4.419 -0.1202  0.1399 -0.1428
10493W        W27341   5.476   1.919  15.560  0.0274  0.0836 -0.0932
10494W        W27342  12.527  14.582  14.311 -0.2981  0.0806  0.2284
10495W        W27343   9.298   8.555   3.748 -0.1168 -0.0905 -0.2717
10496W        W27344   4.564   0.416   2.915 -0.2080  0.1649  0.2209
10497W        W27345   9.448  12.311   3.532  0.3384  0.5281  0.1093
10498W        W27346  11.360   7.809   2.587  0.3236 -0.1721 -0.0107
10499W        W27347  10.643  10.309  14.887 -0.2205 -0.2111 -0.2882
10500W        W27348  16.027  16.098   4.963  0.0062  0.4144  0.0094
10501W        W27349   1.830   2.393   4.923 -0.0882 -0.1304 -0.0810
10502W        W27350  16.176  11.664  15.173 -0.5314 -0.2269  0.0952
10503W        W27351   1.965  13.481   0.009  0.1575 -0.0861  0.2467
10504W        W27352   8.981   8.110  11.531  0.2045 -0.0064  0.0774
10505W        W27353   0.059   6.251   4.181 -0.2366  0.1340 -0.1356
10506W        W27354   1.299   8.800  11.249  0.0353  0.1091 -0.0357
10507W        W27355   1.081  16.844   5.359  0.0154  0.1446  0.0992
10508W        W27356   5.440   5.191  13.885 -0.0472  0.2532  0.1434
10509W        W27357   6.965   8.228  14.592 -0.1395  0.0094 -0.0640
10510W        W27358  12.330   2.297  15.401  0.0849  0.0069  0.1669
10511W        W27359   0.737  14.609   6.102 -0.1818 -0.2045 -0.1174
10512W        W27360   6.219  17.613   0.297 -0.0510 -0.0668 -0.0136
10513W        W27361   7.357   4.608  12.230 -0.0368  0.1993 -0.3806
10514W        W27362   1.033  17.825   1.652 -0.0134  0.1836 -0.2934
10515W        W27363  17.556  15.122   0.813 -0.0630 -0.1913 -0.0588
10516W        W27364   7.754  17.675   1.250 -0.3220 -0.1431 -0.1061
10517W        W27365   5.130  17.313  11.542  0.2743 -0.0631 -0.0741
10518W        W27366  10.753  10.010   0.797 -0.2103  0.0984  0.0000
10519W        W27367   3.957   2.149  10.698 -0.0865  0.0720 -0.0612
10520W        W27368  16.680   4.815   4.695 -0.1726 -0.2272 -0.0557
10521W        W27369  12.476   9.135   9.924  0.1587  0.0459 -0.1189
10522W        W27370   0.836   2.089   1.033 -0.0544  0.1515 -0.1187
10523W        W27371  13.134  12.123  15.786  0.4115 -0.1973 -0.0855
10524W        W27372  14.711  16.843   1.967 -0.0728  0.0333  0.0627
10525W        W27373  12.699  13.708  15.713  0.0501  0.1843  0.1305
10526W        W27374  13.155  16.796  14.515 -0.1218  0.3834 -0.3192
10527W        W27375  11.840   9.162   0.504 -0.1136  0.1027  0.0284
10528W        W27376  10.081  10.679  15.212  0.1589  0.1655  0.0957
10529W        W27377  12.381  16.767  11.152 -0.4220 -0.0103 -0.1207
10530W        W27378   3.546  16.770   1.780 -0.1143  0.3082  0.1685
10531W        W27379  17.912   3.180  14.588  0.0658 -0.0683  0.1837
10532W        W27380   8.219   6.108  12.553 -0.2281  0.1328 -0.0512
10533W        W27381   2.188  15.880  15.773 -0.1008 -0.0629 -0.0001
10534W        W27382   3.403  15.881   4.126 -0.1324  0.2048 -0.2169
10535W        W27383   9.473   8.460   0.077  0.0419 -0.0012  0.1641
10536W        W27384  17.667   7.528   1.539 -0.3141  0.1957 -0.0730
10537W        W27385  16.355  12.227  16.262 -0.0622 -0.1528  0.0061
10538W        W27386  14.459  11.131  11.850 -0.0517 -0.1899 -0.3005
10539W        W27387   4.972  17.400   0.047 -0.1737 -0.2655 -0.0398
10540W        W27388  11.992   8.933   4.791 -0.1143  0.1103 -0.0627
10541W        W27389  15.330   9.129   3.981 -0.0342 -0.1474  0.0413
10542W        W27390  18.027   6.062   5.443 -0.1051  0.0916 -0.1689
10543W        W27391   8.487  15.762   4.985 -0.1099 -0.0616 -0.1756
10544W        W27392  14.532  14.451  11.265  0.2500  0.0238 -0.0364
10545W        W27393   8.067  10.752   4.712 -0.1649 -0.2430  0.0620
10546W        W27394  16.134  11.760  14.486 -0.0600  0.4563  0.1497
10547W        W27395   4.306  18.005   2.702 -0.1198 -0.1414 -0.1394
10548W        W27396   5.684   4.023  14.515  0.0519 -0.1348 -0.3478
10549W        W27397   2.104  16.787   1.622  0.1042  0.0277 -0.0149
10550W        W27398  16.079   6.620  11.130  0.1462  0.0825 -0.4062
10551W        W27399   0.536   6.318   0.525 -0.1594 -0.2212  0.0370
10552W        W27400  17.194  16.405   1.713 -0.3711  0.2306 -0.0253
10553W        W27401  10.761   3.496   1.099 -0.0776 -0.0031 -0.2552
10554W        W27402  16.654   8.822  12.427  0.1107 -0.1808  0.1921
10555W        W27403   5.926   7.878   3.017  0.2133  0.1272  0.1582
10556W        W27404   3.930   6.302   2.337  0.1781 -0.1414 -0.0902
10557W        W27405  15.149   3.021   1.972  0.1549 -0.1730 -0.1222
10558W        W27406  16.962  15.701  12.198  0.4123  0.0561  0.3264
10559W        W27407   4.830   6.154  11.821 -0.0893 -0.0642  0.1727
10560W        W27408   1.719  16.818   4.888 -0.0288  0.1030  0.0863
10561W        W27409   9.887  15.719   3.534  0.1288 -0.1029 -0.0071
10562W        W27410  15.155   2.872   3.376 -0.2613 -0.1691  0.1419
10563W        W27411   0.206   0.127  16.258 -0.0927 -0.1979  0.0023
10564W        W27412   0.055   1.385   5.193  0.0584  0.1983 -0.0932
10565W        W27413  13.389  13.664   3.910  0.2202 -0.0428  0.0633
10566W        W27414  11.914   4.846   5.787  0.2731  0.3161  0.1808
10567W        W27415   1.952   4.463   2.313  0.0441  0.3202 -0.0310
10568W        W27416  12.447   8.043  15.687  0.0956  0.3089  0.2314
10569W        W27417   8.108  15.376  12.559  0.0025  0.2771 -0.2586
10570W        W27418   4.622   5.179  16.275 -0.1355 -0.1848 -0.1035
10571W        W27419  15.005   0.202  15.122 -0.2940  0.3277 -0.0554
10572W        W27420   1.444   9.949   3.147 -0.0022  0.4724 -0.0172
10573W        W27421   5.727   6.246  11.444  0.1225  0.0162 -0.3247
10574W        W27422  12.200   2.253  13.998  0.0469 -0.2528  0.0499
10575W        W27423   2.565   6.505   2.500  0.1455  0.2304  0.0768
10576W        W27424   3.392   6.254  13.715  0.1965  0.0947 -0.0458
10577W        W27425  12.401   1.617   4.209 -0.1924 -0.0221 -0.3097
10578W        W27426   0.487   8.727  12.821  0.0911 -0.0774  0.5198
10579W        W27427  11.287   3.502  12.528  0.1365  0.2019  0.0726
10580W        W27428  14.225   7.127  15.092  0.0481 -0.3890  0.0588
10581W        W27429   3.125   9.877   2.168 -0.0739  0.1883  0.1738
10582W        W27430   7.712   5.581  15.808 -0.1371 -0.1664 -0.2815
10583W        W27431  17.468   5.555  13.033  0.3504 -0.2325 -0.0073
10584W        W27432   6.612  16.249   5.007  0.0073  0.2887  0.0083
10585W        W27433   5.080  17.823   2.642  0.0827 -0.1435  0.2279
10586W        W27434  10.771  15.571   0.559 -0.2349 -0.1456 -0.1322
10587W        W27435  14.737  17.269   1.072  0.1148  0.1414  0.2628
10588W        W27436  16.053  14.447   2.057  0.1741  0.2698  0.3409
10589W        W27437  11.905   6.003  11.119  0.5798 -0.1318  0.2846
10590W        W27438  10.424  10.720   2.696 -0.1033  0.0209 -0.0642
10591W        W27439   8.559   7.320   3.647  0.0129 -0.0466 -0.1750
10592W        W27440   8.220   9.655   2.056  0.1476 -0.1334  0.0320
10593W        W27441  10.246  14.219   0.690  0.2906  0.3415 -0.1860
10594W        W27442   7.918  16.960   0.566 -0.0434  0.2038  0.0987
10595W        W27443   8.026   1.216  15.379 -0.0311 -0.2000  0.0821
10596W        W27444   4.546   2.049   4.836 -0.0455  0.0428 -0.3349
10597W        W27445  14.777   7.623  14.303  0.1617  0.2532  0.1639
10598W        W27446   1.755   0.580  14.078 -0.0293 -0.1624 -0.1248
10599W        W27447  12.931   2.313  12.554 -0.1676  0.2352 -0.1286
10600W        W27448   0.147   9.450  12.523  0.0686  0.0840  0.0652
10601W        W27449   7.357   1.780  15.452 -0.0115  0.2144 -0.2977
10602W        W27450  12.343  16.208   0.926  0.0110  0.0570 -0.0221
10603W        W27451  14.459   4.230  15.944  0.2391 -0.3616  0.6080
10604W        W27452  13.019   7.946   3.028  0.3476 -0.0142 -0.3567
10605W        W27453  17.760   6.347  12.628 -0.0798 -0.3178  0.1638
10606W        W27454   9.709  13.152  12.958  0.0856  0.3027  0.0656
10607W        W27455  17.747   2.607   2.001 -0.0118  0.2795 -0.1524
10608W        W27456  14.919   0.974   2.207 -0.1341 -0.3251 -0.1860
10609W        W27457   6.105   6.546   4.815 -0.1014 -0.0062  0.0372
10610W        W27458   2.808  16.100   0.435  0.1803  0.1118 -0.1399
10611W        W27459   6.792   1.466  12.936 -0.1172  0.3145  0.0738
10612W        W27460  14.231   0.704   4.741 -0.1656  0.1038  0.0339
10613W        W27461   6.707   7.592  11.639  0.2381 -0.1556  0.1280
10614W        W27462  18.043  15.830  15.530  0.2053 -0.1192  0.1160
10615W        W27463  13.423   4.097   2.837 -0.2805  0.0452  0.0176
10616W        W27464  15.613  14.371  12.901  0.1944  0.0438  0.2362
10617W        W27465  12.164  10.514   3.397 -0.0322  0.2744  0.1301
10618W        W27466   5.039  12.586   5.496 -0.1062  0.1937  0.1872
10619W        W27467  11.515  15.981   0.702 -0.3480 -0.1663  0.1589
10620W        W27468  16.552   5.802   2.133  0.0374 -0.0623 -0.0907
10621W        W27469   1.305  10.682   2.337 -0.0570  0.3056  0.0984
10622W        W27470   0.977  16.256  15.188 -0.3392 -0.1553  0.0789
10623W        W27471  14.317  11.000   2.973  0.2277 -0.1363  0.0480
10624W        W27472  17.428  14.417  14.264  0.0140 -0.1027  0.0299
10625W        W27473  17.191   4.437  12.890  0.0314 -0.2438 -0.1875
10626W        W27474  11.713   8.664  11.650 -0.1665  0.1209  0.2381
10627W        W27475  12.225  15.034   3.735 -0.0025  0.0551 -0.0074
10628W        W27476   1.588   9.406  15.175  0.1760  0.0860 -0.1972
10629W        W27477  17.525   4.869  13.608 -0.2234  0.0654  0.2588
10630W        W27478  12.477  13.228   3.663 -0.2467 -0.0285 -0.1324
10631W        W27479  15.036   6.375   3.755 -0.0531  0.0245  0.0042
10632W        W27480  12.346   9.988  14.552  0.0163  0.0947 -0.1438
10633W        W27481  11.271  14.020  12.674  0.3728  0.2133 -0.0976
10634W        W27482   9.451   6.721   1.706  0.2953 -0.0019  0.0120
10635W        W27483   9.625  16.729   0.169  0.1587  0.2918  0.1334
10636W        W27484  17.217  12.175   3.447 -0.0388  0.0753 -0.0392
10637W        W27485  10.584   6.990   4.391  0.2173 -0.0613 -0.1860
10638W        W27486   6.144   5.704   0.424 -0.2098  0.1836 -0.0304
10639W        W27487   0.143  16.402   2.629  0.1316  0.1989  0.0842
10640W        W27488  16.957   1.130   0.399 -0.2398 -0.3831  0.0531
10641W        W27489   5.518  13.403  11.269  0.1066  0.0486 -0.0948
10642W        W27490  10.010   4.222   3.773 -0.2298 -0.2300  0.2475
10643W        W27491   0.499   7.946  10.695  0.1540 -0.3749 -0.1702
10644W        W27492   4.573  17.118   3.308  0.2576 -0.1655 -0.2745
10645W        W27493   2.131   9.877  14.618 -0.0218 -0.0929 -0.1237
10646W        W27494   2.388  10.106   2.760 -0.0039 -0.4947 -0.3074
10647W        W27495  15.728   8.755  11.274 -0.1267 -0.0479  0.0920
10648W        W27496  16.461  17.109  10.922 -0.0407 -0.1764 -0.0305
10649W        W27497   8.021   1.433  13.480 -0.1811 -0.0843 -0.0414
10650W        W27498   3.792  14.156   0.119  0.0681  0.1356  0.0183
10651W        W27499   4.485   2.211   4.102  0.0303  0.1892 -0.0801
10652W        W27500  12.701   3.960  14.607  0.0097  0.0255  0.0383
10653W        W27501  14.469  16.832   1.188  0.0594 -0.2641 -0.3037
10654W        W27502   5.658  12.534  15.695 -0.0992  0.3099 -0.1556
10655W        W27503   7.528  11.400   0.770 -0.0734 -0.2023  0.0175
10656W        W27504  11.278   9.760  16.204 -0.0275  0.0367  0.3191
10657W        W27505  10.222   0.917   3.161 -0.3355 -0.0111 -0.0504
10658W        W27506  13.870   1.887  14.630  0.1952  0.1640  0.1589
10659W        W27507   7.183  15.835  13.299 -0.0169  0.2081  0.0413
10660W        W27508  13.323   9.644  13.520  0.2513  0.1087 -0.0393
10661W        W27509   7.233   2.497   2.799  0.0054  0.0831 -0.0181
10662W        W27510  16.626   8.014   4.350  0.3236 -0.2767 -0.1399
10663W        W27511  17.096   1.298  12.422  0.2341  0.0566  0.0922
10664W        W27512  13.232  10.838  13.939  0.1317  0.1776  0.0933
10665W        W27513   7.963   8.239   2.140 -0.1314 -0.3285  0.0527
10666W        W27514   2.351   6.901  14.886  0.0915  0.0574  0.1156
10667W        W27515   3.121   0.358   0.897 -0.0438  0.1540 -0.2692
10668W        W27516   5.829   6.998   4.246 -0.1557  0.0052 -0.1786
10669W        W27517   6.459  16.046  14.902 -0.0415  0.0161  0.4169
10670W        W27518   7.421  16.540   5.384  0.0057  0.0912  0.1233
10671W        W27519  16.416   8.956  13.001  0.0453  0.1496 -0.0173
10672W        W27520  11.339   8.266  16.006  0.1827  0.1497 -0.1418
10673W        W27521   0.764  16.379  11.692 -0.1268  0.3456  0.0557
10674W        W27522  11.866  17.267  15.291 -0.1198 -0.1240 -0.1108
10675W        W27523   5.865   1.610  15.577  0.1349  0.3698 -0.0132
10676W        W27524   4.068   0.055  15.702 -0.0370  0.4688  0.3272
10677W        W27525  16.963  14.226   3.774  0.1022 -0.0129 -0.0775
10678W        W27526  17.486   3.795  13.766  0.1506 -0.1672 -0.0726
10679W        W27527   3.299   7.397  14.177 -0.1363 -0.3636  0.1218
10680W        W27528  10.104  12.221   4.167  0.2523  0.0357 -0.1580
10681W        W27529  10.297  15.147  14.598 -0.3301 -0.0876  0.1651
10682W        W27530   5.130   2.065   1.719 -0.2191  0.1818 -0.0662
10683W        W27531   5.703  10.990   3.920 -0.0456 -0.2174 -0.0754
10684W        W27532   8.535   3.145  13.263  0.0962  0.1190  0.0230
10685W        W27533  15.962   3.001   4.724 -0.0738  0.4066  0.0204
10686W        W27534   7.909   9.536   0.222 -0.1402  0.2361 -0.1462
10687W        W27535   7.983  12.543  15.601  0.3743  0.0763  0.0244
10688W        W27536  13.383  11.455   4.352  0.0117 -0.0182 -0.2397
10689W        W27537   2.405  13.147  11.267 -0.2675  0.1665  0.1118
10690W        W27538  14.489  15.511   6.254 -0.1922  0.0390  0.0112
10691W        W27539   7.978  12.760   2.145  0.0985 -0.0395 -0.1027
10692W        W27540   2.200  17.191  13.140 -0.0080 -0.0610  0.1357
10693W        W27541  10.514   5.034  10.070 -0.4259  0.1033 -0.1128
10694W        W27542   9.231   3.316   1.158 -0.0505  0.0017  0.0547
10695W        W27543   4.521   0.511  14.653 -0.1487  0.0480  0.1859
10696W        W27544   6.953  12.883   0.638 -0.2114 -0.1763 -0.1117
10697W        W27545   4.900   6.928   3.303  0.1640 -0.2805  0.0139
10698W        W27546   8.575  14.884  11.520 -0.6307  0.1926  0.0813
10699W        W27547  16.687  11.955   5.570  0.0510  0.1319 -0.3350
10700W        W27548   8.512   9.736   0.889 -0.3049  0.0636  0.2020
10701W        W27549   8.592  10.149  14.985  0.0304  0.1979  0.2414
10702W        W27550   2.122   7.462  15.751 -0.1676 -0.2311 -0.1373
10703W        W27551  15.069  13.829  10.944 -0.3490  0.1380 -0.0826
10704W        W27552  10.770  14.668  15.282  0.0268  0.1059 -0.1106
10705W        W27553  16.619   2.168  11.624 -0.0867  0.0087  0.0537
10706W        W27554   4.922  17.245  10.655  0.0059 -0.2541  0.1640
10707W        W27555   9.398  13.611  10.641 -0.2566 -0.2629 -0.0444
10708W        W27556  16.450   8.298   3.966  0.0507 -0.1453 -0.3129
10709W        W27557  13.209  12.764  10.996 -0.1069  0.0666  0.0980
10710W        W27558   8.157   4.158   3.989 -0.0722  0.0519  0.4421
10711W        W27559  17.157   9.019   2.486 -0.0246  0.2138  0.3209
10712W        W27560  11.940  17.955  14.339  0.0828 -0.1922 -0.2587
10713W        W27561   8.717   2.347   2.951  0.3055 -0.0976  0.0276
10714W        W27562   2.437   8.256  11.741  0.1236  0.2258  0.0342
10715W        W27563  12.552   0.325   4.055 -0.1189 -0.2228 -0.2413
10716W        W27564  12.935  10.786   4.007 -0.2760 -0.0372  0.3000
10717W        W27565   3.759   9.650   0.945  0.1661 -0.1784  0.0378
10718W        W27566   7.872   4.018   0.455  0.1101 -0.2770  0.1816
10719W        W27567   3.481   4.339  11.527 -0.1377  0.0948  0.4832
10720W        W27568  11.927  16.412  13.607 -0.0385 -0.4415 -0.2194
10721W        W27569   1.398   3.032   2.713  0.0026 -0.0686  0.0303
10722W        W27570   8.982   4.496  14.250 -0.0044  0.2551 -0.1230
10723W        W27571  14.619  10.614   1.718 -0.2916  0.2217  0.0354
10724W        W27572   1.503   1.784  12.147 -0.1524  0.0760 -0.1501
10725W        W27573   7.063  17.266   1.627  0.0217 -0.0214  0.0805
10726W        W27574   0.278  10.151  13.742  0.1988  0.2845 -0.0374
10727W        W27575  16.765   1.397   2.028  0.1247 -0.2722  0.1022
10728W        W27576  12.578   8.592  15.800  0.0818 -0.2022  0.0995
10729W        W27577   1.355   9.811  12.122 -0.2525  0.1521  0.1085
10730W        W27578  11.534  11.449  13.053 -0.1512 -0.0341  0.2252
10731W        W27579   0.522   2.819   1.776 -0.2479 -0.0897 -0.4124
10732W        W27580   8.960  17.561  14.675 -0.0773  0.0736 -0.0471
10733W        W27581  14.017  14.041  12.805  0.5369 -0.0651  0.2053
10734W        W27582   9.535   4.975  12.378  0.0872 -0.1275  0.2453
10735W        W27583   8.987  15.417   3.929 -0.4323 -0.1666  0.1304
10736W        W27584   7.826   1.726  16.235  0.2934 -0.2215 -0.0318
10737W        W27585   9.265   9.490  10.814 -0.1350 -0.2683 -0.3809
10738W        W27586   7.427   4.541  13.342  0.1564  0.0357 -0.1057
10739W        W27587   1.499  11.493  11.010  0.1467  0.1041 -0.1372
10740W        W27588  12.345   0.814   3.994 -0.3096 -0.2677  0.2299
10741W        W27589   9.548   4.823  13.053  0.1124 -0.2177 -0.2130
10742W        W27590  16.777  12.542  12.588  0.1755 -0.0470 -0.1552
10743W        W27591   8.516  12.292  14.975 -0.2734 -0.0970 -0.0707
10744W        W27592  11.432  12.930  14.150  0.1357 -0.4947 -0.2743
10745W        W27593   9.608   8.087  14.535  0.0289 -0.0899  0.3299
10746W        W27594   9.000   3.170   5.824 -0.1874 -0.2924  0.2120
10747W        W27595   3.833  15.118  13.140 -0.1191 -0.1614 -0.0295
10748W        W27596  15.020  13.101   1.188  0.2561 -0.1289 -0.0010
10749W        W27597  11.782  17.072   4.735 -0.0778 -0.2311 -0.0177
10750W        W27598   7.154   7.784  15.548  0.1500  0.1529 -0.1572
10751W        W27599  11.801  17.718   0.197 -0.0073  0.1101  0.1351
10752W        W27600   6.518   4.685  13.024 -0.0594  0.0677  0.0730
10753W        W27601   1.578  15.918  12.184 -0.0884  0.0437  0.0337
10754W        W27602   4.211  10.973  12.966  0.2925 -0.3310 -0.1151
10755W        W27603  14.837  16.798  15.588 -0.3271  0.3695  0.1615
10756W        W27604   8.928  12.050  13.529 -0.1761  0.0757  0.0264
10757W        W27605   4.278  13.582   2.722 -0.1755 -0.1749 -0.0573
10758W        W27606   4.700  13.151   0.924  0.0132 -0.1438  0.1246
10759W        W27607   6.708   2.413   0.797 -0.0210  0.1479 -0.1075
10760W        W27608  17.762   1.753  13.752 -0.0432 -0.1955  0.1999
10761W        W27609  13.569  13.555  11.503 -0.0221 -0.0058 -0.0018
10762W        W27610  16.907   3.963  10.171 -0.1544 -0.0845 -0.1248
10763W        W27611  16.114   6.581  16.028  0.2459  0.4450  0.0934
10764W        W27612   3.363   7.576   4.315  0.2216 -0.0655  0.2483
10765W        W27613   4.672   6.748  10.952  0.1253  0.0225 -0.4825
10766W        W27614   2.122   3.048  12.721  0.0800 -0.2983 -0.0350
10767W        W27615  11.995  14.106   2.517 -0.6618  0.3731 -0.1308
10768W        W27616   0.272   2.252  12.621 -0.2633 -0.1252  0.1027
10769W        W27617   3.622  13.543  14.601  0.4621 -0.2687 -0.1335
10770W        W27618   7.323  10.138   1.900  0.3158 -0.1658  0.1219
10771W        W27619  12.640   7.178   1.821  0.0309  0.0367  0.0892
10772W        W27620   9.759   0.159   4.078 -0.0319 -0.4161 -0.0521
10773W        W27621  17.214   7.917  14.375  0.1667  0.0705 -0.3148
10774W        W27622  13.454  13.477   2.952  0.2034 -0.0788 -0.0754
10775W        W27623   0.616  11.831  13.034  0.0589 -0.2850 -0.1429
10776W        W27624   9.594   6.533   4.766 -0.0732 -0.1298  0.0042
10777W        W27625   9.441  12.091   0.881  0.0759  0.0105  0.0137
10778W        W27626  14.535   5.899   4.887  0.2018  0.2358  0.2228
10779W        W27627   4.024  12.392  16.076  0.0159  0.1912 -0.1823
10780W        W27628  12.451   7.608  14.444  0.2135 -0.1312  0.0993
10781W        W27629   7.751  11.131  13.829 -0.2659  0.1365 -0.0810
10782W        W27630  13.991  11.309  11.937  0.0506 -0.0523 -0.1285
10783W        W27631  12.161   0.643  13.334  0.1109 -0.1727  0.3577
10784W        W27632  17.731   4.178   5.340 -0.0297  0.0202 -0.3786
10785W        W27633   8.591  14.948   4.886  0.0100  0.0660  0.0897
10786W        W27634   8.000  17.214   6.166 -0.0698 -0.0110 -0.0953
10787W        W27635   7.581  16.290  13.068  0.0623  0.1906 -0.0227
10788W        W27636   2.551  12.075  11.750  0.1887  0.2135 -0.1138
10789W        W27637  15.833   0.021   3.712  0.0692 -0.1622  0.1679
10790W        W27638   0.877  12.156  14.851  0.0394 -0.1188  0.3411
10791W        W27639   4.990  16.884   0.943 -0.2286 -0.0152 -0.2342
10792W        W27640   4.349   0.439  15.888  0.2460  0.2099  0.2967
10793W        W27641   9.582   0.163  11.905  0.0034 -0.2074 -0.3034
10794W        W27642   1.292   3.247  16.122 -0.3460 -0.2234 -0.2228
10795W        W27643   8.314   1.559  12.702  0.0263 -0.0618  0.1560
10796W        W27644  14.281   2.453   1.633  0.0930  0.4606  0.0606
10797W        W27645   4.126   5.135  12.343  0.0341 -0.1004 -0.2807
10798W        W27646   6.004   3.009  14.359 -0.0856  0.0036  0.0147
10799W        W27647   5.671  11.571   4.033  0.1494 -0.2582 -0.1053
10800W        W27648   3.338   6.161   0.939 -0.3341 -0.1890 -0.0683
10801W        W27649   8.124   0.973   1.962 -0.2629 -0.5210 -0.3001
10802W        W27650   9.971  11.719  16.124 -0.0524  0.1861 -0.2465
10803W        W27651   2.765  13.424  14.618  0.1878  0.0623  0.0933
10804W        W27652   3.092  12.496  11.786  0.0426  0.1033 -0.3358
10805W        W27653  11.329  10.320   3.980 -0.1559  0.0623 -0.0021
10806W        W27654   3.728   5.265   4.399 -0.3139 -0.4379 -0.1045
10807W        W27655  14.283   4.810   0.483  0.6066  0.0029 -0.0243
10808W        W27656   7.268  14.279  11.155 -0.2775 -0.2529  0.2130
10809W        W27657   2.171  16.366  15.437 -0.1844  0.1128  0.1000
10810W        W27658   2.627   3.364  13.229 -0.0228 -0.1870  0.1510
10811W        W27659   9.415  10.254   1.970  0.2364 -0.0941  0.0958
10812W        W27660  12.388  12.531   4.158  0.0923  0.2412  0.4324
10813W        W27661  15.232  14.188  14.707 -0.0775 -0.1675 -0.1745
10814W        W27662  16.921   3.884   1.178  0.2282  0.0196  0.1141
10815W        W27663   7.719  13.706   2.229  0.1136  0.2132  0.1969
10816W        W27664  16.525  15.458  11.923 -0.0378 -0.3522 -0.0075
10817W        W27665   6.651  12.614  13.301 -0.1379  0.0844  0.1797
10818W        W27666  15.065  11.871   3.966 -0.0698 -0.1186  0.0044
10819W        W27667   9.154  13.671   3.092 -0.2956  0.1744  0.0953
10820W        W27668  10.233  10.485  15.701 -0.0202 -0.1439 -0.2951
10821W        W27669  12.433   1.053  11.539 -0.0259 -0.1283 -0.0228
10822W        W27670  12.000   7.235   0.819 -0.0740  0.0375  0.2276
10823W        W27671   2.603   8.238   5.076 -0.0489  0.0140 -0.0068
10824W        W27672   3.672  16.738   2.313 -0.1675 -0.0942  0.0888
10825W        W27673   0.396   1.988   1.388  0.0573  0.0260  0.2634
10826W        W27674   2.409   6.468  13.473  0.1233  0.1744 -0.0628
10827W        W27675  12.612  13.089   1.309 -0.3210  0.3730  0.2800
10828W        W27676   9.562   1.333  10.733  0.1606 -0.0284  0.1253
10829W        W27677  14.801  17.038   4.329  0.1554 -0.1143 -0.2981
10830W        W27678  13.483   8.624   2.606 -0.0120 -0.1646  0.2031
10831W        W27679   4.637  11.401  11.672 -0.4981  0.3053 -0.2556
10832W        W27680  10.772   2.575   2.699  0.0720  0.1433 -0.0202
10833W        W27681   8.318   8.858   0.927 -0.2097 -0.3937  0.2739
10834W        W27682   1.226  11.410  15.506 -0.0886 -0.1887 -0.3760
10835W        W27683   7.375   3.994  14.884  0.2596  0.1835 -0.1095
10836W        W27684   0.057  17.427  11.727  0.0151 -0.0121  0.1878
10837W        W27685   9.866  15.279   1.146  0.1717  0.0308  0.1733
10838W        W27686   3.642   7.007  14.305 -0.1245 -0.1694  0.3171
10839W        W27687   0.572   8.038   1.047 -0.1466  0.2513 -0.0423
10840W        W27688   3.566   6.394   3.726  0.0490 -0.2310  0.0138
10841W        W27689   8.248  16.104   0.625 -0.2384 -0.0490  0.1254
10842W        W27690   4.285  15.592   3.875 -0.0078  0.0068  0.3321
10843W        W27691  14.373   3.340   0.073  0.2806  0.1687  0.1079
10844W        W27692  13.378   0.859  11.125 -0.1503  0.0567  0.0002
10845W        W27693   5.620  10.889  13.897  0.0982 -0.6435  0.0965
10846W        W27694   5.702   9.093  14.050 -0.2838 -0.0055  0.2305
10847W        W27695  14.000  14.963   0.410  0.2218 -0.0717 -0.1456
10848W        W27696  12.151  15.875   1.309 -0.2616 -0.1999  0.0902
10849W        W27697  17.752  11.166  12.877 -0.1071 -0.2128 -0.0372
10850W        W27698   0.980   0.049   0.313 -0.2847  0.2750 -0.0868
10851W        W27699  10.562   9.101   2.538  0.0167  0.2502 -0.4029
10852W        W27700   4.859  13.635  11.996 -0.1265 -0.3329  0.2610
10853W        W27701   3.628  14.482   5.427 -0.3213 -0.1346  0.1405
10854W        W27702  13.720  16.581   4.872 -0.0858 -0.2066  0.3626
10855W        W27703   8.738  14.493   0.775 -0.0561 -0.1458 -0.0854
10856W        W27704   6.962   4.921   2.413  0.1606  0.3168 -0.2892
10857W        W27705  12.016   7.581  16.142 -0.0969 -0.0138 -0.0387
10858W        W27706   5.668  15.256  12.291  0.1726  0.0614  0.1194
10859W        W27707  11.284  16.046  11.534  0.0822  0.2965 -0.2156
10860W        W27708   2.880   0.712   2.984  0.2961  0.0161 -0.1837
10861W        W27709  12.261  17.633  12.141 -0.2928  0.2656  0.0394
10862W        W27710  11.026  13.559  14.656 -0.0287  0.1535 -0.4098
10863W        W27711  17.576   0.502   0.990  0.0036 -0.0121 -0.0443
10864W        W27712   6.049   4.060   1.081 -0.1322  0.1974  0.2044
10865W        W27713  13.716   9.500  10.867 -0.2582  0.2495 -0.2947
10866W        W27714   9.662  10.130   1.559  0.0516 -0.1255 -0.0032
10867W        W27715   6.011   6.031   1.292  0.0863  0.1350  0.3121
10868W        W27716   2.492   9.699  14.335 -0.3563  0.2799 -0.3271
10869W        W27717   6.400  10.440  12.723  0.1190 -0.0195 -0.0167
10870W        W27718  12.042   0.079  15.193  0.1602 -0.1942  0.0123
10871W        W27719   9.821   7.102  11.342 -0.2386  0.0727 -0.0413
10872W        W27720   5.146  16.450  16.046 -0.0684 -0.0960 -0.2171
10873W        W27721   6.778   7.640  13.444 -0.1842  0.0565 -0.1509
10874W        W27722   1.049  11.606  12.906 -0.0186  0.1349 -0.1024
10875W        W27723   9.222   6.106   2.566  0.1109 -0.1215 -0.2098
10876W        W27724   4.631  14.762   6.367 -0.4127  0.1651 -0.1514
10877W        W27725  17.436  17.601   0.596 -0.1819 -0.2578 -0.0776
10878W        W27726   4.732  15.498   3.021 -0.1329 -0.0972 -0.0529
10879W        W27727   8.914  11.751  11.357  0.2338 -0.0294 -0.0883
10880W        W27728   1.666  11.217  15.613  0.0223 -0.0325  0.2948
10881W        W27729   9.002  11.408   3.446 -0.0413 -0.1746 -0.0149
10882W        W27730  11.753   0.864  14.269  0.0922 -0.2617  0.1436
10883W        W27731  12.558  13.535  10.241  0.2973  0.1876 -0.1149
10884W        W27732   2.444   2.951   3.546 -0.1860 -0.0143  0.2706
10885W        W27733   2.199   5.765   2.900  0.0291 -0.0785  0.1676
10886W        W27734   1.464   7.871   1.022 -0.0867  0.0366 -0.1217
10887W        W27735   9.225  14.657  12.378 -0.2083 -0.0778  0.2790
10888W        W27736   8.380   0.600   0.206  0.0760  0.2493  0.1892
10889W        W27737   2.609   1.148   2.982 -0.0715  0.1782  0.0301
10890W        W27738   1.484  13.245  15.536 -0.0166 -0.1560 -0.2845
10891W        W27739  12.043  15.828   2.023 -0.1691  0.0477 -0.1002
10892W        W27740   3.727   6.124  14.827 -0.2519 -0.4371 -0.2560
10893W        W27741   3.200   2.155   0.542  0.0523 -0.1595 -0.0857
10894W        W27742  14.417   8.570   2.321 -0.1401 -0.2335 -0.0065
10895W        W27743  11.573   0.215   1.393  0.1273 -0.2920  0.2840
10896W        W27744   3.144   1.795  12.255  0.2299 -0.2384 -0.0339
10897W        W27745  12.668  12.360  15.152 -0.1471 -0.3432 -0.1740
10898W        W27746  17.587  15.260  14.442 -0.0322  0.1656  0.1597
10899W        W27747  12.255  16.770   3.305  0.3138  0.0558 -0.1525
10900W        W27748   0.913  10.262  11.356 -0.0520 -0.0977 -0.2707
10901W        W27749  12.337   5.167   1.270 -0.0888 -0.0397 -0.2141
10902W        W27750   5.641   2.842   1.364 -0.0749  0.1203  0.0636
10903W        W27751   0.651   4.998  15.963  0.1537 -0.1179 -0.1667
10904W        W27752   4.780  12.590  15.849  0.0092  0.0387  0.0045
10905W        W27753   7.871   4.489   3.429 -0.1334 -0.0149 -0.3748
10906W        W27754  15.455   9.946  11.534  0.1314 -0.1695 -0.2808
10907W        W27755  11.846  12.914  10.625  0.0572 -0.0835 -0.0267
10908W        W27756  15.427   3.197   4.736  0.0676  0.0325  0.2336
10909W        W27757  16.635   8.629  10.965 -0.2004 -0.0418 -0.0399
10910W        W27758  12.453  12.278  14.612  0.0917  0.2642 -0.0027
10911W        W27759   5.545   4.831  15.935 -0.0136  0.3327 -0.0315
10912W        W27760  12.447  11.042   0.286 -0.1102  0.2862 -0.0695
10913W        W27761   9.738  15.435   5.420  0.0263  0.1007 -0.4089
10914W        W27762   0.077  13.244  16.228 -0.1279 -0.1738 -0.1255
10915W        W27763   3.037  13.656  14.193 -0.1590 -0.1043 -0.0402
10916W        W27764  17.269   3.121   3.997  0.1053 -0.1063  0.1611
10917W        W27765   8.941   0.811   3.209 -0.1226  0.0307 -0.1194
10918W        W27766  16.163   8.094   3.693  0.2427  0.1497 -0.1436
10919W        W27767  11.903   8.936  12.487 -0.0630  0.1525 -0.2049
10920W        W27768  14.665   5.196  11.463 -0.1196  0.0264 -0.2430
10921W        W27769   3.625   8.712  14.681 -0.1492  0.1089  0.3521
10922W        W27770  10.209  14.187   0.198  0.1557  0.2380  0.0767
10923W        W27771  10.283  13.873  12.508 -0.4059 -0.0791 -0.0505
10924W        W27772   7.797   3.346   1.296  0.0354  0.0672  0.0670
10925W        W27773   5.021   4.368   2.742  0.1268  0.1460  0.0595
10926W        W27774   7.986  11.811  16.227  0.1314 -0.0439  0.0386
10927W        W27775   1.719  12.915   1.951 -0.2423 -0.1346 -0.1663
10928W        W27776  16.106   3.853  11.432 -0.0623 -0.0723  0.0416
10929W        W27777   9.522   6.103  12.587  0.1201 -0.0558 -0.1819
10930W        W27778   1.011  17.519   4.695  0.0830 -0.2949 -0.0014
10931W        W27779  13.676  15.852   2.743 -0.0047  0.0567  0.1258
10932W        W27780   6.345   7.694  12.132 -0.1536  0.4719  0.0585
10933W        W27781  14.234  10.786  14.306  0.0587  0.1675 -0.0429
10934W        W27782  12.110   3.056  13.644  0.2033 -0.1711 -0.4017
10935W        W27783   5.382   4.570  14.377  0.1109 -0.1592  0.0526
10936W        W27784  17.251  16.512  14.724 -0.1610 -0.2128 -0.3678
10937W        W27785   2.471  15.228  11.537  0.0622  0.3869  0.1680
10938W        W27786   8.878   4.731   4.051 -0.0479 -0.0009 -0.2323
10939W        W27787   4.063   8.842   1.863  0.1635  0.0833  0.3130
10940W        W27788  15.155  17.807  11.184  0.1091  0.1631  0.4859
10941W        W27789  13.009  17.303  12.589 -0.1578  0.0486 -0.1865
10942W        W27790  10.902  17.816   4.542  0.3042  0.0970  0.0881
10943W        W27791   9.409  15.460  13.580  0.2280 -0.0438 -0.1452
10944W        W27792  11.227  10.667   0.154 -0.1305 -0.1582 -0.0388
10945W        W27793  14.541   9.191  10.975 -0.0196  0.0384 -0.1534
10946W        W27794  15.363   8.950   0.401 -0.0956 -0.0654  0.1542
10947W        W27795  14.249  12.417  11.882 -0.1637  0.1334 -0.0754
10948W        W27796  14.653   8.349   3.200 -0.1945  0.4099  0.0617
10949W        W27797  11.359   5.524  10.250  0.3477 -0.0929  0.0189
10950W        W27798  12.945   2.351   0.883 -0.0128  0.0557  0.3565
10951W        W27799   8.697  15.099   3.403 -0.0710 -0.0805  0.1837
10952W        W27800   6.818   1.980  10.488  0.0879 -0.2329  0.1101
10953W        W27801  13.557   7.339  14.763 -0.2667 -0.2790  0.1395
10954W        W27802   2.460   7.213   0.055  0.3523  0.1961  0.0233
10955W        W27803  17.590  12.015   2.376  0.0214  0.1748  0.1353
10956W        W27804   9.361  11.973  14.525 -0.2115  0.2649  0.0116
10957W        W27805  10.007  17.244  12.833 -0.0481 -0.3080 -0.0835
10958W        W27806   9.829  17.074   2.201 -0.0914  0.0441  0.0220
10959W        W27807  16.705   1.613  10.272  0.0190 -0.2204 -0.2144
10960W        W27808  16.334   5.544  11.836  0.0650  0.1276  0.1979
10961W        W27809  16.460   8.396  12.616 -0.0946 -0.0950  0.1667
10962W        W27810   4.426   4.030  12.935 -0.2436  0.1095 -0.0901
10963W        W27811  14.374   3.613  11.995 -0.0077  0.2890  0.1369
10964W        W27812  12.290   4.306  14.515 -0.1726 -0.0593 -0.0569
10965W        W27813  15.789   6.973  13.147  0.1012  0.0525 -0.3339
10966W        W27814   9.529  15.271  11.551  0.0520 -0.1494  0.1365
10967W        W27815   3.508   1.219   4.817 -0.2649  0.1820  0.0023
10968W        W27816   1.158   7.752  11.250 -0.0028  0.2652 -0.0330
10969W        W27817   1.961  15.489  10.863 -0.2385 -0.3531  0.0022
10970W        W27818  13.769  15.272   4.987 -0.2409 -0.0394  0.0924
10971W        W27819   6.243   7.554  15.485 -0.0164  0.2366 -0.1194
10972W        W27820  15.681   6.336  15.924 -0.2358  0.2302  0.0364
10973W        W27821   2.872   1.938  11.826  0.1655 -0.2260  0.0842
10974W        W27822  16.861   6.236  12.016  0.0359 -0.1850  0.0753
10975W        W27823   5.349   9.131   3.741 -0.1596 -0.0091 -0.1046
10976W        W27824   6.170  15.007  16.275 -0.6703 -0.0604 -0.3625
10977W        W27825  16.254   3.498  10.670 -0.5205  0.1267 -0.3306
10978W        W27826   2.282   5.656  14.181  0.1590  0.2890  0.0645
10979W        W27827   8.371  11.861  12.844 -0.0456  0.0832  0.2734
10980W        W27828   9.508  16.475   3.329 -0.2904 -0.1423  0.0134
10981W        W27829   8.734  11.039   1.065  0.0128 -0.1619 -0.3126
10982W        W27830   7.675   9.959   3.918 -0.5365 -0.4309 -0.0963
10983W        W27831  13.545  16.801  15.486  0.0751  0.1390 -0.2466
10984W        W27832  16.547  18.027  14.936  0.0595 -0.2680  0.1617
10985W        W27833   1.896  14.813  15.504  0.1716  0.2647 -0.0571
10986W        W27834   8.685  11.475  12.941  0.0811  0.0031 -0.3723
10987W        W27835  16.105   5.260  11.104  0.0973  0.0411  0.1835
10988W        W27836   4.608   5.124   2.697  0.0832 -0.0115  0.0420
10989W        W27837   1.499  12.127   0.186 -0.0761  0.1772  0.0000
10990W        W27838  14.851   6.717  13.190  0.0687 -0.0335 -0.0701
10991W        W27839  12.404   8.896  13.228 -0.2163 -0.2689  0.1559
10992W        W27840   6.636  15.833   1.528 -0.2259 -0.2072 -0.1343
10993W        W27841  12.431   2.237  12.078 -0.0772 -0.1188 -0.2406
10994W        W27842  15.607   8.751   4.133 -0.1690  0.1119 -0.2655
10995W        W27843   4.468  10.529   3.021 -0.1365  0.1126 -0.1255
10996W        W27844  12.339   8.293  12.309  0.2808  0.0099 -0.0447
10997W        W27845  13.106   5.446  13.817 -0.0178  0.3831  0.1761
10998W        W27846  11.597  13.380  14.293 -0.0550  0.2138  0.2257
10999W        W27847  17.836  14.549   3.743  0.4288  0.0775  0.0518
11000W        W27848   5.537   1.205  13.608 -0.1217  0.1411  0.0703
11001W        W27849   2.076   7.130   3.965 -0.0375  0.0590  0.2915
11002W        W27850   4.134   4.978  14.945 -0.0029 -0.0945 -0.1537
11003W        W27851  15.579  14.360  15.056  0.4931 -0.1792 -0.1062
11004W        W27852  11.190  12.563   1.586  0.0920  0.2088  0.1004
11005W        W27853   3.529  13.760  10.206 -0.0841 -0.0082 -0.0517
11006W        W27854  12.964   4.883  13.914  0.2030 -0.0358  0.0188
11007W        W27855  13.014  11.335  13.811 -0.2091  0.1176 -0.0079
11008W        W27856  13.290   0.562   0.574 -0.0340  0.1159  0.3401
11009W        W27857  16.452  16.432  14.286 -0.1880 -0.0305 -0.1753
11010W        W27858   3.562  17.655  13.881  0.0259  0.0691 -0.0293
11011W        W27859   4.495  17.886   4.088 -0.3551 -0.1264 -0.0742
11012W        W27860   9.381   5.890   2.987 -0.0246  0.0512 -0.0210
11013W        W27861   3.587   8.712  10.521  0.0312  0.1093 -0.0534
11014W        W27862   2.172  11.828   2.697 -0.1632  0.0090  0.1063
11015W        W27863   2.596   8.133   0.365 -0.1712 -0.2300  0.3103
11016W        W27864  10.454   7.959  11.272 -0.1014 -0.2723  0.0158
11017W        W27865  14.527  12.431   0.029  0.2587 -0.1253 -0.0045
11018W        W27866  15.519   8.970  13.465  0.1625  0.1349 -0.0245
11019W        W27867   1.080   4.951   3.362  0.2356 -0.0837 -0.0598
11020W        W27868   9.519   1.158  13.590  0.0921  0.1155  0.0782
11021W        W27869   3.942  10.770  14.877  0.0581 -0.2341  0.5011
11022W        W27870  11.165  12.094   3.462 -0.0439  0.1522 -0.1099
11023W        W27871  10.220   2.313  13.807 -0.0170  0.2917  0.3977
11024W        W27872   2.511   4.109   0.053  0.6137  0.0297  0.0247
11025W        W27873  16.827  13.799   4.604  0.1225 -0.0287 -0.0910
11026W        W27874  10.356  11.067  10.016 -0.1023  0.0140  0.1182
11027W        W27875  13.057  13.677   3.495 -0.0626 -0.2198 -0.2192
11028W        W27876  15.895   9.811  16.034  0.1969  0.1707  0.1345
11029W        W27877   1.816   2.862   4.774  0.1278  0.0193  0.1869
11030W        W27878  12.121  15.392   4.551 -0.2799 -0.0678 -0.2902
11031W        W27879  17.406   9.092   1.234 -0.0414 -0.0799 -0.3150
11032W        W27880  17.573  12.121   0.910  0.0982 -0.1923 -0.6068
11033W        W27881   0.177  10.472   2.951 -0.2310  0.1363  0.2053
11034W        W27882  11.472  16.989   2.604  0.2035 -0.4139  0.2621
11035W        W27883   8.339  12.101   0.953 -0.1367 -0.0185  0.0731
11036W        W27884   5.180  15.027   0.376  0.1202 -0.0446 -0.5630
11037W        W27885   1.609  12.583  15.626  0.3316  0.0345 -0.0089
11038W        W27886  17.162  14.187  15.108 -0.1385 -0.0845  0.2115
11039W        W27887   4.278   3.598   1.413  0.3620  0.0186  0.0439
11040W        W27888   8.261  10.932   0.712  0.0884 -0.1786 -0.1341
11041W        W27889  17.749   2.734   2.928 -0.2471  0.1210 -0.0542
11042W        W27890   3.881   1.947  14.284  0.1907 -0.0739 -0.0373
11043W        W27891   7.042  13.067  13.226 -0.0646  0.1526  0.0295
11044W        W27892  17.628  18.031   4.837  0.2144  0.0930 -0.4822
11045W        W27893   4.220  16.415  12.886  0.1962 -0.0685 -0.3343
11046W        W27894   5.816   0.801  13.750 -0.1398 -0.0733  0.1898
11047W        W27895  11.498  16.741   1.261 -0.1810 -0.2658 -0.1179
11048W        W27896  16.876  12.120   0.829  0.1715  0.0837  0.0915
11049W        W27897   1.994   9.460  15.560  0.2745 -0.3925 -0.2397
11050W        W27898  17.046   1.642  12.803 -0.1159 -0.2731 -0.0657
11051W        W27899  15.034   1.428  11.398  0.1242  0.2777  0.0759
11052W        W27900   4.431  11.300   2.644  0.3399 -0.0709 -0.0757
11053W        W27901   7.269   8.636  14.309  0.0656 -0.0413 -0.0005
11054W        W27902   7.302   7.845   5.369 -0.1530 -0.0194  0.1413
11055W        W27903  16.690  12.283   0.397 -0.2987 -0.0881  0.4241
11056W        W27904  10.433   0.589   1.221 -0.1012  0.0534 -0.1952
11057W        W27905   2.455   2.801   1.917  0.0053 -0.1320 -0.2266
11058W        W27906   3.385   5.805  15.112 -0.2516  0.2039  0.1039
11059W        W27907  11.552   1.175   1.578  0.1704 -0.0967 -0.2727
11060W        W27908   7.940   9.765  14.570 -0.3183 -0.1612 -0.0718
11061W        W27909   2.211  15.471  12.468  0.0768 -0.2356  0.1341
11062W        W27910  10.225  11.832  15.223 -0.0864  0.2166  0.1784
11063W        W27911   4.098  15.819   3.470  0.1186  0.0368 -0.0219
11064W        W27912   9.617   7.170   4.390 -0.0084 -0.2088 -0.1735
11065W        W27913  17.088  14.412   1.791 -0.1716  0.0554  0.2422
11066W        W27914   0.941   9.797  11.190  0.0262 -0.1701  0.1011
11067W        W27915   0.369   1.313  15.986  0.0447  0.1908  0.0868
11068W        W27916  16.018  11.217  13.222  0.0828  0.0819  0.0892
11069W        W27917   3.849   7.668  15.543 -0.2741  0.0618 -0.2503
11070W        W27918   6.078  13.799   4.833 -0.0450 -0.0013 -0.1237
11071W        W27919   3.712  12.834  13.653 -0.1050  0.0621  0.0734
11072W        W27920   0.182  12.051  10.781 -0.2112 -0.0748 -0.1809
11073W        W27921  14.633   1.289  16.175 -0.1283  0.1909 -0.0111
11074W        W27922   0.457   3.341  13.818 -0.1744 -0.3192 -0.1995
11075W        W27923   8.881   1.693  15.513  0.0927  0.1296  0.3090
11076W        W27924  12.194  16.220  12.661 -0.1773  0.1799 -0.0606
11077W        W27925   9.781   0.885   4.578  0.0603  0.0876 -0.0205
11078W        W27926  10.067  12.514  12.090  0.1395 -0.1089  0.0295
11079W        W27927  16.878  17.571  14.951 -0.0400  0.3460  0.2977
11080W        W27928  16.132  17.705  14.230 -0.2708  0.1930 -0.0303
11081W        W27929   8.962   1.185  13.949  0.0708  0.1037  0.0704
11082W        W27930  14.268   2.555   5.280 -0.1724 -0.0007  0.3426
11083W        W27931  14.731  15.647  15.011 -0.2567 -0.2228 -0.3871
11084W        W27932  10.119  11.682  11.441  0.0558 -0.1891 -0.0383
11085W        W27933   1.410   9.695  13.796  0.0905  0.0894  0.0404
11086W        W27934   2.579  12.130   2.770 -0.2568 -0.0427  0.1097
11087W        W27935   0.877   4.530  14.308  0.1376  0.1185  0.3032
11088W        W27936  10.680  15.732  16.025  0.0957  0.1999 -0.0467
11089W        W27937  12.247   7.940  14.121 -0.2230  0.2089 -0.0238
11090W        W27938  10.435  14.527   2.264 -0.2104 -0.0687  0.1541
11091W        W27939   9.753   9.483   2.193  0.3434 -0.0039  0.1773
11092W        W27940   2.166   9.638  13.373  0.2873  0.2334  0.1750
11093W        W27941   1.859   5.614   5.910  0.0549  0.1678 -0.0840
11094W        W27942   7.793   8.275  15.012 -0.0653  0.1689  0.3618
11095W        W27943  10.763  17.711   1.933  0.0401 -0.0767 -0.2777
11096W        W27944  11.293  18.014  12.424  0.0254 -0.1675  0.1361
11097W        W27945  17.910   3.597  11.321  0.0326  0.2093  0.1673
11098W        W27946  17.006   5.523  15.596  0.1552 -0.2023  0.1824
11099W        W27947  10.899  16.372   4.063  0.6230 -0.1550  0.1987
11100W        W27948   2.543  11.741  14.910 -0.0919 -0.1162  0.1519
11101W        W27949  14.224   5.319  15.152  0.0027  0.4411 -0.2548
11102W        W27950   8.559  13.254   0.073 -0.0253  0.2054 -0.1333
11103W        W27951  14.266  15.348  11.709 -0.1921  0.1347  0.3792
11104W        W27952   4.207   7.771  15.945 -0.1057  0.2442  0.0894
11105W        W27953   7.395   1.757  11.704  0.0464 -0.1066 -0.0241
11106W        W27954   6.768  14.553  12.775  0.0636 -0.1048 -0.2337
11107W        W27955  17.697  12.600   0.824 -0.0366  0.1088  0.2869
11108W        W27956   7.842   3.444  11.222 -0.0754  0.0048 -0.1958
11109W        W27957  17.937  12.249  14.896  0.2787 -0.0170  0.2470
11110W        W27958   9.768   6.990   2.176  0.4297  0.0850 -0.0034
11111W        W27959  11.215   5.820  13.839  0.2546 -0.0094  0.1806
11112W        W27960   7.635   0.749   4.634  0.1884  0.3115 -0.0296
11113W        W27961  16.584  17.824   0.265 -0.0705 -0.1269  0.0105
11114W        W27962  13.270   3.410   1.945  0.1355 -0.1543 -0.1285
11115W        W27963  13.158  13.169   0.560  0.0574  0.1311  0.1906
11116W        W27964  16.087   3.731   1.570 -0.2116  0.1239 -0.1288
11117W        W27965   7.850  15.317   5.174  0.0108 -0.0033 -0.2518
11118W        W27966   8.936  13.564  11.379 -0.1517  0.1733 -0.0551
11119W        W27967   0.328   2.419  11.675 -0.4370  0.0121  0.2868
11120W        W27968   4.856   8.328  13.418 -0.0809 -0.1268 -0.0728
11121W        W27969   5.671   9.684   2.434  0.0116 -0.1540  0.0688
11122W        W27970   2.480  13.503   2.278 -0.1636 -0.1548 -0.0946
11123W        W27971  17.095  15.073   3.260  0.0194  0.1651  0.1258
11124W        W27972  10.246   9.225   2.944  0.4537  0.2982 -0.0631
11125W        W27973   2.824   5.131   0.555  0.2062 -0.2460  0.0402
11126W        W27974  12.362  15.543   3.332 -0.2733  0.0661  0.1907
11127W        W27975   2.941   2.462   0.192  0.1949 -0.1088 -0.0337
11128W        W27976   2.563   2.431  15.278  0.0911  0.1567 -0.2953
11129W        W27977   3.981   3.270   3.469 -0.0692  0.4188  0.2748
11130W        W27978   4.074   3.324   0.254  0.0283 -0.0795  0.3429
11131W        W27979  12.050  11.648  11.896 -0.1746 -0.0988  0.3201
11132W        W27980  11.668  16.164   1.857  0.2625 -0.0470  0.1558
11133W        W27981   4.810  15.138  14.083 -0.0752  0.1251  0.0044
11134W        W27982   9.504  16.492  10.344  0.0339  0.2478 -0.2128
11135W        W27983  11.157  10.223   5.459 -0.2891 -0.0268  0.0141
11136W        W27984  13.976  12.989  15.967 -0.2520 -0.2186 -0.3614
11137W        W27985   5.377   1.244   3.460  0.1820  0.0558  0.1769
11138W        W27986  17.469   2.690   5.148  0.0128 -0.1791  0.1284
11139W        W27987   5.546  14.744  12.983  0.0441  0.0754  0.0740
11140W        W27988   4.650   8.082  11.957 -0.2163 -0.0578 -0.0624
11141W        W27989   3.792   0.863   1.907  0.2656  0.0035 -0.2462
11142W        W27990  12.585   0.278  11.928 -0.0806 -0.1798  0.1416
11143W        W27991   6.542  13.733   1.882  0.3604  0.1966 -0.1142
11144W        W27992   5.596  12.078  12.666 -0.1958  0.3655 -0.1830
11145W        W27993   1.712  15.938   3.269 -0.4204  0.0883 -0.0755
11146W        W27994   3.690   9.149   2.450 -0.2956 -0.1830 -0.1316
11147W        W27995  10.200   2.509  11.346 -0.1448  0.0176  0.1561
11148W        W27996  15.800   0.944   0.115 -0.1246  0.0583 -0.3239
11149W        W27997   4.144   0.608   1.671  0.0480  0.0279 -0.0314
11150W        W27998  12.452   4.815  16.083 -0.2499  0.1775 -0.1935
11151W        W27999   0.611  12.070   2.705  0.1050 -0.3801 -0.1993
11152W        W28000  15.383  11.408   4.717 -0.0571 -0.1400 -0.1069
11153W        W28001  14.491   6.382   5.110 -0.2828  0.2653  0.0391
11154W        W28002   2.664  18.034  14.806  0.1789 -0.0952 -0.2762
11155W        W28003  10.279   0.650  15.830 -0.2772  0.2067  0.2356
11156W        W28004  12.215   6.244   0.203 -0.0708 -0.0239 -0.0308
11157W        W28005   4.647  17.684   1.593 -0.0216 -0.1881 -0.0847
11158W        W28006  13.429   2.305   0.115  0.1840  0.1791  0.2260
11159W        W28007   7.677  12.599  15.132 -0.0439 -0.2801 -0.0374
11160W        W28008  17.346   0.461  10.290 -0.0766 -0.1158 -0.2173
11161W        W28009  10.933   3.169  15.738  0.4137 -0.0016  0.0944
11162W        W28010  17.678  12.360  14.005  0.0606  0.1596  0.2769
11163W        W28011   6.623  14.020   2.992 -0.0808 -0.1328 -0.3805
11164W        W28012  11.941   8.633   1.777  0.3086  0.0336  0.1700
11165W        W28013  16.857   3.953   4.118 -0.2290 -0.2246  0.0753
11166W        W28014   7.674   9.517   1.157 -0.1659 -0.0641 -0.0384
11167W        W28015  13.242   7.842   2.514  0.0428 -0.0202  0.1114
11168W        W28016   4.196   7.502   5.223 -0.2375 -0.0385  0.0125
11169W        W28017   1.053   1.807  11.500  0.1258  0.0948  0.3506
11170W        W28018  10.191   7.486  11.274  0.3010  0.1836  0.2623
11171W        W28019   4.294   1.965   0.721  0.0301 -0.0109  0.1050
11172W        W28020   3.523   8.353   4.628  0.0033  0.0145 -0.0311
11173W        W28021   2.842   1.362   2.142 -0.2735  0.1079  0.0803
11174W        W28022  12.570   8.415  11.791 -0.0739  0.1823 -0.1091
11175W        W28023   7.085   0.049  16.002 -0.1380  0.0023 -0.0547
11176W        W28024   5.722  13.515  13.892  0.2850  0.2052  0.0925
11177W        W28025  10.169   0.988   5.920  0.1438 -0.0485  0.0041
11178W        W28026  15.314   1.709   2.775 -0.3804 -0.3445  0.0375
11179W        W28027   6.146  14.422  14.627 -0.0486 -0.1960  0.0774
11180W        W28028   2.748  12.901   3.652  0.0398 -0.2483  0.2537
11181W        W28029  16.061   1.541   4.551 -0.0196 -0.0638  0.2457
11182W        W28030  11.657  14.021   5.269 -0.1104 -0.1561  0.1678
11183W        W28031   0.800   7.885   4.220 -0.0312  0.1576 -0.0352
11184W        W28032   2.105   9.365  11.373 -0.2221 -0.0874  0.0119
11185W        W28033  12.108   3.720   2.675 -0.2198 -0.3474  0.0756
11186W        W28034   2.116  14.204   1.644 -0.1927 -0.0205 -0.0649
11187W        W28035   5.393   0.480   1.676 -0.3916  0.0363  0.0837
11188W        W28036   1.956   9.396   0.011 -0.2853 -0.1239 -0.2268
11189W        W28037  13.714  11.654  13.350  0.4322 -0.2521  0.1847
11190W        W28038   9.361   4.570   3.736 -0.0226 -0.0260  0.1170
11191W        W28039   6.928   7.742  12.923  0.0430  0.1414 -0.1943
11192W        W28040  16.048   0.839  13.308  0.1399  0.0837 -0.0514
11193W        W28041  10.226  14.772  12.302  0.0630 -0.1613  0.1361
11194W        W28042  11.964   4.773   3.960 -0.0880 -0.2418 -0.2845
11195W        W28043  12.480   4.738   3.265 -0.3553  0.0874 -0.2028
11196W        W28044  14.962   4.019  13.984  0.0583  0.3282 -0.0016
11197W        W28045   4.479  14.391  13.459 -0.0636 -0.1310  0.0158
11198W        W28046   5.223   6.447   1.386 -0.1184  0.1702 -0.1743
11199W        W28047   7.479   9.027  14.849 -0.2121 -0.2119 -0.0194
11200W        W28048   7.938  14.895  11.220  0.1842 -0.0767 -0.2622
11201W        W28049  10.314  17.609  15.689  0.2479 -0.0988 -0.1119
11202W        W28050   6.912   0.267   2.393 -0.0687  0.2045 -0.1323
11203W        W28051  16.887  17.130  11.270  0.2318  0.0292  0.1266
11204W        W28052   0.843   7.857  13.394 -0.0891  0.2315 -0.4062
11205W        W28053  10.426   1.049  13.271  0.0369  0.1239 -0.0242
11206W        W28054   3.713  10.856  10.311 -0.0334 -0.0675 -0.0249
11207W        W28055  11.018   7.919  11.778 -0.0192 -0.1451 -0.3445
11208W        W28056  15.562   5.376  13.451  0.1637 -0.1437  0.1589
11209W        W28057   8.575  14.816   2.979 -0.0363  0.0939  0.0695
11210W        W28058  11.642   0.133   0.354  0.1505 -0.0507 -0.3068
11211W        W28059  14.187  15.833  11.983  0.2634  0.0184 -0.2567
11212W        W28060  10.222   7.953   0.333 -0.4716 -0.0180  0.1061
11213W        W28061   9.093  12.329   0.520 -0.2281 -0.0295  0.0686
11214W        W28062   0.139   5.132   0.356  0.2475  0.1451  0.4485
11215W        W28063   4.063  13.554   0.338  0.1904 -0.0030 -0.0715
11216W        W28064  16.724  13.397   2.698 -0.3130  0.2918  0.4355
11217W        W28065   6.987   8.876  13.973  0.1495  0.1456 -0.2520
11218W        W28066  14.480   8.666  10.920 -0.0451 -0.2226  0.0426
11219W        W28067   0.309  12.480   0.916  0.4567 -0.1073  0.1615
11220W        W28068   7.160  14.909   2.895  0.0937  0.1827 -0.0124
11221W        W28069  16.618  17.150  14.694 -0.1950 -0.3309  0.1390
11222W        W28070  14.641  10.721  12.132  0.1035  0.1012 -0.1735
11223W        W28071  14.419  17.732   4.913 -0.1876  0.1909 -0.0361
11224W        W28072   3.897  11.587   1.472 -0.1229  0.1778 -0.1079
11225W        W28073   4.081   1.983  12.716  0.1750 -0.0085 -0.0970
11226W        W28074   8.205   0.256   0.550  0.1471 -0.2025 -0.0402
11227W        W28075   2.181  13.734   4.649  0.2006 -0.1942  0.0102
11228W        W28076  16.488  15.872   1.705  0.1284  0.0815  0.2554
11229W        W28077  12.933  13.662   3.002 -0.2115 -0.0763  0.4993
11230W        W28078  12.460  17.147   4.578 -0.0224 -0.0376 -0.2069
11231W        W28079   5.815   0.256  15.307 -0.0596  0.2471 -0.2082
11232W        W28080   7.510  16.657   4.595  0.0985  0.2117  0.0234
11233W        W28081  13.633   1.158   3.586 -0.0335  0.2724  0.0924
11234W        W28082   3.307   0.813  10.545 -0.0063  0.3510  0.1290
11235W        W28083  13.286   9.985  15.996 -0.2142  0.0487 -0.0403
11236W        W28084   3.668   8.226  11.256  0.0124  0.0832 -0.1446
11237W        W28085   0.101   7.623   0.641  0.1911 -0.1459  0.2154
11238W        W28086  13.044  16.451   4.582 -0.0990  0.1149 -0.0479
11239W        W28087   8.590  15.515   1.871 -0.2591  0.2776  0.1204
11240W        W28088   9.594   2.848  14.325 -0.1399 -0.0195  0.3130
11241W        W28089   7.135   8.980   6.144  0.2125  0.0038 -0.1676
11242W        W28090  17.441   2.595  15.034  0.0523 -0.2257  0.2131
11243W        W28091   4.583   1.798   4.406  0.1718 -0.0250 -0.1750
11244W        W28092  14.515   9.874  12.191 -0.1613 -0.4548 -0.2028
11245W        W28093   1.260  11.807   4.393 -0.1262 -0.2195  0.1633
11246W        W28094  13.035   0.923  11.556  0.2685  0.1687  0.0525
11247W        W28095   1.224   5.821  16.096  0.0154  0.2674  0.1575
11248W        W28096   5.138  13.510  13.345  0.1362 -0.1327 -0.0540
11249W        W28097  14.462   9.363  10.127  0.1786 -0.2802 -0.2923
11250W        W28098   2.366   2.960  15.067 -0.0020 -0.0031 -0.1459
11251W        W28099  14.161   0.371   3.069 -0.1908  0.2627 -0.1199
11252W        W28100   5.621  14.008   3.151  0.4210  0.0967 -0.2251
11253W        W28101  10.469   1.954   1.510 -0.1548  0.1222 -0.0841
11254W        W28102  15.812   3.190  13.348 -0.1472  0.0573  0.0698
11255W        W28103  14.990   1.231  15.347 -0.0109 -0.1445  0.1189
11256W        W28104   8.978  12.972  12.359  0.2307 -0.3461  0.3325
11257W        W28105  10.360  11.034   3.612  0.1125  0.2717  0.0205
11258W        W28106   9.739  11.079   0.571  0.0568 -0.3138 -0.0825
11259W        W28107  10.763  10.139  14.196  0.3378  0.1327  0.0452
11260W        W28108  14.190  16.308  14.854 -0.0443  0.1057 -0.0625
11261W        W28109   0.288   7.339   3.645 -0.3101 -0.0201 -0.1574
11262W        W28110   3.044   5.742   2.468  0.0299 -0.2076  0.1543
11263W        W28111   2.322  16.265   3.280  0.4009 -0.0702 -0.0566
11264W        W28112   3.830  17.231   4.551  0.1486 -0.1225  0.2664
11265W        W28113  10.020  17.751  12.778 -0.0260 -0.2904  0.0840
11266W        W28114   7.161   0.945   5.386  0.3426  0.1179 -0.0463
11267W        W28115  15.359  17.256   3.234 -0.2346 -0.1325  0.4459
11268W        W28116   1.439   3.489   1.021 -0.0145 -0.1387 -0.2333
11269W        W28117   0.540   5.549  14.337  0.2033 -0.2345 -0.0422
11270W        W28118  10.122   8.298   3.055  0.0563  0.2303 -0.1413
11271W        W28119   2.575   8.294   4.576  0.1387 -0.4183  0.0699
11272W        W28120  14.396  10.357   0.697  0.0507 -0.0825  0.1952
11273W        W28121   1.926   0.694  10.449  0.0562 -0.1513 -0.0055
11274W        W28122   0.139  12.197   2.564  0.2014  0.2012 -0.3336
11275W        W28123   1.554   6.738  13.720  0.2194  0.0615  0.1736
11276W        W28124  11.467  14.641   1.815  0.0555  0.1706 -0.0917
11277W        W28125  12.581  11.791   0.719  0.0082 -0.1042 -0.0571
11278W        W28126  12.582   5.304  12.563  0.2369  0.0327 -0.0595
11279W        W28127   5.175   0.578   4.635 -0.1908 -0.0198  0.1212
11280W        W28128   0.128  10.403   0.790  0.1196  0.1591 -0.0005
11281W        W28129  16.562   9.319   4.423  0.0278 -0.0437 -0.0566
11282W        W28130  12.887  15.596   0.523  0.0418  0.0956 -0.3460
11283W        W28131  12.660  12.014  10.722  0.0399 -0.0155  0.1609
11284W        W28132  10.179  13.423   2.909 -0.3298  0.0330  0.1170
11285W        W28133  16.960  11.289  14.586 -0.1373  0.2571 -0.1323
11286W        W28134  12.163   4.835   5.378 -0.0703  0.0174  0.1246
11287W        W28135   6.313   6.480  12.855 -0.2209  0.5013 -0.1636
11288W        W28136   4.764   1.541   2.899  0.3012  0.0121  0.0757
11289W        W28137   9.615   8.785  14.967 -0.2623 -0.1910 -0.1883
11290W        W28138   5.954   4.814   0.906 -0.2067 -0.3273 -0.1469
11291W        W28139  11.263   6.765  12.194 -0.0108  0.0664 -0.1040
11292W        W28140  16.377   2.895   2.737  0.3339  0.1806  0.0565
11293W        W28141  12.502  15.501  14.298 -0.1800 -0.0314 -0.0359
11294W        W28142  10.552  15.154  12.323  0.0440 -0.3809 -0.0124
11295W        W28143   3.546   4.727  11.822  0.1038  0.4893 -0.0101
11296W        W28144  14.109   2.562   2.075 -0.3425 -0.1666 -0.1112
11297W        W28145   2.810  10.849   1.028  0.2233  0.0894  0.3520
11298W        W28146  12.613  15.421   1.916  0.1974 -0.1317  0.0758
11299W        W28147   1.234   1.823  14.018  0.3585 -0.1272 -0.1205
11300W        W28148   7.196  10.348  10.361 -0.3664 -0.2539 -0.0761
11301W        W28149   3.932   0.302  11.446 -0.0533  0.1325  0.1821
11302W        W28150   9.064   4.820   4.605 -0.1858 -0.1040 -0.1321
11303W        W28151   2.356   4.366   1.946  0.2900  0.1115 -0.0010
11304W        W28152  11.618   1.028   2.064  0.0692  0.0313 -0.5430
11305W        W28153  17.932  17.666  16.070  0.1285  0.0197  0.1094
11306W        W28154  10.798   6.724  15.234 -0.1673  0.1014 -0.0406
11307W        W28155   5.059   4.593   3.782 -0.0082 -0.3251  0.2142
11308W        W28156   3.315   8.779  15.551 -0.1949 -0.1418  0.2171
11309W        W28157  16.838   6.073   1.670 -0.0400 -0.0393 -0.0402
11310W        W28158   7.894  15.439  11.098  0.1335 -0.1299  0.0569
11311W        W28159   9.093  13.605   2.615  0.0579 -0.0830  0.0771
11312W        W28160  17.248   9.849   2.190 -0.3347 -0.0919  0.0387
11313W        W28161  15.535   6.352  13.781  0.0951 -0.0763  0.0969
11314W        W28162  15.730   6.450   0.163  0.0039 -0.0324  0.0148
11315W        W28163   5.343   8.252  16.048  0.0606 -0.0958  0.3158
11316W        W28164  10.993   1.703  15.988 -0.0679  0.2733  0.3229
11317W        W28165   4.688   5.645  14.613  0.2436  0.1465 -0.1049
11318W        W28166  14.777   0.083  12.206 -0.1793 -0.0182  0.1290
11319W        W28167  13.961   3.913   1.392  0.0338  0.0683  0.2996
11320W        W28168   9.306  16.483  14.902 -0.1051 -0.1760 -0.0460
11321W        W28169   2.349   6.828   0.411  0.1211 -0.2291  0.4342
11322W        W28170  17.584   8.161  12.130  0.0455  0.0602  0.0409
11323W        W28171  14.901  10.774   3.716  0.0467  0.1967 -0.0665
11324W        W28172  13.880   8.984  11.657 -0.0068 -0.0916  0.1445
11325W        W28173   9.908  14.603  12.766  0.0318  0.0160 -0.0243
11326W        W28174  12.827  12.916  13.473 -0.2233  0.0688  0.3136
11327W        W28175  10.233  13.228   4.213  0.3456 -0.3035  0.0142
11328W        W28176  10.394  17.460   1.095  0.2464  0.1012 -0.0952
11329W        W28177  13.482  10.727  11.409 -0.1352 -0.1325  0.0010
11330W        W28178   3.777   3.317   1.312 -0.1381  0.0773 -0.4745
11331W        W28179   6.906   6.987   0.214 -0.1345  0.0100  0.2340
11332W        W28180  10.108  15.748   2.562 -0.3156 -0.2270 -0.0416
11333W        W28181  10.641   8.219   5.315  0.2670  0.0886  0.0779
11334W        W28182  14.289   0.082   0.567  0.1992 -0.2263 -0.1600
11335W        W28183   8.021  15.948  16.018 -0.1473  0.4161  0.1358
11336W        W28184  16.211  15.523  15.030 -0.1081  0.0578  0.1808
11337W        W28185  11.786   8.489   3.451 -0.0678  0.1158  0.0821
11338W        W28186   7.824   2.893   0.943 -0.0167  0.0194 -0.2280
11339W        W28187  13.893  11.625   0.951 -0.1316  0.1221 -0.0051
11340W        W28188  13.631   8.602   3.219 -0.0809 -0.2690 -0.0494
11341W        W28189   0.545   6.283   3.228  0.1103  0.0276  0.0357
11342W        W28190   8.570   1.457   2.636  0.3611 -0.1256  0.1103
11343W        W28191   6.989   5.457   4.643  0.0307  0.2427 -0.0451
11344W        W28192   3.732  11.895  13.225  0.2162  0.0141  0.1998
11345W        W28193   0.520  13.462   0.997 -0.0482  0.0652  0.0387
11346W        W28194  11.813   1.881   1.840  0.0495  0.1741  0.0672
11347W        W28195  11.934   4.930   0.970  0.1143 -0.2324 -0.0731
11348W        W28196   3.143   9.742  13.782 -0.0719 -0.0397 -0.2940
11349W        W28197   9.138  16.825  12.962 -0.0355  0.0153 -0.0295
11350W        W28198   7.496  15.493  13.600 -0.0420 -0.1830  0.1353
11351W        W28199  15.805  13.283  14.406  0.0967 -0.0022  0.2695
11352W        W28200   2.118  10.447  13.945  0.0093 -0.0113  0.0097
11353W        W28201   4.412  15.826  12.277 -0.3471 -0.2202  0.0004
11354W        W28202  15.875  12.250  16.094 -0.0851 -0.1780 -0.1803
11355W        W28203  17.436   9.191   3.791  0.0091  0.1201 -0.1072
11356W        W28204  16.236   2.532   3.430 -0.3743  0.0242 -0.1530
11357W        W28205  14.253  15.030   2.051  0.0349  0.0822  0.4200
11358W        W28206  12.777   4.121  10.326  0.1858  0.0675  0.0955
11359W        W28207  17.551   6.766  11.565 -0.0830  0.2135 -0.1250
11360W        W28208  13.181   9.936  14.600 -0.1126 -0.1120 -0.1538
11361W        W28209   4.534   6.206   5.093 -0.3284 -0.0240  0.0015
11362W        W28210   7.448   4.644   1.748  0.0728  0.4214  0.0610
11363W        W28211   3.763   5.749   4.528 -0.0635 -0.0309 -0.3172
11364W        W28212  17.872  10.535   1.230  0.0184  0.0617 -0.1589
11365W        W28213   0.692  14.349   0.398  0.0427 -0.2450  0.0544
11366W        W28214   9.762   2.363  11.557 -0.2783  0.0287  0.0577
11367W        W28215   2.241   1.539   3.063  0.2842 -0.0849 -0.0968
11368W        W28216   2.830   6.877   4.802 -0.0411  0.2625  0.2804
11369W        W28217  16.119  12.870   4.369  0.0026 -0.1264 -0.0199
11370W        W28218  13.988   3.025  15.544 -0.0486  0.0545 -0.0274
11371W        W28219  16.996  10.907   0.266  0.1723 -0.0130 -0.0659
11372W        W28220  17.043   7.116   3.940 -0.1314 -0.1714 -0.2552
11373W        W28221   3.469   8.318   2.094 -0.0555  0.1655  0.5276
11374W        W28222  16.278   7.578  16.255 -0.1850  0.5124 -0.1936
11375W        W28223  14.284  15.842  10.764 -0.1324  0.0825  0.0296
11376W        W28224   9.719   3.982   0.558 -0.1754  0.2959  0.2125
11377W        W28225   9.904  16.981   1.637 -0.1477  0.1500  0.0511
11378W        W28226  11.773  17.590  14.605  0.1091 -0.2667  0.0698
11379W        W28227  15.370   4.088   1.096  0.0531  0.1533  0.2134
11380W        W28228  12.808  13.389  16.096 -0.1014 -0.3125  0.0569
11381W        W28229   1.746  13.570  13.712 -0.1428  0.1969 -0.1937
11382W        W28230  16.929  16.486   0.368  0.1961 -0.3835 -0.0193
11383W        W28231   8.855  17.269  11.614  0.1141 -0.0219 -0.0699
11384W        W28232   9.094  14.694  11.852 -0.1940  0.0872 -0.9243
11385W        W28233  13.628   3.806  13.269  0.1216 -0.1232  0.3613
11386W        W28234  16.920   2.652  10.434 -0.1775 -0.2083  0.0953
11387W        W28235   6.559   4.005  13.716  0.3921  0.2020  0.0234
11388W        W28236  17.628   5.942  11.281  0.2213 -0.0937  0.1031
11389W        W28237   7.204  16.078  13.888  0.1388 -0.2826 -0.0442
11390W        W28238  14.366   5.254   2.454 -0.2002 -0.0276 -0.0555
11391W        W28239  10.772  10.300  12.108  0.0734  0.2020  0.0210
11392W        W28240   1.262  16.156  14.442  0.0633  0.0422 -0.0526
11393W        W28241   6.444   8.334   5.088  0.2833 -0.0423 -0.2600
11394W        W28242  13.206  14.697   4.258 -0.0034  0.0798  0.4307
11395W        W28243   2.280  17.670  13.283 -0.0855  0.0397 -0.0381
11396W        W28244  13.165  11.183  11.696 -0.1599  0.2736 -0.0026
11397W        W28245   0.431   2.433   0.419 -0.0340  0.1337  0.1593
11398W        W28246   6.865   4.790  15.269  0.0163 -0.1038  0.2524
11399W        W28247  12.673  14.713  12.905 -0.0024 -0.2475 -0.2222
11400W        W28248   7.355  10.218   1.162  0.0112  0.0348 -0.1240
11401W        W28249  15.659   0.420  14.327  0.0404  0.0494  0.2972
11402W        W28250  16.445   0.013   3.847  0.0829  0.2065  0.1194
11403W        W28251  11.758  14.396  13.241  0.2856 -0.0202  0.2379
11404W        W28252   9.815  13.619   2.290 -0.0585 -0.0672 -0.1337
11405W        W28253  12.059  16.632  14.137 -0.0981  0.0758 -0.3078
11406W        W28254  14.843  11.829   0.600  0.0552 -0.2362 -0.0918
11407W        W28255  15.531   2.828   5.490  0.2895  0.1527  0.0527
11408W        W28256   7.456   3.328   0.266  0.0825 -0.2697 -0.0214
11409W        W28257   1.309  12.393  11.330  0.0638 -0.1748 -0.0082
11410W        W28258  11.361  10.048   0.747 -0.0304 -0.0651 -0.3225
11411W        W28259  15.631   7.585  12.609 -0.2231 -0.0564 -0.1407
11412W        W28260  13.196  10.623  11.832 -0.1934 -0.1488 -0.2044
11413W        W28261   9.507   3.061  13.823 -0.0009 -0.0117 -0.0244
11414W        W28262   9.183  11.187  12.683  0.2079  0.2292  0.2009
11415W        W28263  17.190  14.070   0.699  0.3431  0.1662  0.0473
11416W        W28264   3.556   4.242  12.497  0.3128  0.2267 -0.2032
11417W        W28265   0.035   3.942  10.987  0.1885 -0.5343  0.1036
11418W        W28266   5.496  11.709   2.427 -0.1886  0.3119 -0.1548
11419W        W28267   5.651  11.857   5.703  0.1268 -0.1370  0.1428
11420W        W28268  12.944  16.979   4.283  0.1539 -0.1380  0.1156
11421W        W28269  10.608   6.778  13.288  0.1595  0.1907  0.0942
11422W        W28270   2.572   8.534  15.685  0.1364 -0.0774  0.1930
11423W        W28271  12.358  11.734   3.656 -0.2272  0.3193  0.0788
11424W        W28272  10.490   3.630  14.715 -0.0653 -0.2457 -0.0469
11425W        W28273   3.568   0.386  14.242 -0.1131  0.2991 -0.1998
11426W        W28274  16.667   1.878  12.543 -0.0513 -0.0902  0.1462
11427W        W28275   9.921   2.640   3.708  0.0313 -0.1333 -0.1330
11428W        W28276   5.940  16.422  13.734 -0.1468  0.0399  0.1687
11429W        W28277  12.007  15.194  12.050  0.3654  0.0055  0.2719
11430W        W28278  14.127   9.944  14.054 -0.2290  0.0875  0.1070
11431W        W28279  11.027  11.646  11.801  0.0052 -0.1032 -0.1352
11432W        W28280   2.770  17.377   0.473  0.1541  0.0303  0.1046
11433W        W28281  11.006  12.669   3.008  0.0885 -0.0690 -0.1014
11434W        W28282  10.032  11.152   4.822  0.0761  0.1624 -0.3910
11435W        W28283  17.054  15.876  15.089  0.1135  0.1610 -0.1969
11436W        W28284   3.229  16.779  15.921  0.0447 -0.0422 -0.2078
11437W        W28285   1.408  14.782  14.270  0.1230 -0.0005 -0.1231
11438W        W28286  16.674   8.508  14.935 -0.3499  0.0649 -0.1582
11439W        W28287  17.609   2.570   3.396 -0.1168  0.0828  0.2788
11440W        W28288   9.507  11.522   6.165 -0.0128 -0.0438  0.1945
11441W        W28289   7.481  12.671   1.942 -0.1906 -0.0271 -0.1934
11442W        W28290  14.309   9.527   1.893  0.3933 -0.0569  0.1883
11443W        W28291  11.011   2.799  11.573  0.1599 -0.2159  0.1208
11444W        W28292  17.808  10.093  13.698  0.0932  0.3615  0.0386
11445W        W28293   6.539   5.506   3.735 -0.2035  0.4208 -0.1688
11446W        W28294  11.305  17.081   4.593 -0.0209 -0.0521  0.0491
11447W        W28295   6.379   6.168   5.725  0.3710  0.1639  0.1429
11448W        W28296   9.261   8.429   1.013  0.0007  0.0752 -0.0971
11449W        W28297   2.099   1.066   4.273  0.0041 -0.0624  0.2415
11450W        W28298   5.786  13.303   1.421  0.1602  0.0992  0.2098
11451W        W28299   5.544   6.052  14.631 -0.1667  0.0132 -0.0777
11452W        W28300   6.210  13.054   3.889 -0.0084 -0.0110 -0.0356
11453W        W28301  17.112  14.919   1.781  0.1265  0.1527  0.1480
11454W        W28302   2.844  16.898  14.234 -0.0295  0.0116 -0.0174
11455W        W28303   1.636   2.344   3.463 -0.0419 -0.0399 -0.1802
11456W        W28304   9.579   2.770  10.843  0.1784  0.1103  0.0550
11457W        W28305  14.297   8.328  15.834 -0.0740  0.0059 -0.0678
11458W        W28306  14.973   0.086   2.103  0.1187  0.0035  0.0100
11459W        W28307   6.626   2.026  16.090  0.0685 -0.2073 -0.0014
11460W        W28308   1.792   6.973   0.169  0.1320  0.3233 -0.0076
11461W        W28309   5.305   9.135  11.712 -0.0968  0.0655  0.1371
11462W        W28310   2.022   3.288   0.371  0.2614 -0.0906  0.0221
11463W        W28311  11.563   3.612  13.352 -0.1593 -0.2233  0.1369
11464W        W28312   0.721  12.980  11.069  0.1912  0.0568  0.0267
11465W        W28313   0.079  13.386  13.806  0.0391 -0.0350 -0.1024
11466W        W28314  15.587   4.611  11.131 -0.1771  0.0223  0.3872
11467W        W28315  16.437   5.186   6.202  0.1291 -0.0957 -0.0749
11468W        W28316   9.382  12.573   0.946  0.2336 -0.0954  0.0482
11469W        W28317   8.005  11.193  13.394 -0.1422 -0.2300 -0.1378
11470W        W28318   4.795  12.651  15.057  0.2816 -0.3459 -0.3898
11471W        W28319  16.392  12.435   4.346  0.2983 -0.1096 -0.0876
11472W        W28320   8.091   4.022  12.336  0.3503 -0.1454  0.0990
11473W        W28321  14.804   8.420   1.259  0.0076  0.0487 -0.0324
11474W        W28322   5.911   5.780  15.828  0.0005  0.0873  0.1116
11475W        W28323  10.421   5.541   4.262 -0.2438  0.1867  0.1138
11476W        W28324   7.513   5.426   1.746 -0.0876 -0.0994 -0.0954
11477W        W28325  13.810  17.472  16.188 -0.0950 -0.0479  0.2728
11478W        W28326   4.190   2.329   5.132 -0.2562 -0.3155  0.1866
11479W        W28327  11.230  17.689  13.704  0.1294  0.1244  0.1227
11480W        W28328  15.532   7.719  15.216  0.0497  0.1331 -0.1808
11481W        W28329  13.136  14.314   0.574 -0.0398 -0.1796 -0.1367
11482W        W28330   3.327   7.858   2.974  0.3837 -0.1863  0.1506
11483W        W28331   3.509  16.434  12.251 -0.0808 -0.1029  0.0867
11484W        W28332  11.814   9.112   1.978  0.0473 -0.4108 -0.1888
11485W        W28333  16.443  10.271   3.773  0.2921  0.2185 -0.1207
11486W        W28334   8.162  13.338  15.596  0.1915 -0.0448 -0.0439
11487W        W28335  16.792  16.023  11.358  0.0145 -0.0227 -0.0493
11488W        W28336   3.385  16.123  11.856 -0.1449 -0.1364 -0.1893
11489W        W28337  10.132   9.287  10.761 -0.0089 -0.0702 -0.1593
11490W        W28338  17.504   6.224   1.920  0.3807  0.0951 -0.0809
11491W        W28339   4.464   7.534  14.213 -0.3570 -0.0414 -0.1569
11492W        W28340  11.372   8.349   1.396 -0.0349  0.1320  0.1269
11493W        W28341  17.779  13.826  12.892 -0.1485 -0.1426 -0.0001
11494W        W28342  17.916  12.373   1.198  0.1233 -0.0244 -0.0875
11495W        W28343   9.852   2.334  13.402 -0.2233 -0.2189 -0.0883
11496W        W28344   6.890   6.399   1.403 -0.0368 -0.1143  0.3063
11497W        W28345  14.217  14.852   5.035 -0.4440  0.1503 -0.1905
11498W        W28346  14.036   6.391   0.702  0.1191  0.0034 -0.1600
11499W        W28347  10.139   8.383   3.937 -0.0907  0.0174  0.0655
11500W        W28348   1.617   2.847  16.149 -0.2492 -0.2639 -0.0369
11501W        W28349  15.870  15.583   5.053  0.0811 -0.2926 -0.1355
11502W        W28350   6.408   3.299  11.524 -0.0554  0.0012  0.1694
11503W        W28351   5.290   1.143   4.002  0.2590 -0.0936 -0.1431
11504W        W28352   0.558  16.069  14.950  0.1613  0.3092  0.0449
11505W        W28353   6.004  10.579  13.067 -0.1491  0.2273 -0.0022
11506W        W28354   3.298  12.994  11.730  0.0012 -0.3108  0.2259
11507W        W28355   0.512  11.010   4.011 -0.0941 -0.0013 -0.0112
11508W        W28356   6.671   8.589   4.713  0.2214 -0.1193  0.0200
11509W        W28357  10.219  16.863   3.028  0.1763 -0.0609  0.3657
11510W        W28358   1.622  13.722  11.739  0.1112 -0.1843  0.1168
11511W        W28359  13.600  14.613   2.177  0.1129  0.0396  0.3593
11512W        W28360   1.732   3.787  13.636 -0.0619  0.1175 -0.1981
11513W        W28361  10.361  11.343   1.802  0.1934  0.1493 -0.0000
11514W        W28362  10.599   1.506  14.289 -0.1132 -0.3164 -0.1514
11515W        W28363  10.201   8.255   2.376 -0.1268  0.2422 -0.1555
11516W        W28364   0.382   5.530   4.820  0.1137  0.1478 -0.1902
11517W        W28365   5.632  16.402  12.317  0.1463 -0.0144 -0.0803
11518W        W28366  12.811   7.088   2.299 -0.1002  0.0119 -0.0066
11519W        W28367   6.146  14.016  15.209 -0.0041 -0.0679  0.1903
11520W        W28368   1.669   1.268  16.200 -0.0794 -0.0297 -0.2187
11521W        W28369  13.116   8.406  11.575  0.0446  0.1027 -0.2004
11522W        W28370   1.580  17.157  15.054  0.1146 -0.1362  0.2061
11523W        W28371   1.662   4.273  15.356  0.0614  0.0592  0.1408
11524W        W28372   6.733  15.192  10.840  0.0473  0.0624  0.0339
11525W        W28373  10.460   0.909   4.045  0.1597 -0.0285  0.0016
11526W        W28374   4.806   0.764   0.824 -0.0274  0.2761 -0.2011
11527W        W28375  11.091  11.638   1.058  0.0417  0.2801 -0.2710
11528W        W28376   1.126   7.849   1.549 -0.2776  0.1694 -0.1828
11529W        W28377  16.999   9.755  15.473  0.0357  0.2837 -0.1425
11530W        W28378   5.716  10.849   1.437 -0.0770 -0.0518  0.2952
11531W        W28379   4.952  12.941   3.977 -0.0384 -0.2437  0.0645
11532W        W28380   2.853   1.577  14.860 -0.5862 -0.1056  0.2691
11533W        W28381  12.378  16.261   3.434  0.1219  0.0613  0.5457
11534W        W28382  15.107  16.152   5.226  0.2256 -0.2347  0.2107
11535W        W28383   9.847  10.101   3.204  0.2328 -0.0129 -0.1306
11536W        W28384  10.910  13.060   1.679  0.1086 -0.1622  0.0829
11537W        W28385  15.726   6.797  12.580 -0.0428  0.0551 -0.2416
11538W        W28386  17.361  12.209  11.166  0.0224 -0.0353  0.0929
11539W        W28387   1.789   4.286  11.309 -0.1414 -0.0525  0.1914
11540W        W28388   7.004   3.015   1.304 -0.1170 -0.1604  0.0326
11541W        W28389  10.029  16.334   3.212 -0.0928  0.2214 -0.2458
11542W        W28390   7.740   0.239  14.596 -0.1293  0.0594 -0.0419
11543W        W28391   0.472   6.836  12.896  0.1417  0.1209 -0.2099
11544W        W28392   8.353   0.121   4.166  0.1405 -0.0446 -0.3017
11545W        W28393  12.607   8.974   1.360 -0.1264  0.1138 -0.0109
11546W        W28394   0.239   6.864   2.563  0.0336 -0.0533 -0.0833
11547W        W28395   2.731  17.378  13.349  0.2151  0.0515 -0.1574
11548W        W28396  16.521  10.416   4.261 -0.0871  0.0897 -0.1016
11549W        W28397   0.723   2.182  15.167  0.0153  0.2152 -0.4641
11550W        W28398  11.436   3.280   0.563  0.2243 -0.0671  0.1306
11551W        W28399   1.705   9.942  11.791 -0.0671 -0.2987  0.2508
11552W        W28400   5.676   7.647  14.662 -0.1768 -0.2065 -0.1404
11553W        W28401   4.808  14.822  13.363 -0.3615 -0.1490  0.1625
11554W        W28402   3.024  17.308   3.469 -0.0950 -0.3535  0.1596
11555W        W28403   0.610  17.640  12.440 -0.0766  0.0702  0.3079
11556W        W28404  16.024   1.080  11.898  0.0231  0.1794 -0.1697
11557W        W28405  13.637  13.829   4.329 -0.1414 -0.2522  0.1492
11558W        W28406   6.114   9.723  11.627 -0.1345  0.1193 -0.1164
11559W        W28407   3.492  11.293   0.612 -0.1945  0.2743  0.1233
11560W        W28408   0.513   7.298  11.940 -0.1292 -0.0727 -0.2503
11561W        W28409   1.666   9.159  12.576  0.2361 -0.0735  0.1749
11562W        W28410   6.873  13.399   4.395 -0.2364 -0.3912  0.2520
11563W        W28411   9.737  10.194  13.416  0.0178  0.2508 -0.1014
11564W        W28412   3.612  15.807   2.157 -0.1100 -0.0057  0.0068
11565W        W28413  11.415   9.681  12.387 -0.3032  0.1925  0.1228
11566W        W28414  16.254  16.240   4.534 -0.0585  0.0856  0.3397
11567W        W28415  14.166  11.309  13.175  0.2779 -0.0250 -0.0481
11568W        W28416   1.801   3.034   0.769  0.1800 -0.0963  0.0387
11569W        W28417   7.988   5.764  15.448  0.1062 -0.2539 -0.0782
11570W        W28418   6.934  14.458   2.289 -0.0066  0.3751 -0.4376
11571W        W28419   1.340  11.965   3.929 -0.2097  0.0971 -0.2153
11572W        W28420   1.747   6.601   1.525  0.1698 -0.3129  0.0602
11573W        W28421   8.954  10.199   9.657 -0.0955  0.0489  0.1095
11574W        W28422   1.080  15.938   2.528 -0.3158  0.2493  0.0571
11575W        W28423   3.044   1.333   2.755  0.0310  0.1315  0.1939
11576W        W28424  18.040   2.053  15.694  0.1566  0.1137 -0.1149
11577W        W28425   9.859  14.030   1.512 -0.0962  0.0752  0.0066
11578W        W28426   6.950   8.337  12.874  0.0230 -0.2170 -0.4285
11579W        W28427   1.410  14.026  12.678  0.0299  0.3547 -0.0421
11580W        W28428  15.840  15.752  13.123  0.1388  0.0847  0.0633
11581W        W28429  14.455  12.226   1.871  0.0446 -0.0358  0.0216
11582W        W28430   4.203  15.970  12.822 -0.1971 -0.0545  0.4302
11583W        W28431  17.938   3.970   1.918 -0.0989 -0.1134 -0.5023
11584W        W28432   7.207  15.264   4.274  0.2963  0.0478 -0.1118
11585W        W28433   5.731   6.475  13.764 -0.1953  0.2507 -0.1067
11586W        W28434  13.936   2.455  14.828 -0.1353 -0.0420  0.0682
11587W        W28435  14.018   5.331   1.631  0.0405 -0.1474  0.0365
11588W        W28436   6.178   8.097  12.363 -0.2503  0.2234  0.0156
11589W        W28437   0.650  16.717  13.030 -0.4406 -0.0631  0.3154
11590W        W28438  15.101   6.709  13.625 -0.2227 -0.0833  0.0998
11591W        W28439  13.742   5.543  14.161  0.4052 -0.2942  0.2250
11592W        W28440  11.483   6.896  14.726 -0.0567  0.0328 -0.1649
11593W        W28441   2.542  17.640   5.178  0.1364 -0.1628  0.1219
11594W        W28442   6.681   8.878   2.268 -0.1481  0.0036 -0.2220
11595W        W28443  14.893   8.545  12.408 -0.3346 -0.1228 -0.0114
11596W        W28444  11.325  16.432  15.353 -0.0315 -0.1934  0.0570
11597W        W28445   0.573  13.276  10.295  0.0662  0.2624  0.2645
11598W        W28446  11.449   8.354   0.781 -0.1960 -0.0684 -0.1078
11599W        W28447   7.009  16.839   0.141  0.1901  0.1209 -0.1570
11600W        W28448   6.741  14.884   3.673 -0.1706 -0.2556 -0.0252
11601W        W28449   4.679   1.182  12.429 -0.0497  0.3715  0.1675
11602W        W28450   5.488   9.643  14.713  0.0042 -0.0302  0.0612
11603W        W28451   3.233   9.754   1.736 -0.1109  0.1733  0.0412
11604W        W28452   8.668   4.159  15.495  0.1870  0.2201 -0.1408
11605W        W28453   0.694  16.033  12.611  0.1844  0.1392 -0.1247
11606W        W28454  17.243  17.026   3.301 -0.1064  0.2951  0.1181
11607W        W28455   2.875   8.656   4.595 -0.1639 -0.0395 -0.2210
11608W        W28456  14.783   5.061  10.250  0.1606  0.0140 -0.2262
11609W        W28457   8.629  13.336  15.833  0.0408 -0.0861  0.4158
11610W        W28458   0.427  15.970   0.405 -0.2194  0.0313 -0.0035
11611W        W28459  16.422  11.877   4.338  0.2016 -0.0199 -0.1081
11612W        W28460  13.109   8.002  12.948  0.0613  0.0760 -0.0754
11613W        W28461  15.060  12.458  13.919  0.0931  0.2638 -0.0471
11614W        W28462   4.537   3.322   0.455  0.3465 -0.2138  0.1456
11615W        W28463  16.578  14.316   2.953  0.1555  0.0374 -0.0131
11616W        W28464   6.983  16.296  12.540  0.0028 -0.0046  0.0918
11617W        W28465   7.968  10.874  16.096 -0.4479 -0.2201 -0.0077
11618W        W28466  14.578  15.926  13.480  0.0813 -0.0973 -0.1834
11619W        W28467   3.109  17.583   2.630  0.1042 -0.1050 -0.3605
11620W        W28468  10.760   4.092  12.288  0.1663  0.0353  0.0641
11621W        W28469  12.765   5.938   3.818  0.0533 -0.1583  0.1855
11622W        W28470  16.927   5.698   4.557  0.0515 -0.2470  0.0927
11623W        W28471  10.439   2.615   3.772  0.0959 -0.2161  0.0717
11624W        W28472  12.924   8.902  13.826  0.1370  0.2141 -0.1107
11625W        W28473   6.022  13.112  13.604 -0.0336  0.2522  0.1620
11626W        W28474   7.467   2.713   3.173 -0.1234 -0.0683 -0.0509
11627W        W28475   1.061  12.049  11.033  0.0025  0.0872  0.1644
11628W        W28476   4.663  10.031  14.810 -0.1279  0.0334  0.2853
11629W        W28477   6.180  14.941  14.806 -0.0731 -0.0846  0.0971
11630W        W28478   3.657   5.962   1.620 -0.0305  0.2012  0.0691
11631W        W28479   3.919   1.656  11.995  0.2525  0.0370 -0.1503
11632W        W28480   4.532  14.716   2.571 -0.0914  0.0469 -0.0504
11633W        W28481  13.908  12.289   4.933 -0.0634 -0.2252  0.0126
11634W        W28482  10.225  12.560  16.009  0.0218  0.1324 -0.1999
11635W        W28483  14.988  15.101   2.756  0.0989  0.1500  0.1615
11636W        W28484  13.122   8.971   0.012  0.0754  0.0161  0.0397
11637W        W28485   1.645  12.871   0.970 -0.0885  0.0592 -0.3891
11638W        W28486   7.727  12.170  15.369 -0.0117  0.0308  0.0997
11639W        W28487   0.382   7.314  12.786 -0.0841 -0.1581 -0.1291
11640W        W28488  15.414   4.033   2.329  0.0917  0.1513 -0.1995
11641W        W28489  13.695  13.391   0.589 -0.2089 -0.0356 -0.0912
11642W        W28490  14.341   0.273   1.882  0.1959 -0.0462  0.2407
11643W        W28491  10.582   6.454  14.815 -0.2293  0.5512  0.1564
11644W        W28492   4.463   2.851   1.896 -0.0552 -0.2219 -0.0685
11645W        W28493  15.365   6.868   0.214 -0.0111 -0.2173  0.2527
11646W        W28494  10.578   5.093  16.186 -0.2684 -0.1175  0.2347
11647W        W28495   5.778  14.689  16.088  0.0140  0.0982  0.1479
11648W        W28496   1.747   7.050   4.810  0.2760  0.1577 -0.2611
11649W        W28497   3.205  10.241  11.094  0.4332  0.2194  0.0050
11650W        W28498  15.606   2.811   2.606 -0.0939 -0.2929  0.2373
11651W        W28499   4.971   0.196   6.620 -0.0862 -0.0467  0.2593
11652W        W28500   0.367   8.967  10.475 -0.0502  0.1238  0.0238
11653W        W28501   1.900   5.833  14.858  0.1057  0.2796 -0.1025
11654W        W28502   0.254   6.001   1.555 -0.3610  0.0261  0.2170
11655W        W28503  14.105   1.081  15.431 -0.3007  0.1537 -0.0949
11656W        W28504   4.969  17.637  15.898  0.0961  0.3220 -0.2131
11657W        W28505  14.627   4.965   0.826  0.0864 -0.0717 -0.2020
11658W        W28506   8.097  10.004  15.523  0.1232 -0.2721 -0.0617
11659W        W28507  16.052   8.003   4.225 -0.1145 -0.1408  0.1266
11660W        W28508  14.175  14.803   1.247 -0.0153 -0.1976  0.0588
11661W        W28509   7.935  10.147  11.907  0.1763 -0.0237 -0.1415
11662W        W28510   4.519   1.318   4.404  0.0639 -0.0035  0.0497
11663W        W28511  11.663  16.611  16.172 -0.0498 -0.1049 -0.0395
11664W        W28512   9.785  16.113   4.846 -0.1979  0.3116  0.1352
11665W        W28513  17.445  15.689   0.539  0.0793  0.0246  0.1901
11666W        W28514   4.323   9.316  12.043 -0.1204 -0.3637  0.0621
11667W        W28515   1.721   2.543   1.042  0.2659 -0.2327  0.0337
11668W        W28516  17.650   9.293   2.817  0.0118 -0.0213  0.0727
11669W        W28517   7.198  14.992   3.898  0.2387 -0.0053  0.1111
11670W        W28518  14.317   2.358   2.668  0.2640 -0.1391 -0.3353
11671W        W28519  11.813  10.069   0.930  0.0107 -0.1223  0.0316
11672W        W28520   8.466   0.917  11.597  0.1508 -0.0584 -0.0132
11673W        W28521  12.842  12.119  12.743  0.0680  0.1133  0.0380
11674W        W28522  12.309   4.396   1.747  0.2067  0.0219  0.0619
11675W        W28523  14.538   1.108  11.959 -0.0878 -0.0466 -0.0258
11676W        W28524  17.314   0.703   3.137  0.2988  0.0238  0.4220
11677W        W28525  10.865   6.147  14.510  0.2709 -0.1993 -0.3506
11678W        W28526  10.714  16.723   1.879  0.0732  0.4829  0.0205
11679W        W28527   1.347   7.875  14.396 -0.0193  0.1252  0.0105
11680W        W28528   4.399   1.399  12.041  0.2297 -0.1293 -0.0578
11681W        W28529  10.709  10.295   2.722  0.0999 -0.3239  0.3578
11682W        W28530   5.528  14.317   1.595  0.0131 -0.1954 -0.0124
11683W        W28531   0.824   3.480   1.202 -0.0733 -0.0990  0.1708
11684W        W28532  12.905   0.718   2.163 -0.1034 -0.2709  0.1070
11685W        W28533   2.893  10.129   1.457  0.0138  0.1727  0.0215
11686W        W28534  11.314   4.843  13.860 -0.0355 -0.1713 -0.1296
11687W        W28535   6.808  14.489   3.284 -0.1882 -0.0489 -0.2956
11688W        W28536   2.365   8.640  10.922  0.1999  0.1195 -0.0687
11689W        W28537  14.045  14.537   4.649 -0.0276 -0.1444 -0.1349
11690W        W28538  12.023   6.173  12.503 -0.0602 -0.0122  0.0624
11691W        W28539   0.820   9.236   0.399  0.0715  0.0706 -0.0438
11692W        W28540   6.689   0.307  11.811  0.1394 -0.1303 -0.0347
11693W        W28541   1.710   9.934  15.233 -0.1382 -0.0625 -0.3119
11694W        W28542   8.220   5.017   5.042  0.0331 -0.1320  0.0197
11695W        W28543   6.446   8.788   0.208 -0.0915  0.1486 -0.0833
11696W        W28544   2.257  15.307  14.663 -0.2789  0.0632 -0.1681
11697W        W28545   4.418  11.596  11.237  0.6034  0.4054  0.3039
11698W        W28546  17.407  12.716   2.010 -0.1561  0.1374  0.1078
11699W        W28547   7.857   9.798   4.700  0.1918 -0.0325 -0.0192
11700W        W28548  11.924  12.504   3.461 -0.0523  0.2832  0.2982
11701W        W28549   3.037   9.576   4.048  0.1719 -0.0963  0.1718
11702W        W28550  17.895  17.125   1.161 -0.2465 -0.0099  0.2153
11703W        W28551   1.814  13.800  12.285  0.4213  0.1874 -0.2005
11704W        W28552   3.412   9.237  13.906 -0.1312 -0.1322 -0.2774
11705W        W28553   5.443  13.933  12.766 -0.0815  0.0945 -0.0405
11706W        W28554  11.562  15.958   4.409 -0.2337  0.0142 -0.1075
11707W        W28555   7.695   5.537   4.348 -0.0814  0.0874  0.1018
11708W        W28556   0.668   6.254  13.555  0.2415  0.4519 -0.2083
11709W        W28557   9.095  17.037   5.317  0.1541 -0.0608 -0.1403
11710W        W28558   0.064   7.164   0.784  0.0322  0.2396  0.0416
11711W        W28559   6.448   1.016   5.138  0.3098 -0.0597 -0.0232
11712W        W28560  15.386   0.564  11.596  0.2682 -0.0337  0.2764
11713W        W28561   4.808  11.813   5.319  0.1613 -0.1126 -0.2796
11714W        W28562  13.248   1.364   0.903  0.0813 -0.2768  0.3330
11715W        W28563  13.310  10.215  11.559 -0.0595  0.0652  0.2040
11716W        W28564   2.666   6.683   3.521  0.0813 -0.0998  0.4908
11717W        W28565  16.869   5.309   1.033  0.0778 -0.4872 -0.0578
11718W        W28566   7.647  14.861  14.387 -0.0288 -0.3050  0.0449
11719W        W28567  14.420   1.717  16.075  0.0505 -0.1621  0.2681
11720W        W28568  15.489   6.929  15.877  0.0320 -0.1464  0.1788
11721W        W28569  17.208  17.578  13.457  0.2600 -0.1436 -0.2707
11722W        W28570  13.387   6.250   1.383 -0.0763 -0.0008  0.1718
11723W        W28571   2.216   6.838   1.293 -0.1980 -0.1575 -0.0111
11724W        W28572  16.629   6.466   2.322  0.0799 -0.4392  0.3100
11725W        W28573  13.104  16.549  16.005 -0.3857  0.2824  0.0791
11726W        W28574   3.986  13.993  14.044  0.0973  0.1528 -0.0898
11727W        W28575   4.438   1.387   0.876  0.1020 -0.1034 -0.0281
11728W        W28576  13.653  11.378   3.460  0.1382 -0.3806 -0.1810
11729W        W28577   2.306   8.897  10.103 -0.0585  0.0100 -0.1609
11730W        W28578   0.318   2.608  14.786  0.0121 -0.0508  0.1517
11731W        W28579  16.538   4.225   4.472  0.1571 -0.0526  0.1025
11732W        W28580   8.651   2.044  11.898 -0.0422 -0.0000 -0.0044
11733W        W28581  17.509  17.026  14.481  0.0400 -0.0157  0.1071
11734W        W28582  13.206  10.760  14.511 -0.3215  0.2397  0.0196
11735W        W28583  10.564   3.008   4.214 -0.0478  0.2502  0.1214
11736W        W28584   7.763   1.550  15.605 -0.1719 -0.0108  0.0179
11737W        W28585   1.608  12.288   1.762 -0.1557  0.1319  0.1594
11738W        W28586  10.259  15.531  16.266  0.2460  0.1089 -0.1682
11739W        W28587  16.883  14.590  15.469  0.0222  0.1764 -0.0245
11740W        W28588   0.369  13.668  12.742  0.0029 -0.0948  0.2137
11741W        W28589   5.117   7.676   1.214  0.0554 -0.0386  0.2362
11742W        W28590   6.011   7.488   1.360  0.0894  0.1200 -0.0206
11743W        W28591  13.817  16.163   1.305  0.3507  0.0492 -0.5367
11744W        W28592  16.250  15.571   5.849  0.3041  0.0322  0.3123
11745W        W28593  11.398  10.778   3.736 -0.0568 -0.1232  0.0695
11746W        W28594   4.598  15.257  14.548 -0.0042 -0.1474 -0.2570
11747W        W28595   5.704   8.766   0.042 -0.0806  0.3664 -0.1095
11748W        W28596   6.936  13.767  13.033 -0.3466  0.2026  0.0325
11749W        W28597   2.316   8.667  11.413 -0.0077 -0.0821 -0.1154
11750W        W28598   9.704  12.820   0.713 -0.1380 -0.0784 -0.1468
11751W        W28599  11.600  13.212   1.774  0.0821  0.1803 -0.0958
11752W        W28600   9.242   0.371   3.846  0.1441 -0.0007 -0.0765
11753W        W28601  14.808   8.141   5.604  0.1422  0.1251  0.0268
11754W        W28602   7.081   2.753  14.207  0.2479  0.0739  0.0696
11755W        W28603  16.393   8.869  15.270 -0.0561  0.0567 -0.1106
11756W        W28604  12.189   5.183  15.369 -0.1803 -0.1158 -0.0960
11757W        W28605   4.246   6.198  11.544  0.1414  0.2551  0.0521
11758W        W28606   0.648  10.556  15.122  0.1165  0.4196  0.1500
11759W        W28607  14.576   4.395   4.452  0.1483  0.1440  0.3399
11760W        W28608  15.317  10.812  15.969 -0.1350  0.2507  0.0185
11761W        W28609  17.253  13.356  11.045  0.0615 -0.0653  0.0408
11762W        W28610  16.922  14.371  15.906 -0.3230  0.0962 -0.1306
11763W        W28611   9.944  15.020  14.976 -0.2717  0.3068  0.0782
11764W        W28612  10.903   0.682   2.548 -0.2981 -0.0629  0.1324
11765W        W28613   1.144   6.024  13.241  0.0043 -0.0148 -0.2980
11766W        W28614   1.861   3.950  13.143  0.0072 -0.0393 -0.0901
11767W        W28615   1.949   9.261  14.090 -0.0848 -0.1152 -0.1463
11768W        W28616  13.744   7.347  13.880 -0.1343 -0.1891  0.4208
11769W        W28617   9.877   2.892   1.895  0.0695  0.0856 -0.2185
11770W        W28618  14.187  13.362   0.443 -0.1660  0.1555  0.0136
11771W        W28619  12.092   3.913   0.904  0.0097 -0.2839  0.1827
11772W        W28620   3.542   3.838  13.346  0.2668  0.0141 -0.1642
11773W        W28621   3.338   4.951  13.618  0.2266  0.0603 -0.0933
11774W        W28622  10.949   8.132  13.234  0.2384 -0.0335  0.2572
11775W        W28623   4.316  13.856   4.017 -0.1448 -0.1986  0.0479
11776W        W28624   1.257  16.514  11.402 -0.0021  0.1168  0.1611
11777W        W28625  13.533   2.734   2.955  0.0022  0.1565  0.0515
11778W        W28626   2.254   2.541   4.680  0.1364 -0.0845  0.2194
11779W        W28627  17.521  17.266   2.559 -0.2966 -0.0852 -0.0797
11780W        W28628   0.980  17.977  14.086 -0.0275 -0.1160 -0.0366
11781W        W28629   7.109   7.541   2.089 -0.2322  0.0833  0.2774
11782W        W28630  10.258  17.270   0.558 -0.0303 -0.0882  0.1423
11783W        W28631   8.170   9.940  10.110  0.0875  0.0324  0.1540
11784W        W28632   5.792  12.191  14.170  0.0812 -0.1999 -0.3389
11785W        W28633   7.780  14.373  12.581  0.0931 -0.0919 -0.1745
11786W        W28634   1.254   6.900  13.121  0.1301 -0.1074 -0.2384
11787W        W28635  10.746  14.469  14.063  0.1017 -0.0109 -0.2023
11788W        W28636   0.984   2.696  12.054  0.2747  0.1700 -0.0344
11789W        W28637   5.467   9.025   4.274 -0.1046 -0.2343  0.6001
11790W        W28638  17.053   6.287  15.528 -0.1275  0.0286 -0.0065
11791W        W28639  13.415  17.620  11.835 -0.0914  0.0721 -0.0362
11792W        W28640   0.625   7.647   1.491 -0.1853  0.0399  0.0273
11793W        W28641   2.076  11.397   3.290 -0.1099  0.1093 -0.3492
11794W        W28642  16.356   1.002   3.164 -0.0437 -0.0636  0.2869
11795W        W28643  13.134  14.234  12.164 -0.0625 -0.0867  0.0787
11796W        W28644   7.051   2.873  11.537  0.0803  0.1233  0.3016
11797W        W28645   9.267  17.593  12.503  0.1929 -0.2694 -0.4182
11798W        W28646   7.825   3.884   1.339 -0.0659  0.0894 -0.0709
11799W        W28647   3.089   0.331   4.676 -0.1619  0.0245 -0.1572
11800W        W28648  11.975   7.494   2.173 -0.1029  0.0635  0.1391
11801W        W28649   8.619   5.112   4.287 -0.3222  0.0094  0.0151
11802W        W28650   6.584   0.156   0.973  0.0461  0.1490  0.0817
11803W        W28651   5.774  14.539   2.224  0.1595 -0.2712  0.0860
11804W        W28652   7.279   9.304  10.760 -0.1446  0.0677  0.1517
11805W        W28653   7.851  10.235  14.372 -0.1049  0.1878 -0.0888
11806W        W28654  10.587  10.880  12.772  0.1043 -0.2727 -0.4339
11807W        W28655   4.412   2.938   3.558 -0.0664  0.2934  0.1335
11808W        W28656  11.020   2.112  13.276  0.0947  0.2320  0.1339
11809W        W28657   6.251   0.236  12.905  0.2361 -0.0202 -0.1479
11810W        W28658   1.577   4.846   1.147 -0.2568  0.0664  0.0599
11811W        W28659  13.608  17.191  15.812  0.0478 -0.1737 -0.1582
11812W        W28660   2.473  13.497  13.518 -0.3581 -0.0507 -0.4095
11813W        W28661   9.932   0.337   2.419  0.1469  0.0629 -0.1920
11814W        W28662  10.636  13.361   0.324 -0.1593 -0.1144 -0.0574
11815W        W28663  16.089   0.249   5.008 -0.1063  0.0758  0.0168
11816W        W28664  14.600   7.139  13.263 -0.1244 -0.0804 -0.0598
11817W        W28665  14.353   7.138   2.759  0.0887 -0.0874 -0.2126
11818W        W28666  15.549   4.702  15.505 -0.1006  0.0647 -0.3681
11819W        W28667  17.543  12.342   3.808  0.2591  0.1601 -0.0627
11820W        W28668   6.161   8.978   1.502 -0.1367 -0.2527  0.2397
11821W        W28669   5.939  15.774   3.209  0.2554  0.3420 -0.0942
11822W        W28670   2.782   7.364  14.533 -0.1720 -0.0311 -0.0788
11823W        W28671  15.918   8.910  13.153 -0.2678  0.2002 -0.0562
11824W        W28672   1.404   0.881  14.346 -0.0437 -0.0094 -0.1051
11825W        W28673   5.870  14.031   1.806  0.0675  0.1575 -0.1037
11826W        W28674   4.050   2.371   4.388  0.1967 -0.1494  0.3617
11827W        W28675  10.377   4.990   4.583 -0.2173 -0.0690  0.0865
11828W        W28676   6.024   0.567   2.949 -0.1286  0.0568  0.5326
11829W        W28677  16.640   0.836  14.721  0.2781 -0.2930  0.0211
11830W        W28678   9.805  10.309  15.453 -0.2903  0.4041 -0.0544
11831W        W28679  10.474  17.029  12.693  0.0337  0.2387 -0.0027
11832W        W28680  12.736   6.007   4.399  0.0901 -0.3213 -0.2241
11833W        W28681   5.218   0.263  15.208  0.0495  0.0128 -0.2296
11834W        W28682  10.316  17.227  13.831  0.2275 -0.0394  0.1076
11835W        W28683  12.165   0.124  12.077  0.0636  0.3484 -0.4193
11836W        W28684   7.716   2.800   1.486  0.3235  0.0384 -0.1703
11837W        W28685   9.927   7.356  11.740 -0.1287  0.2106  0.2303
11838W        W28686   9.151  13.134  11.531  0.0131 -0.1002  0.0786
11839W        W28687   7.617   7.235   0.710 -0.0601  0.0448  0.2008
11840W        W28688  12.907  12.064   1.320  0.1333 -0.2526  0.0161
11841W        W28689  17.508  16.751   5.300  0.0027  0.0261 -0.0217
11842W        W28690  15.225   8.234  16.232  0.1092 -0.2506 -0.0508
11843W        W28691  15.544  14.965  11.735  0.3096  0.1013 -0.0854
11844W        W28692  12.827  11.741   3.859  0.0688 -0.0462  0.3288
11845W        W28693  17.328   6.765   2.728  0.0017 -0.2315 -0.3585
11846W        W28694  11.715   1.915   0.256 -0.0188  0.1488  0.3156
11847W        W28695   6.438  17.555  12.250  0.0093  0.0413  0.0531
11848W        W28696   7.424   7.804   1.761  0.0201  0.1005  0.2734
11849W        W28697  17.115   3.364  12.890  0.0884 -0.2414  0.0048
11850W        W28698  11.433  11.076  12.194  0.1961 -0.3509 -0.2811
11851W        W28699  14.170   0.185  14.656 -0.2473  0.0096  0.2018
11852W        W28700  15.009  16.217  12.332 -0.0810  0.0715 -0.0184
11853W        W28701  14.993   1.199   3.942 -0.0095 -0.1587 -0.1354
11854W        W28702  12.601   2.076   1.079 -0.0079  0.0250 -0.2894
11855W        W28703   8.104  13.935  16.147 -0.1012  0.3005 -0.1428
11856W        W28704  15.552   6.099   2.710  0.1267 -0.4138 -0.1863
11857W        W28705   6.798   5.294   1.076  0.2583  0.0422  0.1043
11858W        W28706   2.228   9.039   4.993  0.0240  0.1279 -0.4042
11859W        W28707  15.043  14.363  15.152  0.1305 -0.0856  0.2727
11860W        W28708   1.050  16.003   1.572  0.2898  0.3510 -0.0794
11861W        W28709  15.320  16.076   4.786 -0.1133 -0.2303 -0.1647
11862W        W28710   5.552  10.036   0.570  0.0409 -0.1192  0.2059
11863W        W28711  17.096   2.339  14.781 -0.1728 -0.1841 -0.0809
11864W        W28712  17.934   1.453   1.881 -0.2834  0.3506  0.1387
11865W        W28713   2.856  16.382  14.088  0.2534 -0.0928  0.0314
11866W        W28714   9.585   3.106  12.733  0.1080 -0.0455  0.1435
11867W        W28715   8.895  17.500   2.991  0.0449 -0.1498 -0.0941
11868W        W28716   9.140   1.676   0.959 -0.0327  0.1299 -0.0157
11869W        W28717  13.447  16.941  11.849 -0.1420 -0.0852  0.1573
11870W        W28718   5.049  10.120   2.172 -0.1589 -0.2121 -0.1038
11871W        W28719   2.689   1.127  13.858  0.2425 -0.0684  0.0723
11872W        W28720   2.672  18.026  13.213 -0.1304  0.0767 -0.1872
11873W        W28721   0.641  14.811  13.091 -0.0886 -0.1194 -0.0245
11874W        W28722   0.542  12.819   2.061 -0.1223  0.0425 -0.3926
11875W        W28723  13.586  12.154   3.713  0.2548  0.1803 -0.0877
11876W        W28724  15.044   2.339  12.047  0.0434 -0.2875  0.0267
11877W        W28725   6.809   3.561  13.855 -0.0364 -0.2649 -0.1166
11878W        W28726   0.766   3.724  13.102  0.0034 -0.0277  0.1085
11879W        W28727   0.120  15.092   2.946 -0.1135  0.0067 -0.0591
11880W        W28728   8.306   4.678   1.060  0.0409  0.0852 -0.1304
11881W        W28729  14.803  16.128   1.197  0.0996 -0.0774 -0.1135
11882W        W28730   0.238  11.720   2.409 -0.0161 -0.2520 -0.1967
11883W        W28731   7.560   1.356  13.506  0.2292  0.0286  0.3482
11884W        W28732   1.932   8.063   2.496 -0.0573 -0.2167 -0.2353
11885W        W28733   8.295  10.457  14.208  0.0437 -0.0281  0.1615
11886W        W28734  14.233   1.042   1.681  0.0931 -0.0250  0.0134
11887W        W28735   0.088  12.620  14.137 -0.1271 -0.2193  0.1598
11888W        W28736   3.544  14.049   4.356 -0.1282 -0.0421 -0.0258
11889W        W28737   5.231   6.125   0.673  0.0724  0.1418  0.3012
11890W        W28738   5.255   6.618  10.242  0.3566  0.4264 -0.0195
11891W        W28739   0.664  11.785   4.420 -0.0147  0.0689 -0.1188
11892W        W28740   9.516   9.407  16.010  0.0032  0.1493  0.0862
11893W        W28741   2.351  11.007   2.008 -0.3428  0.0628  0.0932
11894W        W28742   2.450  17.470   1.603 -0.1667  0.2228  0.2019
11895W        W28743   0.490  15.863   1.994  0.1374  0.2269  0.2893
11896W        W28744   5.436  12.415   2.626  0.0547  0.0807  0.1631
11897W        W28745   9.489   7.198   1.789  0.0927 -0.0695  0.3914
11898W        W28746  13.452  10.837  14.935 -0.0338 -0.2697 -0.3056
11899W        W28747   5.811  16.836   4.202 -0.1130  0.1235  0.0257
11900W        W28748  11.396  13.314   3.681 -0.1788 -0.2094 -0.2675
11901W        W28749  10.842   9.041   5.330 -0.0272  0.1313  0.1494
11902W        W28750   2.735   0.533   1.221 -0.1611 -0.0875 -0.0099
11903W        W28751   2.025   9.094  13.035 -0.0907  0.0367 -0.0843
11904W        W28752   2.978  14.631  14.411  0.0532 -0.2498  0.0517
11905W        W28753   0.745   1.205  13.521 -0.1099 -0.1317  0.1743
11906W        W28754  14.478  11.966   3.803 -0.1832 -0.2213  0.3745
11907W        W28755   0.420   6.350   2.736  0.3768 -0.1338 -0.0649
11908W        W28756  17.552  10.490   4.374 -0.2374 -0.4033 -0.1821
11909W        W28757   9.207   1.530   2.581  0.1790  0.1569  0.1121
11910W        W28758  15.616  11.991   2.798  0.0748  0.1705  0.0761
11911W        W28759  11.023   6.343  15.437  0.1419  0.0687  0.1817
11912W        W28760   0.879   4.223   1.361  0.2233 -0.1030  0.0530
11913W        W28761   3.118   6.264   0.485  0.1708 -0.0931 -0.0678
11914W        W28762  11.014  12.642  15.081 -0.0753  0.1084  0.1142
11915W        W28763   5.231  13.001  13.334  0.0675  0.0207 -0.1214
11916W        W28764   4.552   0.524  11.801 -0.0896 -0.3051  0.0094
11917W        W28765  11.899   3.608   4.466 -0.1452 -0.0505  0.3360
11918W        W28766  15.766  11.777  12.337 -0.1946 -0.1094 -0.2715
11919W        W28767   8.423   6.715  14.692  0.0224  0.0358  0.1398
11920W        W28768   9.929  17.277  14.431 -0.3940  0.2195  0.2852
11921W        W28769   2.119   1.564  16.052  0.0838 -0.2213 -0.2504
11922W        W28770   3.992  10.778  13.439 -0.2497  0.0371  0.0476
11923W        W28771   0.558  10.223   0.951  0.2611 -0.0516 -0.0575
11924W        W28772  11.892   7.692  14.402 -0.0682 -0.1266  0.0424
11925W        W28773   3.614  10.316   0.305 -0.0427 -0.0951  0.2754
11926W        W28774  16.522   8.241  13.173 -0.1508 -0.0356  0.2334
11927W        W28775  12.919  17.031  14.880  0.0725  0.1618 -0.0071
11928W        W28776  15.569  13.023  14.021 -0.0763 -0.0903  0.1524
11929W        W28777  11.545   8.121  12.519  0.0529  0.1673  0.0156
11930W        W28778  10.798   1.106   3.212 -0.0920  0.0326  0.1786
11931W        W28779  14.284   6.296  10.479 -0.0377 -0.1239  0.0825
11932W        W28780  10.163  14.509  13.987 -0.0515 -0.0475 -0.0594
11933W        W28781   8.259   0.989  16.251 -0.1263  0.0899  0.2660
11934W        W28782   2.325  10.013  13.632 -0.0646  0.1686 -0.2108
11935W        W28783  16.151  12.677  14.389 -0.0178 -0.4563  0.0428
11936W        W28784  11.448   6.071  15.230 -0.0665 -0.2142  0.3056
11937W        W28785  13.889   7.328   2.842  0.1759 -0.0776 -0.2868
11938W        W28786  11.741  16.108   3.842 -0.0924  0.1771 -0.0003
11939W        W28787   2.584   1.536   2.589 -0.0058 -0.0438  0.1646
11940W        W28788   0.158   8.080  13.509 -0.0835 -0.0227 -0.2594
11941W        W28789  16.810   0.794  10.904 -0.0227  0.0169  0.0968
11942W        W28790  14.890   8.507   4.131  0.2140  0.1919 -0.2140
11943W        W28791   5.749   7.806   1.122  0.0017  0.0106 -0.0109
11944W        W28792   2.341  15.847   2.247 -0.1904  0.1457 -0.0452
11945W        W28793   2.802  12.937  11.974 -0.0022 -0.3695 -0.1920
11946W        W28794   8.291   1.443   4.661  0.2125  0.3311  0.0669
11947W        W28795   7.053   4.409   5.051 -0.0524  0.1698 -0.0128
11948W        W28796  12.826  17.856  14.300  0.1837 -0.2169 -0.2117
11949W        W28797  13.719  15.683  16.005  0.0050  0.0420 -0.0365
11950W        W28798  15.932  16.689   1.978 -0.0137 -0.0111 -0.0617
11951W        W28799  17.773  16.535   0.931 -0.0737 -0.0534  0.0124
11952W        W28800   7.695   3.184  13.609 -0.0684 -0.4118  0.0133
11953W        W28801   6.752   9.469   0.885  0.2086 -0.1240 -0.0062
11954W        W28802  14.597   4.018   0.600  0.0562  0.0030  0.2278
11955W        W28803   1.154  10.356  15.288 -0.1258  0.2348 -0.0690
11956W        W28804   5.226  15.947   1.877 -0.1933  0.0627  0.0478
11957W        W28805   3.044  13.308   2.887  0.2250 -0.0390 -0.1212
11958W        W28806  16.817  10.380   3.489 -0.1743  0.0120  0.0885
11959W        W28807   5.313   0.597  16.157 -0.1271 -0.0536  0.2241
11960W        W28808  15.882  14.793   1.187 -0.1668 -0.0937 -0.0158
11961W        W28809   5.411   8.560  11.616 -0.2303  0.3725 -0.1032
11962W        W28810  11.190  17.668   3.236  0.3361 -0.2418 -0.0055
11963W        W28811   4.514   1.885   0.215  0.1429  0.1722  0.1081
11964W        W28812  11.579   8.989   0.072  0.0623  0.1863 -0.0826
11965W        W28813  17.816  12.358   2.069  0.0866 -0.2653  0.0234
11966W        W28814   1.229  16.988   4.823 -0.0806  0.2323 -0.1338
11967W        W28815   2.611   3.913  15.382 -0.0550 -0.2035  0.1901
11968W        W28816   5.897   2.825  13.575 -0.1791 -0.2571 -0.2029
11969W        W28817  11.707   3.354  12.869  0.1775  0.0399 -0.3204
11970W        W28818  12.682  16.804   1.113 -0.0071 -0.0525 -0.1636
11971W        W28819   6.406  17.253   2.182 -0.1646 -0.2531  0.2048
11972W        W28820  15.945   3.915  13.956  0.1142  0.0760  0.1340
11973W        W28821   9.439  15.233  15.865 -0.0745 -0.0163  0.1454
11974W        W28822  17.091   2.460  11.169  0.0555  0.0092  0.1299
11975W        W28823  16.451   1.236   0.527  0.6391  0.3412 -0.5344
11976W        W28824   8.566   4.727   5.236  0.1295  0.2843  0.0658
11977W        W28825  15.268  17.143  12.327  0.2348 -0.3298  0.2570
11978W        W28826  10.606  16.876  13.546  0.2193 -0.2168 -0.1834
11979W        W28827  14.040   7.482   4.989  0.1661  0.0241  0.1065
11980W        W28828  16.799   3.424   0.963  0.1410 -0.0492 -0.0915
11981W        W28829   7.750  16.451   2.690  0.0033 -0.0681  0.2767
11982W        W28830  16.499   5.224   3.768  0.0591  0.1762  0.0098
11983W        W28831  11.377   8.858  10.849 -0.0343 -0.0973 -0.2253
11984W        W28832   0.090   3.010   4.242 -0.0970 -0.2626  0.0082
11985W        W28833  11.158  12.205  11.864  0.0327  0.2234  0.1283
11986W        W28834  14.740  13.527   1.254  0.3288  0.0999 -0.1370
11987W        W28835   3.786  16.372  11.841 -0.1997  0.0043 -0.3041
11988W        W28836  12.420   7.753  11.597 -0.0426 -0.0285  0.0212
11989W        W28837   4.289   9.958   3.583  0.0820 -0.0513 -0.0069
11990W        W28838  13.087  11.741   0.351 -0.3467 -0.1954  0.1984
11991W        W28839   6.752  11.508  12.269  0.1718 -0.1251  0.4280
11992W        W28840  15.982   6.655  13.741  0.1931 -0.0074 -0.1031
11993W        W28841   5.030  10.670  13.311 -0.1737 -0.2113 -0.1042
11994W        W28842   6.874   4.644   3.783  0.0611  0.0542  0.3005
11995W        W28843   3.687   8.921  12.419 -0.0377  0.0452 -0.1279
11996W        W28844   3.727  17.276  12.939 -0.2047  0.1710  0.1996
11997W        W28845  16.328  12.387   5.226 -0.0443 -0.1522  0.2355
11998W        W28846  13.495   2.564   1.066 -0.0912 -0.1101  0.2322
11999W        W28847  10.004  16.053   1.622 -0.2357  0.0560  0.0697
12000W        W28848  12.002   2.456  14.972  0.1688 -0.1219 -0.0974
12001W        W28849  12.290   6.670  15.104  0.0185 -0.0511 -0.1675
12002W        W28850  15.965  10.938   3.667  0.1042  0.0205  0.0133
12003W        W28851   3.679  16.890  15.221 -0.0293 -0.0746 -0.1996
12004W        W28852  16.235   3.555   0.863  0.1621 -0.0372  0.1477
12005W        W28853  15.911   6.140   3.643 -0.1638 -0.0558  0.4044
12006W        W28854  13.929  17.939   4.866 -0.2394 -0.0820  0.0673
12007W        W28855   1.332   7.016  15.628 -0.0179 -0.0482  0.0633
12008W        W28856   1.938   8.105   1.167  0.1108  0.1020  0.0705
12009W        W28857   1.395   5.160  11.834 -0.1760 -0.1686 -0.3034
12010W        W28858   5.274   2.704  14.398 -0.2044 -0.1369 -0.0886
12011W        W28859   1.755   2.277   2.031 -0.1094  0.3350 -0.1442
12012W        W28860  15.204   8.925  11.372 -0.1638  0.1149  0.0163
12013W        W28861   2.297   1.982   0.666  0.0702  0.1050  0.0001
12014W        W28862  13.216   2.049   5.590 -0.0043  0.2065 -0.0635
12015W        W28863   2.497  15.804  12.292  0.3656  0.1731 -0.0345
12016W        W28864   3.792   8.714   0.885  0.0880  0.3627  0.2027
12017W        W28865  13.141   6.608   0.151 -0.0228 -0.1149 -0.0693
12018W        W28866  12.158  15.773   3.801  0.3577 -0.1569 -0.0570
12019W        W28867   0.560   2.485  13.829  0.0109  0.1148  0.0541
12020W        W28868   4.802   8.875   0.146 -0.0254  0.5596 -0.0118
12021W        W28869   4.199   5.887   4.825 -0.0268  0.1115 -0.0155
12022W        W28870   7.227  16.293   5.011  0.0206  0.0036  0.1979
12023W        W28871   5.606   5.644   3.231  0.2822  0.0195 -0.2917
12024W        W28872  16.321  13.440   0.432 -0.3783  0.0243  0.0426
12025W        W28873  11.916   5.613  11.447 -0.1557 -0.0647 -0.1119
12026W        W28874   7.060   0.961   1.970 -0.0230 -0.0327  0.1553
12027W        W28875   8.193   8.412  13.986  0.3104  0.1112  0.0439
12028W        W28876  15.246  15.320  12.786 -0.0342 -0.0514 -0.2094
12029W        W28877   2.553   9.619   2.787  0.1154  0.2150  0.4303
12030W        W28878   1.048  17.583  14.804  0.0300  0.0984 -0.1143
12031W        W28879   0.612  16.831   0.777  0.2686 -0.1461  0.1384
12032W        W28880   3.337   4.500   2.390  0.1360 -0.4073  0.0299
12033W        W28881  17.375  11.874  13.389 -0.2067  0.0177  0.0005
12034W        W28882   8.546   0.947   2.666  0.0655 -0.0262  0.1630
12035W        W28883   8.693  12.127   3.174  0.0333 -0.0894 -0.1865
12036W        W28884   1.887  14.474  14.253  0.0591 -0.0906 -0.0295
12037W        W28885  10.155  17.331   5.306 -0.1888 -0.0344 -0.0518
12038W        W28886   6.831  16.324  14.423  0.5338 -0.2939 -0.0928
12039W        W28887   6.293  12.531   2.624 -0.0220  0.1158  0.2169
12040W        W28888  15.283  15.140  13.268  0.1691 -0.3742 -0.0110
12041W        W28889   1.356   7.373   5.324 -0.3159 -0.0208 -0.1351
12042W        W28890   3.986   0.043   4.162 -0.0890  0.2570 -0.1033
12043W        W28891  13.668  10.900  12.292 -0.0576  0.0582 -0.3067
12044W        W28892  15.693   4.491   2.191 -0.1569 -0.0103  0.0644
12045W        W28893  16.810  16.467   3.805  0.2037  0.0933  0.0418
12046W        W28894  16.237   9.316  14.064  0.1722 -0.1785 -0.0489
12047W        W28895  14.255  16.419  15.936 -0.1787  0.0945  0.0099
12048W        W28896   1.149  16.632  14.331 -0.0117  0.1611  0.1975
12049W        W28897  10.477  11.310   4.980  0.2610  0.0699 -0.0610
12050W        W28898  14.211  10.369  12.919  0.3459 -0.3422  0.2819
12051W        W28899  16.335   4.786   0.212 -0.3293  0.0400 -0.1532
12052W        W28900  10.354   6.497  12.699 -0.0763  0.1816  0.0841
12053W        W28901   3.833   5.295   3.439  0.0329 -0.2195  0.1091
12054W        W28902  10.289  15.553   0.464  0.0704  0.0401  0.0194
12055W        W28903   6.479   2.572   2.029 -0.1367  0.4186 -0.2050
12056W        W28904  15.319  14.830   0.336  0.3430  0.1375  0.0352
12057W        W28905  17.167  14.379  12.535  0.3857  0.0609 -0.1236
12058W        W28906  11.561   6.444  12.495  0.0253 -0.2512 -0.0035
12059W        W28907   6.865  11.381   3.237  0.2517 -0.1624  0.1700
12060W        W28908   7.928  16.751   0.118  0.4131 -0.1590 -0.2808
12061W        W28909  11.781  13.256   4.613  0.0636 -0.2892  0.0018
12062W        W28910   7.898   1.172  14.413  0.1345 -0.0987 -0.0915
12063W        W28911   7.943   2.966   5.089  0.0443  0.1322 -0.0152
12064W        W28912   6.077   1.111   1.950 -0.1300  0.2629 -0.2434
12065W        W28913   3.932  17.762  14.690 -0.1007 -0.0473  0.2318
12066W        W28914   4.430   6.954   0.454 -0.0148  0.4371  0.0021
12067W        W28915  14.528  11.129   2.491  0.0540  0.1464 -0.3504
12068W        W28916   3.434   1.430   5.339  0.0422 -0.0062  0.3608
12069W        W28917   5.092   1.497  11.838  0.0572 -0.3315 -0.0268
12070W        W28918   3.337   9.672   2.710 -0.2121  0.1661  0.0113
12071W        W28919   1.563  14.427   3.302  0.0276 -0.0949 -0.0580
12072W        W28920   0.195   5.462   2.173  0.0432 -0.2850  0.0622
12073W        W28921   7.371   9.626   2.175  0.0642 -0.0435  0.0781
12074W        W28922   3.149   5.405  12.286 -0.0249 -0.0460 -0.1686
12075W        W28923   5.075  15.476  11.203 -0.1490 -0.1615 -0.5179
12076W        W28924   4.165  17.626  13.643 -0.0242 -0.0788  0.0456
12077W        W28925  13.694   0.808   0.402  0.2701 -0.0678 -0.0130
12078W        W28926   9.855   8.550  15.751 -0.0905 -0.0670  0.0726
12079W        W28927  14.755   3.545  12.395  0.2255 -0.0148 -0.1509
12080W        W28928  10.603   8.690   0.695  0.2262 -0.0843 -0.1345
12081W        W28929  13.228   7.634   3.958 -0.0495 -0.2090  0.1116
12082W        W28930   8.810   5.505   2.223 -0.2606 -0.1945  0.3655
12083W        W28931   0.016   4.140   3.216 -0.0104  0.0984 -0.0385
12084W        W28932   4.611   6.056  15.004  0.0741 -0.0074 -0.0380
12085W        W28933  13.367   4.857  12.304 -0.1423 -0.1284 -0.0604
12086W        W28934  17.977  14.670  14.948  0.2019  0.0328  0.0946
12087W        W28935   0.827   2.130   0.558 -0.2172 -0.0033  0.0892
12088W        W28936   5.915  11.586  14.845  0.0136  0.1788  0.3400
12089W        W28937   2.825  17.980  15.342  0.1407  0.4465 -0.1553
12090W        W28938   4.128  17.191   5.007 -0.3232 -0.0670 -0.2343
12091W        W28939  15.418   3.914   0.038 -0.1647 -0.1256  0.0709
12092W        W28940  10.139  14.768   1.018  0.1695 -0.2077  0.0901
12093W        W28941   9.026  17.804  10.576 -0.2944  0.0954 -0.0052
12094W        W28942   4.759  10.601   1.258  0.1565 -0.0704  0.0615
12095W        W28943  16.726   9.193  14.077  0.0557 -0.0598 -0.0017
12096W        W28944  16.187  11.956   2.717 -0.0905 -0.2112  0.0629
12097W        W28945  11.952  11.999   4.687 -0.0257 -0.2897 -0.0675
12098W        W28946   9.481  16.053   0.783 -0.2888  0.1481 -0.1887
12099W        W28947   9.304   1.256  11.611 -0.0093  0.0042  0.2795
12100W        W28948   1.099   6.165   4.372  0.0215 -0.1981  0.1754
12101W        W28949   1.820  12.047   3.967  0.2898  0.0348  0.0039
12102W        W28950   9.502  16.908  15.712 -0.0602  0.0728  0.0489
12103W        W28951   1.395  15.014   0.080  0.0883  0.2201  0.2119
12104W        W28952  14.813  15.608   1.387  0.2194 -0.2433  0.1634
12105W        W28953  10.965   3.459   0.581  0.2207 -0.1118  0.3969
12106W        W28954   1.935   2.257  11.503  0.1981  0.2205  0.0248
12107W        W28955  17.781  10.036   0.999  0.0431 -0.1711  0.0668
12108W        W28956   5.100   4.339   0.866  0.1191 -0.1973  0.0243
12109W        W28957  16.507   9.705  15.261 -0.1193  0.0287  0.1734
12110W        W28958  14.559  17.566   3.392 -0.3728 -0.1231  0.1802
12111W        W28959   0.574  11.725   0.436  0.0923 -0.1417 -0.0405
12112W        W28960  17.026  15.507   2.967  0.0487 -0.0299  0.1159
12113W        W28961   8.991  10.604  15.945  0.4150  0.0686 -0.0885
12114W        W28962  15.291   2.876   5.947  0.2132  0.1467 -0.2162
12115W        W28963  12.242   4.724   4.672 -0.0867  0.1216 -0.5239
12116W        W28964   7.279  12.803  11.330  0.1150 -0.0082 -0.2060
12117W        W28965   7.323  16.489  13.470 -0.3521  0.0940 -0.0274
12118W        W28966   0.915   8.251   2.287 -0.3336  0.0339  0.1813
12119W        W28967   0.818   8.745   0.240 -0.1063  0.0138  0.2139
12120W        W28968   9.934  16.657   2.704 -0.1017  0.2279  0.1189
12121W        W28969   3.805  15.387   3.564 -0.3294 -0.0637 -0.1647
12122W        W28970   6.837   0.152   2.871  0.1028  0.0808  0.0366
12123W        W28971   2.592   1.691  14.006  0.1538  0.1065 -0.2876
12124W        W28972  11.264   1.622   2.092 -0.2980 -0.0644  0.1444
12125W        W28973  14.409   1.085  12.461  0.0388  0.0837 -0.1157
12126W        W28974   7.311   0.095  14.985  0.0668  0.1666 -0.1279
12127W        W28975  11.379  15.395  15.128  0.0939  0.1624  0.4396
12128W        W28976  12.868   1.411   2.942  0.2046 -0.3231  0.0061
12129W        W28977   4.529   5.019  10.858 -0.2953 -0.1248  0.1300
12130W        W28978   0.887  17.306   1.513  0.2385  0.0551  0.2515
12131W        W28979  10.380   9.709  10.022 -0.0878 -0.0498  0.2020
12132W        W28980   0.863  17.796   0.701 -0.4260 -0.0592  0.0799
12133W        W28981   6.780  15.648  12.716  0.0852  0.2798  0.1310
12134W        W28982   9.647   1.608   0.780 -0.2058 -0.2764 -0.1500
12135W        W28983  11.422   6.329   0.112 -0.2060  0.0544 -0.2616
12136W        W28984   7.284   8.464  13.790 -0.2613  0.1717 -0.3149
12137W        W28985  14.890   3.613  11.946 -0.0584 -0.0383 -0.0407
12138W        W28986   9.215  13.007  14.593 -0.1235  0.0236 -0.1681
12139W        W28987   6.224   6.969  13.034 -0.1556 -0.1024 -0.0453
12140W        W28988  15.832   5.156   1.516 -0.0479 -0.2736 -0.3748
12141W        W28989   5.578  12.310   3.357 -0.0246 -0.1974  0.0004
12142W        W28990   7.109   1.608  14.832  0.1557 -0.1795 -0.1012
12143W        W28991  14.016   2.135  13.630 -0.2511 -0.1784  0.1743
12144W        W28992   5.479   3.144  13.560 -0.1692 -0.6225  0.1055
12145W        W28993   3.803  17.623   3.907 -0.1137 -0.0104  0.1187
12146W        W28994  14.687  12.627  11.542  0.0721 -0.1583  0.3667
12147W        W28995   7.212  10.701  15.200  0.4909  0.0015 -0.1337
12148W        W28996   0.779   6.876  10.581  0.1378 -0.0292  0.0840
12149W        W28997  16.509   8.416  11.861  0.1728  0.0974 -0.0895
12150W        W28998  16.072   1.931  15.281 -0.1983  0.0813  0.2192
12151W        W28999   9.381   3.804  11.594  0.1144 -0.0803 -0.1285
12152W        W29000   2.010   8.088  12.159 -0.1483  0.4914  0.0876
12153W        W29001   5.494  17.367   5.847  0.0709  0.1287  0.0231
12154W        W29002   0.683  10.714   3.677  0.1976  0.1300  0.3565
12155W        W29003  11.016   0.540  12.750  0.1645 -0.0886  0.0786
12156W        W29004  13.042   0.404  11.696  0.1745 -0.1577 -0.2805
12157W        W29005  12.351  17.706   0.487  0.0031 -0.2288 -0.0588
12158W        W29006   3.384   1.318   3.501  0.1094  0.0588 -0.1054
12159W        W29007   3.291  10.501   5.038 -0.2277  0.1061  0.0562
12160W        W29008  12.893   0.320   0.810 -0.0959 -0.1180 -0.0842
12161W        W29009   6.761  12.166  11.185  0.3187 -0.1263  0.0317
12162W        W29010  13.654   1.754  14.214 -0.2126 -0.0951  0.3582
12163W        W29011   0.945  10.806   4.250  0.0543 -0.0962 -0.2025
12164W        W29012   7.355   3.710   1.193 -0.1249  0.4564 -0.2470
12165W        W29013   5.765   5.820   4.072  0.0649 -0.2202 -0.2472
12166W        W29014  11.421  10.419   1.099  0.2564 -0.0088 -0.0297
12167W        W29015  16.404   4.924  13.154  0.2920  0.0464 -0.1078
12168W        W29016   3.313   9.424   2.128  0.1646 -0.0650 -0.3366
12169W        W29017   2.695   5.748  13.914  0.2489  0.0539 -0.1864
12170W        W29018   3.230  15.586  13.904  0.2095  0.2823  0.0652
12171W        W29019   7.978  13.050   5.582  0.4045  0.0787 -0.0427
12172W        W29020   6.004   5.295  15.244 -0.2839 -0.0010  0.0757
12173W        W29021   4.470   0.754   3.815 -0.0730  0.2474  0.0936
12174W        W29022   8.996  12.816   0.724  0.2804  0.1732 -0.1184
12175W        W29023  16.342  13.255   3.289  0.1791  0.0884  0.1091
12176W        W29024  16.149  12.944  15.792 -0.2353 -0.0506  0.2000
12177W        W29025   5.212   6.264  12.086  0.1168 -0.1856 -0.0336
12178W        W29026   5.971   1.920  11.873 -0.0473  0.2754 -0.0338
12179W        W29027   3.085  15.729  15.931  0.2309  0.1989 -0.2638
12180W        W29028   2.521   6.323   5.597 -0.0733  0.1202  0.1312
12181W        W29029   6.754   0.927   0.104  0.0124 -0.1971 -0.0166
12182W        W29030   1.531  10.306   2.675 -0.2030 -0.1628 -0.0900
12183W        W29031   8.802  15.536  13.024 -0.1884 -0.1014 -0.3316
12184W        W29032  14.657   0.398   2.816 -0.0574 -0.0114 -0.1148
12185W        W29033  12.050   0.955   6.014 -0.3633 -0.2314 -0.1181
12186W        W29034   2.952   7.180  16.139  0.1910 -0.0805 -0.1528
12187W        W29035   9.361   8.440   2.381  0.0635 -0.2077 -0.0030
12188W        W29036   7.752  12.862   2.894 -0.1023  0.0580  0.0646
12189W        W29037   9.577   7.679   3.575  0.0045  0.1331 -0.2265
12190W        W29038  14.016   9.999   4.659 -0.3425 -0.0066  0.1597
12191W        W29039   8.412   0.675   2.301 -0.0954  0.1159 -0.1544
12192W        W29040  15.783   9.211  12.073 -0.0301 -0.1497  0.1860
12193W        W29041   2.534   0.177  15.722  0.0616 -0.0441  0.0538
12194W        W29042   9.850  10.579  13.114 -0.1187  0.1147  0.1974
12195W        W29043   6.705  12.402  13.771 -0.2109 -0.2265  0.1993
12196W        W29044   0.763  10.641   5.733  0.4081 -0.2054 -0.3047
12197W        W29045  15.167   6.778   1.769  0.2620  0.1019  0.0187
12198W        W29046   9.264  16.189  14.245 -0.1410 -0.2747 -0.1300
12199W        W29047  12.960  12.484  14.499 -0.1376  0.1165 -0.1478
12200W        W29048   5.477  14.569  12.019 -0.2011  0.2311 -0.1972
12201W        W29049   5.028   9.487   3.866 -0.3218 -0.3024 -0.2065
12202W        W29050  12.840   5.873   2.937  0.4597 -0.1122  0.3973
12203W        W29051  16.473   9.918   4.169 -0.0245  0.0314 -0.2377
12204W        W29052   3.062   2.522  14.580  0.0791 -0.3071  0.2928
12205W        W29053  16.204   4.944  12.447  0.0371 -0.1148 -0.2707
12206W        W29054   5.116   5.233   2.536  0.1933  0.0049  0.0643
12207W        W29055   5.459   1.304  14.179 -0.0833  0.1803  0.0100
12208W        W29056  14.175   7.599  13.609  0.1769  0.0898 -0.3028
12209W        W29057  15.010  16.865   2.425  0.1087 -0.0293  0.0375
12210W        W29058  16.298  14.781   0.113 -0.0123 -0.0222 -0.1337
12211W        W29059   9.138   3.086  12.507  0.0909 -0.0530  0.0155
12212W        W29060   2.495  12.423   1.948  0.0424  0.0240 -0.1388
12213W        W29061   0.072  11.132  11.988 -0.0632 -0.0707  0.4304
12214W        W29062  17.763   7.615   0.969  0.0880  0.2274 -0.2391
12215W        W29063  16.037   4.478   0.370  0.0643 -0.1307  0.0261
12216W        W29064   9.451  17.927  15.567 -0.4060  0.2345  0.3974
12217W        W29065   1.752   2.637   2.684  0.4323  0.0140  0.2135
12218W        W29066  16.745   2.324  10.739  0.1207  0.0167 -0.2712
12219W        W29067   7.977   7.880   1.333 -0.2321 -0.3048 -0.0215
12220W        W29068   8.221   6.950   3.322 -0.2174 -0.1792 -0.0640
12221W        W29069  12.880   1.164  16.268  0.1125  0.1038  0.0124
12222W        W29070   7.756   6.170  11.470  0.0956  0.2572  0.0763
12223W        W29071   9.738   5.561  13.791 -0.0075 -0.0407  0.0380
12224W        W29072   4.270   9.023  14.038 -0.0750  0.1539 -0.0586
12225W        W29073   6.204  15.813  14.512  0.0168  0.0161  0.3222
12226W        W29074   1.365   1.853  14.550  0.2247 -0.0523  0.3138
12227W        W29075  15.950  13.777   0.483 -0.1824 -0.1127 -0.0199
12228W        W29076   4.226  10.727  11.003  0.0199  0.2620 -0.0636
12229W        W29077  14.469  13.350  13.300  0.1352  0.1536  0.2476
12230W        W29078   9.653   0.386  11.014  0.0125  0.2137 -0.0950
12231W        W29079  10.503  14.288  12.320 -0.0327  0.1815  0.0108
12232W        W29080   9.774  10.750  15.632  0.0128 -0.1061  0.0411
12233W        W29081  16.064  10.489  13.310 -0.1558  0.1427  0.0815
12234W        W29082  10.176   5.112   3.513 -0.1035  0.0275 -0.1270
12235W        W29083  12.501   2.253   0.669 -0.1250 -0.0750 -0.3776
12236W        W29084  15.633  12.505  13.634 -0.4603 -0.1105 -0.0625
12237W        W29085  14.345  12.231  11.405  0.1024 -0.0752 -0.0863
12238W        W29086  17.669   7.245  11.642  0.0943 -0.0550  0.1836
12239W        W29087   8.813  13.025   4.422  0.1744  0.0482 -0.0674
12240W        W29088  14.219  15.902  11.253  0.0867 -0.0002 -0.0449
12241W        W29089  14.247   4.551   2.881  0.2725 -0.2514  0.1587
12242W        W29090   5.228  17.011  13.151 -0.2614  0.2742  0.2344
12243W        W29091  13.715   3.943   0.156 -0.2752 -0.0049 -0.1125
12244W        W29092  17.897   2.804   1.089  0.0211  0.1997  0.4372
12245W        W29093  10.580   3.130  14.962 -0.0453  0.1713  0.2221
12246W        W29094   8.615   6.972  12.899 -0.0220 -0.1529  0.1050
12247W        W29095   8.013  17.895  12.827  0.3771  0.2793  0.0986
12248W        W29096  12.766  10.304   1.516 -0.0747  0.1886  0.2850
12249W        W29097  11.676   2.781   2.169 -0.1105 -0.2032  0.1973
12250W        W29098  15.828  14.482  11.291  0.0359  0.2711 -0.0645
12251W        W29099   8.172   7.971  14.494 -0.1942 -0.0122  0.1459
12252W        W29100   1.782  13.596  14.718 -0.0122 -0.2367  0.2888
12253W        W29101  14.586   7.788   2.365  0.0371 -0.0189 -0.1311
12254W        W29102   5.800  15.460   0.761 -0.4093 -0.1456 -0.2290
12255W        W29103   6.178   6.382  12.421 -0.1157 -0.1286 -0.3304
12256W        W29104   8.783   9.213   2.643  0.0628  0.1355  0.3619
12257W        W29105   9.018   3.585   2.020 -0.4486 -0.4224  0.1430
12258W        W29106   9.669   3.846   4.593 -0.0825  0.1568 -0.1333
12259W        W29107  15.824   9.528  12.510  0.1524  0.0890  0.2741
12260W        W29108   9.179  16.862   6.436 -0.2150  0.0058  0.2201
12261W        W29109   9.866  13.916  14.422 -0.0890 -0.0051 -0.0560
12262W        W29110   3.021   6.367  12.270  0.2255 -0.1821 -0.3669
12263W        W29111   4.551   3.401   0.951  0.2063 -0.1068 -0.0651
12264W        W29112  14.312   9.071  11.916  0.0513 -0.1962  0.1323
12265W        W29113  12.364  14.232   0.857 -0.2241  0.3203 -0.1494
12266W        W29114   0.050  13.195   0.442 -0.0480  0.2093 -0.2181
12267W        W29115   7.679  12.279  12.001 -0.1546 -0.1854  0.0994
12268W        W29116  17.568   8.124  14.022 -0.1415  0.1580  0.3862
12269W        W29117  14.298   8.526  13.395  0.2817 -0.4894  0.0385
12270W        W29118  10.232   3.677   5.457 -0.2846 -0.1245  0.2056
12271W        W29119   8.741   9.422   2.076  0.0668  0.1380 -0.1034
12272W        W29120   2.315   8.137  13.855 -0.1891 -0.0647 -0.1243
12273W        W29121  15.350  13.980   2.286 -0.1148 -0.0884 -0.3125
12274W        W29122   8.813   9.898  13.416  0.2101  0.1924 -0.1522
12275W        W29123   5.483   7.201  14.169 -0.1890 -0.0199  0.0502
12276W        W29124   1.389  14.918   3.423 -0.2021  0.0541 -0.2729
12277W        W29125  14.125   4.608   4.266  0.1711 -0.2746  0.0742
12278W        W29126  15.691  12.657  15.864  0.1618  0.1084 -0.1125
12279W        W29127   7.551   5.031   1.400  0.4539 -0.1467 -0.1169
12280W        W29128   0.386   5.826   3.376 -0.0556 -0.0630  0.0455
12281W        W29129  15.479   1.265   3.941  0.1443 -0.3342  0.1630
12282W        W29130  16.635  12.868   2.590  0.1009 -0.1231  0.2927
12283W        W29131  12.801   1.253   3.443 -0.1199  0.2174  0.2158
12284W        W29132   3.296   2.746   2.491  0.0443  0.0335  0.2031
12285W        W29133   3.788   5.424  15.982 -0.0969  0.0179  0.1724
12286W        W29134  11.841  12.537   2.970  0.1340 -0.0660  0.3420
12287W        W29135   1.639  14.586   4.567  0.1252 -0.0851  0.1263
12288W        W29136   7.703  14.273   1.910  0.0063 -0.4184  0.1666
12289W        W29137   0.037   2.261  12.109  0.0497  0.3123  0.0122
12290W        W29138  11.181   3.559  10.977 -0.0100 -0.1677  0.0658
12291W        W29139   5.720   7.270   0.810  0.1470 -0.2206  0.0893
12292W        W29140   8.373  16.334  11.897  0.0702  0.0826 -0.3364
12293W        W29141   9.037   5.341  11.098  0.2151  0.0710 -0.1519
12294W        W29142   3.066  13.786  14.707 -0.2315 -0.3417 -0.3798
12295W        W29143   5.571  17.708  14.552 -0.1196 -0.0808  0.0474
12296W        W29144  12.973   4.032  14.216 -0.3311 -0.1082  0.3111
12297W        W29145   1.257  14.668   2.008 -0.0350  0.0685 -0.1511
12298W        W29146   4.975  15.592  11.710  0.0407 -0.1043  0.4025
12299W        W29147  15.740   3.391  12.566 -0.2210  0.2986 -0.0721
12300W        W29148   2.651  17.587  11.502 -0.0229 -0.0356 -0.2439
12301W        W29149   7.413  17.991  12.290  0.0708  0.1092 -0.1344
12302W        W29150   4.792   6.519   3.999  0.1424  0.0410  0.0649
12303W        W29151  14.432   3.865  11.512 -0.3336  0.2503  0.1648
12304W        W29152   2.755  11.949  13.073  0.0236  0.1029  0.0079
12305W        W29153   1.990  10.028   1.155  0.2093  0.0370  0.3149
12306W        W29154  16.664   0.351  10.944 -0.2422 -0.0348  0.0448
12307W        W29155   2.466  17.708   3.329  0.0421  0.0564  0.3512
12308W        W29156  15.938  16.250  15.338  0.1985 -0.1324 -0.2934
12309W        W29157   1.004   6.638  12.155 -0.0836 -0.0601 -0.2641
12310W        W29158   7.008  17.393  15.216 -0.4600 -0.1556  0.1187
12311W        W29159   6.511  13.166  15.630  0.2290  0.0653 -0.1740
12312W        W29160  10.975   4.015   0.602  0.0149 -0.1150 -0.0441
12313W        W29161  16.275  11.461  12.171  0.3423  0.1152  0.1419
12314W        W29162   8.672   8.700   3.758  0.1069  0.3454  0.3209
12315W        W29163  13.712   8.179   2.318  0.1279 -0.2092 -0.1963
12316W        W29164   9.768  14.660   4.265 -0.1793  0.0842  0.1062
12317W        W29165  10.029  11.800  10.927 -0.1534 -0.1762 -0.0262
12318W        W29166  12.209  16.713  12.925 -0.0360 -0.2942 -0.3918
12319W        W29167   2.848  10.117  11.465  0.0138 -0.0031 -0.2424
12320W        W29168   9.742   9.536  13.024  0.3247  0.0002 -0.1407
12321W        W29169  12.082   8.837   3.688 -0.2652 -0.0572 -0.0284
12322W        W29170  17.433  12.393   4.312  0.3035 -0.2766  0.2872
12323W        W29171  10.383  16.430  15.262  0.0479  0.1293  0.0624
12324W        W29172   7.690  12.942  14.330  0.3458 -0.0376 -0.0491
12325W        W29173  16.479   2.330  13.312 -0.0830  0.3836  0.0012
12326W        W29174   0.103  10.270  11.695 -0.0669 -0.1964 -0.1283
12327W        W29175   6.838  12.662   2.805  0.2138 -0.0468  0.0552
12328W        W29176   4.703   4.098   5.177  0.1112 -0.2668 -0.3694
12329W        W29177   2.071  12.476  15.193 -0.2244 -0.3877 -0.1316
12330W        W29178  16.923  10.058   1.916 -0.0822  0.0486 -0.0960
12331W        W29179  14.360  14.919  12.517  0.0712 -0.0346  0.3297
12332W        W29180   8.549  16.363  15.915 -0.1051 -0.0321  0.2737
12333W        W29181   2.210  14.550  11.512  0.1529  0.0735  0.2275
12334W        W29182   0.151   0.442   2.254  0.0928 -0.0848  0.2344
12335W        W29183   0.068   0.350  11.395 -0.0364 -0.0672  0.0066
12336W        W29184   9.964   8.450  14.797  0.0994 -0.0151  0.0672
12337W        W29185  10.672   2.036  14.490  0.1401 -0.0602  0.3535
12338W        W29186   0.261  16.736  13.868  0.0437  0.0358 -0.0218
12339W        W29187   7.796  10.434   2.086 -0.0391 -0.0190 -0.1141
12340W        W29188  12.939   0.900  12.963 -0.1394 -0.0039 -0.0395
12341W        W29189   7.915   2.386  16.105  0.3799  0.1567 -0.1328
12342W        W29190  12.596   5.771  15.705  0.1008 -0.1072  0.2204
12343W        W29191  10.329   8.743   3.192 -0.0909 -0.1584 -0.1243
12344W        W29192  13.175  13.524  12.958 -0.1762 -0.1058  0.0895
12345W        W29193   3.570  11.551   4.344  0.0313 -0.1987  0.5340
12346W        W29194   4.412   2.912  12.864 -0.0355  0.2294 -0.0077
12347W        W29195   4.831  10.664  13.878 -0.3292  0.0153 -0.0299
12348W        W29196   7.702  17.244  15.925  0.0007 -0.0096 -0.1081
12349W        W29197  17.774  11.815  13.622 -0.2860  0.1778  0.2094
12350W        W29198  15.247   3.267  11.300 -0.2032 -0.3093 -0.0966
12351W        W29199  12.690  10.338  12.632  0.0527  0.0019 -0.4340
12352W        W29200  13.361   5.342  12.176 -0.0561 -0.0815  0.0034
12353W        W29201   9.125  15.572  14.893 -0.1463 -0.0667  0.1507
12354W        W29202   5.022  11.817  14.695 -0.1180  0.1905 -0.1315
12355W        W29203   3.478   2.784  16.047 -0.1164  0.2957 -0.1311
12356W        W29204  15.448   5.741   0.213  0.3492  0.0079  0.1016
12357W        W29205  15.617  14.026  13.244  0.0680 -0.1053  0.2460
12358W        W29206   9.392   5.587   1.588  0.0121 -0.1727  0.1239
12359W        W29207  14.208   7.312  13.044 -0.0460 -0.0610 -0.0747
12360W        W29208   9.917   8.313   4.489  0.1714 -0.2200  0.3758
12361W        W29209   8.848  13.896   2.328 -0.0365 -0.1522  0.1295
12362W        W29210  15.584  16.696  11.429  0.1848  0.0401  0.0456
12363W        W29211  15.676  11.696  11.392  0.1277  0.3748 -0.1760
12364W        W29212   0.250  17.446   0.360  0.1243  0.0959  0.2584
12365W        W29213  12.318  11.939  15.966 -0.0163  0.1947 -0.1542
12366W        W29214  16.816  12.739   0.145  0.3041 -0.0346 -0.0087
12367W        W29215   3.540   1.183   0.817  0.0257  0.1045 -0.1690
12368W        W29216   3.009   7.883   0.442 -0.0585  0.1594 -0.3724
12369W        W29217   5.941  17.561  10.855  0.1135 -0.0544 -0.0704
12370W        W29218  10.605   9.179  15.495  0.1432 -0.0682 -0.0056
12371W        W29219  16.634  13.236   1.558  0.2296  0.1803  0.0065
12372W        W29220  14.158   5.925   3.306 -0.2217 -0.2814 -0.1851
12373W        W29221   6.777   8.631  14.343  0.0688  0.4176  0.1163
12374W        W29222  17.356  10.916  13.209  0.0323 -0.1391  0.1749
12375W        W29223  16.529  11.091  13.927  0.3063  0.2435 -0.0640
12376W        W29224   1.933   3.988   2.353  0.0508  0.1372 -0.0533
12377W        W29225   2.715  11.353  15.264  0.0223 -0.0186 -0.1114
12378W        W29226  14.852   9.284   3.088  0.3461  0.1277 -0.2653
12379W        W29227   0.033  10.939   1.014  0.0846 -0.0777  0.3292
12380W        W29228  17.282   8.421  14.348 -0.3470 -0.1889 -0.1005
12381W        W29229   2.418   1.126   2.315  0.0379 -0.2587 -0.1928
12382W        W29230   4.490   1.009   5.797 -0.1109  0.0463 -0.0313
12383W        W29231   7.833  17.940  14.984  0.2208 -0.1786 -0.0001
12384W        W29232  17.414   5.502   1.698  0.1177 -0.1426 -0.0960
12385W        W29233   9.986   8.780  14.295  0.1436 -0.1876  0.0507
12386W        W29234  10.100   5.745  14.238 -0.1348  0.0926 -0.1934
12387W        W29235  17.783  11.593   1.531  0.2610 -0.0851 -0.0401
12388W        W29236   0.050  15.084  12.254  0.3854  0.4766 -0.1118
12389W        W29237  15.599   9.483  15.779 -0.0585  0.0400  0.1530
12390W        W29238   2.548  10.810  15.271 -0.0003 -0.3690 -0.0642
12391W        W29239  16.358   5.302   1.336  0.2231  0.1135  0.1356
12392W        W29240  12.054  14.237  11.424 -0.0092  0.1885 -0.1783
12393W        W29241  13.874   4.948   0.809  0.2137  0.1654 -0.0915
12394W        W29242  16.299   0.277  15.314 -0.0093  0.1618 -0.1907
12395W        W29243  13.351   9.892  10.642 -0.0451  0.2193  0.2203
12396W        W29244   3.264  13.149   0.630 -0.0117 -0.0223 -0.1247
12397W        W29245   6.906  15.098  12.580  0.1964  0.0433  0.2876
12398W        W29246   6.493   1.785  13.542 -0.1162 -0.0055 -0.2276
12399W        W29247   3.996   1.463  13.953  0.0497 -0.4500  0.3447
12400W        W29248   0.035   2.269   5.726 -0.2486 -0.1062  0.2327
12401W        W29249   3.021   1.342  12.023 -0.0032 -0.0509  0.0654
12402W        W29250   6.572   0.375  14.681 -0.1376 -0.0264 -0.1317
12403W        W29251   5.726  16.977  13.212 -0.0085 -0.2075  0.4036
12404W        W29252  12.476   2.526  12.495  0.1090 -0.0568 -0.1722
12405W        W29253   9.550  13.758   4.551  0.4052  0.2455  0.0952
12406W        W29254   3.972   6.563   3.281 -0.1411  0.2062 -0.0483
12407W        W29255   9.004   7.588  11.555  0.1030 -0.1602  0.0540
12408W        W29256  15.175  11.469  15.257 -0.1749 -0.1462 -0.0342
12409W        W29257  13.101   0.556   4.685 -0.0473 -0.0741 -0.4818
12410W        W29258   5.181   8.172   2.829  0.0928  0.2531  0.1387
12411W        W29259  17.632   5.856   5.087 -0.1134  0.4025  0.1673
12412W        W29260   6.153   2.462  12.663  0.1189 -0.0235 -0.0346
12413W        W29261   5.271   6.658   2.942 -0.1400 -0.1130 -0.1498
12414W        W29262  11.728  14.881  12.999 -0.1559  0.4959  0.3505
12415W        W29263   1.578   8.969   2.381  0.1622  0.0897 -0.3577
12416W        W29264  12.478  17.081   4.049  0.1062  0.1098  0.1184
12417W        W29265   7.894   6.505  11.847 -0.0400 -0.2080  0.0446
12418W        W29266  15.814   9.103  15.464 -0.0187  0.3619  0.0743
12419W        W29267   6.368   0.768  15.921  0.1835 -0.0238  0.0982
12420W        W29268   1.792  11.607  11.639  0.0465 -0.0353 -0.2406
12421W        W29269   1.680  10.738  14.632 -0.1427  0.3888  0.1205
12422W        W29270   5.474  16.908   3.187 -0.0600 -0.1026 -0.3015
12423W        W29271   3.989  14.261   2.003 -0.0315  0.0767  0.0062
12424W        W29272  12.500   6.225  13.429 -0.2287 -0.3082 -0.0098
12425W        W29273   7.112   3.834   0.750 -0.2020 -0.1352  0.0053
12426W        W29274  12.569   7.634  15.980  0.2500 -0.2781  0.2246
12427W        W29275   1.732   4.885  14.768  0.0258 -0.1659 -0.0063
12428W        W29276   9.382   9.755  11.308 -0.1954 -0.3298 -0.2087
12429W        W29277   1.167   1.323  14.910 -0.2890  0.5337  0.0060
12430W        W29278  14.796  12.117  14.808 -0.1701 -0.0018 -0.1603
12431W        W29279   6.007  15.516   6.154  0.0896 -0.0222 -0.0558
12432W        W29280  17.357   8.532  13.438  0.1213 -0.1648 -0.1042
12433W        W29281  14.474   8.808   1.216 -0.1764 -0.4936  0.0631
12434W        W29282   3.619  14.897  12.625  0.0752 -0.0755 -0.1657
12435W        W29283   1.929   8.171   3.847  0.0360  0.0670  0.2776
12436W        W29284  13.512   5.823  15.222 -0.0854 -0.0467  0.0926
12437W        W29285   9.452   1.349  14.046  0.0683 -0.1154 -0.2053
12438W        W29286   8.672  11.159   5.166  0.1841 -0.2997 -0.1874
12439W        W29287   1.669   1.961  13.289 -0.0324 -0.2309  0.0092
12440W        W29288   7.901   5.163   2.283 -0.0699 -0.0909 -0.2367
12441W        W29289   6.612   5.932   3.472  0.0358  0.0388 -0.2447
12442W        W29290   4.862   7.321   3.788 -0.0193  0.1336 -0.0588
12443W        W29291   9.950  12.686  11.464  0.1077  0.0926 -0.2437
12444W        W29292  14.770   6.610  14.481 -0.2086  0.2321 -0.0200
12445W        W29293  15.276  10.409   2.869  0.1060 -0.3263 -0.1782
12446W        W29294   3.354  10.224   1.544  0.0912  0.1189  0.0292
12447W        W29295  16.127  17.995   5.413 -0.0329  0.1577  0.1579
12448W        W29296  17.474   4.964   2.624  0.0754  0.1065 -0.0311
12449W        W29297   6.652   3.039  12.986 -0.0321  0.1299  0.1110
12450W        W29298   9.475  14.364  12.695 -0.1647 -0.1839  0.1009
12451W        W29299  15.356  10.363   0.746 -0.0913  0.0101  0.0507
12452W        W29300  10.857  13.919  13.050  0.3894 -0.0347  0.1326
12453W        W29301  10.921  10.895   3.777  0.2062 -0.2229 -0.1565
12454W        W29302   7.832   4.420  13.563 -0.2065  0.0000  0.1049
12455W        W29303   3.118  11.931   1.860  0.2336  0.1114 -0.0247
12456W        W29304  16.784   6.678   2.799 -0.0442  0.2297  0.0227
12457W        W29305  10.411  11.176   1.176  0.1465 -0.0610  0.1551
12458W        W29306  11.935   3.161   2.536  0.2096 -0.2118 -0.1218
12459W        W29307   1.458  17.215  14.588  0.0327  0.2702 -0.1748
12460W        W29308   3.126   0.772  14.962  0.1720 -0.1065 -0.2567
12461W        W29309  16.323   8.357   4.430 -0.1908 -0.4682 -0.0139
12462W        W29310   7.025  13.056  12.716 -0.1372  0.0627 -0.0507
12463W        W29311   0.989   1.877  14.927  0.1009  0.1503  0.3362
12464W        W29312   6.981   3.461  14.761  0.1114  0.1526 -0.4328
12465W        W29313   7.776  16.359   1.138  0.0246 -0.1427 -0.1546
12466W        W29314   5.493  16.922   1.814 -0.0770  0.0604 -0.1696
12467W        W29315   1.822   4.400   1.206 -0.1179  0.0767 -0.1859
12468W        W29316   4.434   6.358   3.070  0.2767  0.2553 -0.0852
12469W        W29317   3.615  15.127  13.562  0.0871  0.4088  0.4848
12470W        W29318   9.321   7.398  10.732  0.0321  0.0535 -0.3788
12471W        W29319   6.873   5.020   0.629  0.0181  0.1391  0.4110
12472W        W29320  11.583   7.040   2.743 -0.0499 -0.1124 -0.0645
12473W        W29321  11.728  13.985  15.110 -0.0332 -0.1568 -0.0666
12474W        W29322   8.909  10.349   4.443  0.0171 -0.0336  0.2602
12475W        W29323   4.804   5.108   5.096 -0.0701 -0.0248 -0.0306
12476W        W29324   6.550   1.933  11.392 -0.2130  0.3168 -0.2090
12477W        W29325  10.457  14.745  12.753 -0.0778  0.1263 -0.1382
12478W        W29326  13.487  11.941   0.858 -0.2505  0.3497 -0.2413
12479W        W29327  12.372  12.858   2.243  0.0465 -0.0339  0.2226
12480W        W29328  11.085  15.929   1.135  0.3750  0.0263  0.1289
12481W        W29329  13.140  10.342   3.994  0.1442 -0.2183  0.3416
12482W        W29330   4.029   9.594   3.393 -0.0149  0.1775  0.0757
12483W        W29331   9.566  15.828   1.820  0.2677 -0.0371  0.1252
12484W        W29332  16.384   9.954  11.959  0.1719  0.5029  0.1776
12485W        W29333  15.934   1.975   2.041 -0.0189 -0.0063 -0.2416
12486W        W29334   6.915   9.425  14.185  0.1931 -0.2151  0.1133
12487W        W29335   3.622  16.494   2.811 -0.2507  0.2807  0.1602
12488W        W29336  17.726   3.684  14.639 -0.0920  0.0091 -0.0828
12489W        W29337  16.133  13.778   4.612 -0.0239 -0.0531  0.2936
12490W        W29338  15.964   4.501   2.661  0.2635  0.0286  0.2583
12491W        W29339  13.108   2.939   1.094 -0.3218  0.2512  0.2609
12492W        W29340  15.408   9.977  12.393 -0.0031 -0.0810 -0.1610
12493W        W29341  11.616  10.085   3.570  0.3143  0.0818 -0.2806
12494W        W29342  13.008   1.928  16.159  0.0191 -0.3344  0.0284
12495W        W29343   3.491   3.658  13.954  0.0218  0.2683  0.0310
12496W        W29344   4.317  12.455   2.953 -0.2618  0.0215  0.0124
12497W        W29345   0.050   7.364  14.492 -0.1674 -0.0156 -0.1966
12498W        W29346   1.940  10.566   0.284 -0.0691 -0.1123  0.0567
12499W        W29347  17.738   9.708   4.355  0.1224 -0.0873 -0.0198
12500W        W29348   5.206  12.765   5.050  0.2230 -0.0971  0.2441
12501W        W29349  10.496   5.106  12.350  0.0897  0.2268  0.1618
12502W        W29350   8.627   7.759   5.083  0.2994 -0.2266 -0.0462
12503W        W29351  10.737  10.418   3.787  0.1604 -0.2098  0.4370
12504W        W29352   3.802  15.317  13.998  0.1064 -0.1467  0.0873
12505W        W29353  14.897  17.609  15.839  0.2792 -0.1726  0.0011
12506W        W29354  16.794   6.395  13.337 -0.2405 -0.4330 -0.0758
12507W        W29355  10.217   9.913  10.924  0.0004 -0.1801  0.1086
12508W        W29356  16.856   4.816   3.644  0.1422  0.2272  0.2494
12509W        W29357   3.132  14.841   0.034  0.1595  0.2457  0.0538
12510W        W29358  10.740  13.170   2.134 -0.0674  0.0758 -0.2823
12511W        W29359   6.690  12.662   2.285 -0.1466  0.2545 -0.0357
12512W        W29360   6.798   5.768  12.400  0.2647  0.3108 -0.0974
12513W        W29361  10.390  17.107  12.089 -0.0318 -0.0067 -0.0658
12514W        W29362   4.035   8.761   1.381  0.1104  0.0591  0.3523
12515W        W29363   8.501  12.489   1.325 -0.1514  0.1233  0.0133
12516W        W29364   4.356   2.900  10.007  0.2094 -0.0874 -0.0936
12517W        W29365   8.891   7.530   4.070 -0.1966 -0.1171  0.1849
12518W        W29366   5.339   5.805  15.984 -0.0715 -0.0335  0.0716
12519W        W29367  15.974   9.486   9.964 -0.0728 -0.2224 -0.2916
12520W        W29368  14.846   7.054   2.036  0.2231 -0.0697 -0.0841
12521W        W29369  10.089  10.842   1.057  0.1387 -0.1553 -0.3421
12522W        W29370  13.704  15.572  14.854 -0.2050 -0.1306  0.0228
12523W        W29371   9.761  11.529  10.578  0.0158 -0.1038 -0.3277
12524W        W29372   0.942  15.773  13.053  0.0742  0.1308  0.1830
12525W        W29373   7.749   3.481   4.252  0.1888  0.0657 -0.0203
12526W        W29374   9.320  12.019  15.558 -0.0485 -0.1218  0.1512
12527W        W29375   0.833   8.693  15.518  0.1274  0.1036 -0.0747
12528W        W29376   7.473   3.669  15.230  0.1487  0.1237  0.1434
12529W        W29377  13.930  15.944  13.322 -0.0399  0.2341 -0.3118
12530W        W29378  10.768   9.777   5.173  0.0798  0.0655  0.2581
12531W        W29379   7.033  10.188  10.918 -0.0274 -0.0473 -0.3269
12532W        W29380   3.348   9.860  15.667 -0.0594  0.3114 -0.1570
12533W        W29381  13.124   7.783   4.524 -0.0382  0.0015  0.1367
12534W        W29382   7.170  17.973   0.455  0.0457 -0.0432  0.0584
12535W        W29383   5.548   5.824  10.586  0.1597  0.0074  0.0658
12536W        W29384   5.129   5.618  15.582  0.0760  0.1615 -0.0206
12537W        W29385  12.187  16.599   4.698  0.0780 -0.0438 -0.0399
12538W        W29386   6.548  16.711   0.180  0.0585  0.0211 -0.1542
12539W        W29387  12.960  15.677   4.273 -0.0002 -0.0237 -0.0482
12540W        W29388   7.719   1.147   0.685  0.0254  0.3307  0.0763
12541W        W29389  10.660  10.086   4.720 -0.1015  0.0019  0.0537
12542W        W29390   0.024  17.223   4.816  0.0453  0.2127  0.1479
12543W        W29391   6.827   1.394   0.362  0.1847  0.0332 -0.0363
12544W        W29392   1.602   6.496   0.249  0.1190 -0.1191 -0.1270
12545W        W29393  17.210  17.881   0.229 -0.2224  0.1249 -0.0153
12546W        W29394   4.654   4.763  15.005  0.2237 -0.1551  0.1606
12547W        W29395  10.790  17.281  11.809 -0.1427 -0.1141  0.1335
12548W        W29396  14.393  14.107  13.626  0.1748  0.1442 -0.0973
12549W        W29397   3.603   7.922   0.215 -0.1788  0.0885  0.0044
12550W        W29398  15.230   8.185  15.698  0.0720  0.2004  0.1068
12551W        W29399   1.759   9.031   1.236 -0.0110  0.0907 -0.1489
12552W        W29400  17.643  16.178  11.443  0.0472  0.0506 -0.0024
12553W        W29401  14.637   4.634   3.604 -0.0883 -0.2912  0.3307
12554W        W29402  10.947   2.377  14.249 -0.1120 -0.2366  0.1775
12555W        W29403   2.497   0.653   2.142 -0.1110 -0.3122 -0.0412
12556W        W29404   9.394   8.872   5.634  0.1667 -0.0615  0.4011
12557W        W29405   3.729   7.497  14.486  0.0063 -0.2730 -0.0539
12558W        W29406   8.123  14.501   3.617  0.0877 -0.6001 -0.2487
12559W        W29407  10.663  16.162  12.122 -0.0756  0.0267 -0.5080
12560W        W29408   4.482   1.180  16.182 -0.5642 -0.0443  0.2273
12561W        W29409   5.377  15.161  15.637  0.1122  0.0653  0.2736
12562W        W29410  17.977   1.671   1.328 -0.2025 -0.0999  0.1338
12563W        W29411  10.276  11.875  13.462  0.0930  0.1488 -0.1682
12564W        W29412   1.067   7.359   1.675  0.4313 -0.3356  0.4348
12565W        W29413   7.545  15.912   1.123  0.0634  0.0664  0.0774
12566W        W29414   5.903  17.709   5.761 -0.1228 -0.0102  0.2489
12567W        W29415   3.133   6.813  14.027  0.1796  0.0843  0.2438
12568W        W29416  11.414   1.691   1.618  0.1120 -0.0726 -0.0080
12569W        W29417   4.653   5.446   4.199  0.0346  0.2812 -0.1145
12570W        W29418  11.933  12.870   0.525  0.4826  0.1892  0.3112
12571W        W29419  13.455   9.515  14.507 -0.0761  0.0747 -0.2159
12572W        W29420  13.249  11.290   1.092  0.1024  0.0745 -0.2063
12573W        W29421  11.958   1.619   4.971 -0.1970  0.1414  0.1257
12574W        W29422  14.800   5.280   3.200  0.0945  0.1163 -0.2830
12575W        W29423   8.687  12.137  11.088  0.0031  0.0545  0.1461
12576W        W29424  13.504   0.927   2.187  0.2249 -0.0046  0.1889
12577W        W29425   1.590   0.595  11.307  0.2706 -0.0294  0.2584
12578W        W29426   6.258  10.044   3.618 -0.1750 -0.1006 -0.1418
12579W        W29427  14.812  11.209   0.711 -0.3510  0.1296  0.0984
12580W        W29428   8.833  10.732   4.091 -0.0368  0.0267  0.1641
12581W        W29429  14.372  17.787  13.053  0.0762  0.1590 -0.2754
12582W        W29430   4.058  10.521   4.317 -0.1372 -0.0964  0.0625
12583W        W29431   2.837   9.084   1.277 -0.0620 -0.1176 -0.0971
12584W        W29432   9.829  13.486   3.843 -0.2378 -0.2733  0.1694
12585W        W29433  15.747  11.085  14.123  0.1349  0.0074 -0.0833
12586W        W29434   1.789  15.923   0.897 -0.0516 -0.0981 -0.0605
12587W        W29435  11.427   6.468   3.568 -0.2073 -0.5874  0.0914
12588W        W29436  16.557  17.984  15.834  0.0559  0.1191  0.1866
12589W        W29437   5.058  11.004   2.120 -0.0770  0.2612 -0.1193
12590W        W29438   3.074   7.925  14.843 -0.1644 -0.0290 -0.0668
12591W        W29439  15.696  16.148   0.632 -0.0343 -0.5035 -0.0401
12592W        W29440   7.424   0.140   4.608  0.1837 -0.4055 -0.2086
12593W        W29441  14.417  17.138  15.419  0.0180  0.0447  0.1500
12594W        W29442  10.812  16.519   5.379 -0.1186  0.2194  0.0494
12595W        W29443  13.590   6.949  11.449 -0.1124 -0.0436  0.3243
12596W        W29444  16.424   8.975   0.436 -0.1214 -0.0810 -0.2516
12597W        W29445   0.537  15.951   0.990 -0.2607 -0.1719 -0.3700
12598W        W29446  10.228  17.430   3.592  0.1469 -0.0951 -0.0599
12599W        W29447   2.339   6.580   3.139 -0.0063 -0.1810  0.0162
12600W        W29448  17.242  13.718  10.709  0.1310  0.1556  0.0407
12601W        W29449  15.432   2.712   1.243  0.0286  0.2119  0.2396
12602W        W29450   4.738  16.151   4.197 -0.0156  0.0071  0.0371
12603W        W29451   8.052   7.192   3.705 -0.1496  0.3865  0.3318
12604W        W29452   0.354   0.236  13.486  0.0760 -0.3264 -0.0911
12605W        W29453   3.010   9.641  11.668  0.0002  0.0291 -0.0669
12606W        W29454  12.368   5.700  13.354 -0.0422  0.0069 -0.2330
12607W        W29455   1.540   8.110  15.819  0.0560  0.1079  0.1095
12608W        W29456  12.820   1.317  11.811  0.1550  0.0953  0.0168
12609W        W29457   7.973   5.601   2.023  0.1797  0.0578  0.0322
12610W        W29458  13.701   3.373  15.393  0.2311  0.2327 -0.0950
12611W        W29459   7.080  12.408  12.078  0.0429  0.0433 -0.0932
12612W        W29460  15.906  12.825   1.068  0.2175 -0.3384 -0.0247
12613W        W29461   2.796  15.700  13.168 -0.1228 -0.0286 -0.0776
12614W        W29462  15.646  13.874  13.847 -0.3702 -0.1230  0.2069
12615W        W29463   1.608   1.444  14.742 -0.2499 -0.0701  0.5280
12616W        W29464  11.939   2.793   0.723  0.1726  0.0645 -0.0409
12617W        W29465  16.689  12.285   1.282 -0.1721  0.1009 -0.2220
12618W        W29466  10.911  13.985  14.305 -0.0908 -0.0681 -0.1612
12619W        W29467  16.867  17.323   4.219  0.1173  0.1232 -0.1863
12620W        W29468  13.761  12.202  12.826  0.1225 -0.0382  0.0226
12621W        W29469   9.945   3.125  10.975 -0.1177  0.2600 -0.1759
12622W        W29470  10.731   7.872   4.549 -0.0722 -0.1504 -0.2117
12623W        W29471   8.306   9.773  12.336  0.1139  0.0901  0.1515
12624W        W29472  16.589   2.442  11.193 -0.1303 -0.1011 -0.1608
12625W        W29473  12.149   3.877  11.454  0.0474 -0.1441 -0.2840
12626W        W29474  14.191  16.632  12.028 -0.0176 -0.1085 -0.1519
12627W        W29475  16.766   9.635   3.209 -0.0206  0.1471  0.2802
12628W        W29476  10.273  14.078   4.652  0.1325 -0.2288  0.3210
12629W        W29477   3.547   8.698   3.723 -0.0564 -0.1228  0.1439
12630W        W29478  17.352  16.992  11.911 -0.4585  0.1007 -0.0248
12631W        W29479   7.805   7.058  13.692 -0.1216  0.1257 -0.0595
12632W        W29480   7.431   8.341  11.391 -0.0381 -0.0222 -0.1420
12633W        W29481   1.347   5.335  15.922 -0.0050  0.1936  0.1019
12634W        W29482   8.943  13.473  14.424  0.4174  0.3305 -0.1370
12635W        W29483   2.765   4.747   3.764  0.0789 -0.0909  0.2254
12636W        W29484  17.344   0.703   4.332 -0.1471 -0.2165  0.3352
12637W        W29485   9.821   4.946   0.411  0.2005 -0.0609 -0.0029
12638W        W29486   5.940  12.259   5.474 -0.0093 -0.1101 -0.1095
12639W        W29487  14.162   9.607   3.631  0.0315 -0.1252 -0.1602
12640W        W29488  15.513   7.736  14.709 -0.2244 -0.0392 -0.0725
12641W        W29489   7.351  17.142  14.938  0.3853 -0.1664  0.0539
12642W        W29490  10.087  15.708  11.088  0.2334  0.4123 -0.1625
12643W        W29491  14.814  13.675   3.498 -0.2623  0.1288  0.1147
12644W        W29492   5.773   0.119  12.757  0.1723 -0.2888 -0.1512
12645W        W29493   4.615   5.170  12.740  0.2107 -0.0925  0.5531
12646W        W29494   1.386  15.913  13.099  0.2290  0.1326 -0.0879
12647W        W29495   1.176  13.214   1.915 -0.1998  0.0958  0.4975
12648W        W29496   6.044  16.995   6.482 -0.0586 -0.2173 -0.1637
12649W        W29497  12.365   8.928  13.847 -0.0249  0.1165 -0.0949
12650W        W29498   6.784   5.958   2.420  0.0750 -0.2846  0.3413
12651W        W29499   7.672   9.954   1.469  0.0415  0.2828  0.1314
12652W        W29500   8.951  15.555   5.998  0.1775 -0.3361 -0.0041
12653W        W29501  10.966  12.873  14.050  0.1588  0.1827 -0.0177
12654W        W29502   0.363   6.984   1.556 -0.1585 -0.0180  0.0238
12655W        W29503   4.490   9.194  14.597 -0.0593  0.2647 -0.0223
12656W        W29504   5.696   3.682   5.157 -0.1175 -0.2350  0.1729
12657W        W29505   5.915  14.760   3.660 -0.1526  0.0550  0.1822
12658W        W29506   1.891   9.209   3.382  0.0127 -0.1115  0.1220
12659W        W29507   5.561   9.657   5.542 -0.1366 -0.1049 -0.2297
12660W        W29508  16.727   7.528  14.174  0.0107  0.2744  0.1834
12661W        W29509  14.783   2.370   1.712 -0.1031 -0.2200  0.2834
12662W        W29510   4.578  15.354  11.426 -0.2409  0.0375  0.1716
12663W        W29511  13.304   5.117   2.037  0.0652  0.0967  0.3252
12664W        W29512  14.487   7.285   2.268  0.0419 -0.2224  0.1586
12665W        W29513   8.973  15.753   0.161  0.1957 -0.1534  0.1849
12666W        W29514   9.529  13.512  15.295 -0.0237 -0.3657  0.1531
12667W        W29515  16.914   9.035   4.614  0.2252 -0.2622 -0.2615
12668W        W29516   5.314   0.742  11.452 -0.0019 -0.1976  0.0562
12669W        W29517   0.098  15.615   2.098  0.0800  0.3948  0.1655
12670W        W29518  13.058  10.887   2.338  0.1368 -0.3356  0.3268
12671W        W29519   1.360   0.959  12.468  0.2801 -0.1706 -0.1417
12672W        W29520  15.322   5.503  12.183 -0.0780  0.1054 -0.0273
12673W        W29521  16.056   6.989   2.711  0.0925 -0.3621 -0.1238
12674W        W29522   4.883  11.315   0.908 -0.0916 -0.0286  0.1937
12675W        W29523  16.181  14.353   3.900 -0.4411 -0.1690 -0.0440
12676W        W29524   6.127  11.010  11.631  0.3755  0.0720 -0.0002
12677W        W29525   4.962   2.656   0.910  0.1753 -0.0305 -0.0382
12678W        W29526   2.931  13.479  13.751 -0.0437 -0.0864 -0.0741
12679W        W29527  11.991  12.744   3.924  0.0956 -0.2242 -0.0548
12680W        W29528   0.361   9.273  14.783 -0.0000  0.1391  0.1369
12681W        W29529   7.368  13.615   1.827 -0.1079  0.1789  0.1387
12682W        W29530   0.146   5.464  12.955 -0.0508 -0.2098  0.2446
12683W        W29531   3.227   5.767  11.676  0.0656 -0.1029  0.0395
12684W        W29532   9.538   3.352  10.886 -0.0974  0.0864 -0.0707
12685W        W29533  11.439  13.276   5.886  0.0875 -0.4597 -0.1747
12686W        W29534  12.314   6.001  12.953 -0.1101 -0.1240 -0.1458
12687W        W29535   8.260   3.072   1.166 -0.1097 -0.0049  0.0406
12688W        W29536   7.133   1.096   2.811  0.0971 -0.1583  0.2122
12689W        W29537   8.687   3.426  13.749 -0.1097 -0.2055 -0.0603
12690W        W29538   2.348   8.081  15.702 -0.0864 -0.0580 -0.4485
12691W        W29539  18.009   5.885  15.939  0.3273 -0.0705 -0.1882
12692W        W29540   0.115   6.973   4.557  0.1153  0.1094 -0.1705
12693W        W29541  13.947  14.878   1.690  0.1808 -0.3760  0.0993
12694W        W29542   6.488   2.811  11.652  0.3001  0.1183  0.3723
12695W        W29543   4.752  11.884   4.788  0.3493  0.0035 -0.0966
12696W        W29544   7.580  14.716  12.973 -0.2483 -0.1083  0.0291
12697W        W29545   6.228  11.678   3.996  0.0824 -0.1130  0.0273
12698W        W29546   5.205   2.700  13.009  0.2055 -0.1176 -0.1020
12699W        W29547  17.929   4.580   0.037  0.1494 -0.2928  0.1140
12700W        W29548   5.858   9.809   0.170 -0.2670 -0.1323 -0.2727
12701W        W29549   1.519   2.124  13.716 -0.0616 -0.2892 -0.1869
12702W        W29550  16.974   2.103  12.989  0.1014 -0.0789 -0.2915
12703W        W29551  17.424   1.136   1.853  0.2472 -0.1116  0.1229
12704W        W29552  13.252   5.888  12.987 -0.1654 -0.2725  0.1563
12705W        W29553   8.198  13.925  15.682  0.0186 -0.2244  0.2562
12706W        W29554  12.792   4.463  14.781 -0.0171  0.2541 -0.2044
12707W        W29555   9.791  11.368  11.068  0.0061  0.0800  0.2593
12708W        W29556  14.331  10.045  15.408 -0.1369 -0.0660  0.0387
12709W        W29557  10.719   4.818  10.983 -0.2589  0.1215  0.1151
12710W        W29558  11.174   7.061  15.060 -0.0770 -0.1720 -0.1703
12711W        W29559   2.859  14.023   4.974  0.0450  0.1996 -0.1579
12712W        W29560  16.407   0.599   2.223  0.1576  0.2146 -0.1671
12713W        W29561  11.463  14.271   5.950 -0.0704 -0.3711 -0.0053
12714W        W29562  13.162   7.448  13.095  0.0219  0.2492  0.0688
12715W        W29563  17.095   5.784   2.835  0.1081  0.0141 -0.3668
12716W        W29564  10.996  12.908   2.508 -0.2195  0.3616 -0.0754
12717W        W29565  10.887  12.530   0.638  0.2070  0.0413  0.2733
12718W        W29566   9.901   6.084   1.609 -0.2337  0.3254 -0.3984
12719W        W29567  11.961   0.989  15.452  0.0499  0.1221  0.2467
12720W        W29568   7.587   7.546  11.428  0.0713 -0.1316  0.2596
12721W        W29569  12.220   0.605  10.686  0.3806  0.1295 -0.1806
12722W        W29570  11.266   6.373   4.691 -0.5589 -0.1261  0.0724
12723W        W29571   8.585  10.583   0.633 -0.0564 -0.3126 -0.1043
12724W        W29572   0.313   9.750  15.926 -0.2023 -0.0840 -0.1708
12725W        W29573   2.695  12.227   1.450  0.2430 -0.0343 -0.3117
12726W        W29574   9.384   1.136  12.072 -0.1766 -0.1537  0.1800
12727W        W29575   5.123   4.570   1.722  0.0385 -0.1390 -0.2684
12728W        W29576   0.820   7.275   3.374 -0.0972 -0.0747  0.1273
12729W        W29577   4.950   8.706  13.748  0.1312  0.0830 -0.4003
12730W        W29578   7.898   8.545   0.751 -0.1598  0.2211 -0.0928
12731W        W29579  12.598  12.160   2.934  0.0178  0.1198  0.2682
12732W        W29580   0.629  14.419  14.074 -0.1374 -0.0313 -0.1069
12733W        W29581   8.192   0.777  15.010 -0.3081 -0.2192 -0.1030
12734W        W29582  13.230   0.944   0.263 -0.0051 -0.1619 -0.1355
12735W        W29583   0.567   1.784  13.472  0.6852 -0.2248 -0.0333
12736W        W29584   4.897  16.710   4.965  0.1107 -0.1281  0.0452
12737W        W29585   0.959  16.057   2.053 -0.4154  0.0469 -0.0002
12738W        W29586   1.689   0.142   3.592  0.0722 -0.3333 -0.1238
12739W        W29587  16.605  10.017  11.524 -0.3273  0.0613  0.1646
12740W        W29588  10.381  13.306   0.980 -0.0536 -0.0331  0.1371
12741W        W29589  11.920   4.928  12.410  0.3334 -0.1618  0.1878
12742W        W29590  17.051  10.960   1.523  0.2271 -0.2815 -0.1247
12743W        W29591   8.665   6.239   2.370 -0.1704 -0.1360  0.3704
12744W        W29592   6.803   7.541   0.862 -0.3556 -0.0364 -0.1647
12745W        W29593   0.173  10.266  15.883  0.1391 -0.0649  0.3213
12746W        W29594   8.926  17.800   0.916 -0.0320  0.0361 -0.0760
12747W        W29595  13.259  12.011  14.395  0.2174 -0.1575  0.1122
12748W        W29596   4.073   4.986   0.091  0.3340  0.0468  0.0862
12749W        W29597   6.731  10.544  13.910 -0.1425  0.0842  0.1957
12750W        W29598   1.710  12.304   1.204  0.0552  0.0782  0.2010
12751W        W29599   4.623   2.991  16.212  0.0375 -0.1523 -0.0956
12752W        W29600  10.711  13.332   4.095  0.0715 -0.0392 -0.4189
12753W        W29601   4.376   2.353   0.263  0.1449 -0.2944  0.1667
12754W        W29602   8.306  11.464   0.148  0.2669  0.1309  0.0275
12755W        W29603  13.232   8.510   0.319  0.2141 -0.2561  0.0302
12756W        W29604   0.275   8.219  11.735  0.0881 -0.1109  0.1733
12757W        W29605   2.783  15.913  12.680 -0.0677  0.3639  0.0961
12758W        W29606   2.320   8.349  13.188 -0.0805  0.1987 -0.0503
12759W        W29607   6.299  13.078   1.754  0.2402 -0.0277 -0.0301
12760W        W29608  16.800   5.342   3.103  0.2387  0.1107  0.0668
12761W        W29609   1.694   1.321  15.225  0.2324 -0.2919  0.1941
12762W        W29610   8.706  11.619   1.276 -0.2743  0.0886 -0.1251
12763W        W29611   4.749   9.322   1.660 -0.0666 -0.1221  0.2376
12764W        W29612  16.582  15.807   2.198  0.0537 -0.0681 -0.1992
12765W        W29613   1.902   4.793  13.917 -0.0023  0.2397  0.0374
12766W        W29614   7.598  10.436  15.000  0.0839 -0.0457 -0.2611
12767W        W29615  10.793   4.914   2.126  0.1245 -0.0190 -0.1442
12768W        W29616  17.583   7.583  12.879 -0.1077 -0.0038  0.0690
12769W        W29617   6.578  16.133  14.029  0.1797 -0.0629 -0.0547
12770W        W29618   3.070  17.987  14.501 -0.0265  0.1461 -0.2132
12771W        W29619  13.173  14.615  13.088  0.0031 -0.1692  0.1539
12772W        W29620  10.026   9.676   3.077  0.0300 -0.2438 -0.1763
12773W        W29621   7.299   0.459   5.040 -0.0026 -0.3157  0.0487
12774W        W29622   7.329  11.655   1.200 -0.2759  0.1786 -0.4184
12775W        W29623  13.434  12.532   3.141  0.2627  0.2105 -0.2120
12776W        W29624   2.991   7.292  15.611 -0.1193  0.1718 -0.0732
12777W        W29625  12.387   5.453  11.257 -0.4595 -0.2334 -0.2849
12778W        W29626  16.149   8.523  16.130 -0.1423  0.1388  0.1871
12779W        W29627   3.036   8.141   4.516  0.0073 -0.1343 -0.0464
12780W        W29628   4.512  11.611   2.218  0.0028 -0.0873  0.1268
12781W        W29629  11.699  15.022   4.034 -0.1706  0.1115  0.2585
12782W        W29630   6.876   2.280  11.490 -0.1595 -0.1787 -0.2621
12783W        W29631   1.451   5.551   0.171  0.0325 -0.1220  0.1446
12784W        W29632  15.505   4.845  13.550  0.2399  0.1537  0.2873
12785W        W29633  11.318   7.887  13.426  0.2498 -0.2790 -0.1843
12786W        W29634  12.479   2.244   2.493  0.1818 -0.1795  0.2251
12787W        W29635  11.612   7.944   0.541  0.2657 -0.2318 -0.1919
12788W        W29636   8.481  10.206  12.108  0.2938 -0.1781 -0.0227
12789W        W29637   6.980   0.676   3.124  0.0252  0.1750  0.0549
12790W        W29638   7.772  13.238   4.121  0.0207  0.1303 -0.0878
12791W        W29639   7.160   9.788   4.105 -0.1119 -0.0392 -0.4062
12792W        W29640   1.139   7.478  15.404  0.1878  0.4829  0.0259
12793W        W29641   4.443   8.543   2.120  0.2875 -0.2189  0.0680
12794W        W29642   4.628   6.135   4.590  0.0339  0.0162  0.0507
12795W        W29643   2.819  14.288  14.785 -0.2508  0.2717  0.1158
12796W        W29644   3.012   6.103   4.914  0.1265  0.2768  0.0236
12797W        W29645   2.016  14.087   0.708  0.1061  0.0506  0.2425
12798W        W29646  17.397   6.031  12.134  0.0620  0.0970 -0.1304
12799W        W29647  16.427   9.987  14.125  0.2538  0.0660 -0.0329
12800W        W29648   0.709  10.584  16.096  0.2086  0.2112  0.0375
12801W        W29649  12.332   1.318   2.441  0.3622 -0.3928  0.2443
12802W        W29650  14.538   2.358  12.931 -0.1227 -0.3053 -0.5342
12803W        W29651   5.640  10.765   3.476 -0.0731 -0.0335  0.3492
12804W        W29652   6.423  13.024   2.624 -0.0203  0.2653 -0.2324
12805W        W29653   5.049  13.610   0.161 -0.0550  0.1062  0.3833
12806W        W29654   7.097   9.863   5.424 -0.0704  0.0099  0.1289
12807W        W29655   8.835   6.499  13.110  0.0625 -0.3695  0.2652
12808W        W29656   7.928  13.792  13.174 -0.0206 -0.2190  0.5239
12809W        W29657   1.865  15.441   1.067 -0.3525  0.2804  0.3729
12810W        W29658   9.622  16.021  10.477 -0.0855 -0.5080 -0.3684
12811W        W29659  13.819   3.377  13.033 -0.2503  0.3069 -0.1837
12812W        W29660  12.199   2.289   0.335 -0.1796  0.0130 -0.0833
12813W        W29661  13.839  13.835   0.308 -0.1507 -0.1145  0.0245
12814W        W29662   2.961  15.321   4.865 -0.0331  0.1186  0.1277
12815W        W29663   5.946   7.474   4.052  0.2002  0.1536 -0.0009
12816W        W29664  12.852  11.904  16.209 -0.1591 -0.0336  0.0987
12817W        W29665  11.399  10.879   2.838  0.0727  0.4748  0.3543
12818W        W29666  13.025   0.286   0.222  0.0568  0.1051  0.1937
12819W        W29667  13.317   5.246   5.362 -0.1133 -0.1628 -0.0000
12820W        W29668  10.496   4.666   2.468  0.1719 -0.6220  0.0494
12821W        W29669  16.668   2.801  14.082  0.0501 -0.0489 -0.0257
12822W        W29670   0.067   2.907   0.447 -0.0219  0.0057 -0.3523
12823W        W29671   0.970  15.103   4.859 -0.0511 -0.1307 -0.1552
12824W        W29672  14.388  17.939   3.033 -0.1005  0.0775  0.0185
12825W        W29673   2.898   4.910  15.689  0.4172 -0.1855  0.1840
12826W        W29674  16.020  17.040   3.577 -0.4144  0.3407  0.0889
12827W        W29675  11.395   4.104  13.446 -0.0749  0.0552 -0.0050
12828W        W29676  11.472   1.081  16.041 -0.0678 -0.1960  0.0884
12829W        W29677  15.342   9.098  15.884  0.1818  0.1273  0.2420
12830W        W29678   6.614   4.755  15.739 -0.1801 -0.1068 -0.1952
12831W        W29679  13.852   9.154  13.697  0.3230  0.1465 -0.2451
12832W        W29680   6.971  12.008   1.054 -0.0550  0.0635 -0.2415
12833W        W29681  16.952  11.334  14.055  0.2450 -0.0904  0.0471
12834W        W29682   3.572   8.273  12.712  0.0084  0.2036 -0.2545
12835W        W29683   0.173   0.316  12.311 -0.1565 -0.1886  0.2482
12836W        W29684  14.630   1.449   3.579  0.2497 -0.1722 -0.1716
12837W        W29685   0.592   8.212   4.591  0.0239  0.0011 -0.1211
12838W        W29686   8.029   4.249   0.876 -0.2083 -0.0014  0.0257
12839W        W29687   2.408  14.608   5.379 -0.0059 -0.0438 -0.0406
12840W        W29688  13.085   5.434  11.419 -0.4147  0.0223  0.1952
12841W        W29689   9.620   5.974   2.216  0.0893 -0.3130 -0.1766
12842W        W29690  17.489   1.296  12.984 -0.1180  0.2798 -0.1488
12843W        W29691  16.617   8.936  14.482 -0.1107  0.1489  0.2100
12844W        W29692   9.410  16.967  11.466  0.0832  0.0621 -0.1127
12845W        W29693  10.494   2.224   2.496  0.0042 -0.1045 -0.1591
12846W        W29694   3.844  15.575   1.763  0.2395  0.3317  0.1152
12847W        W29695  10.332   3.364   0.782  0.1570  0.2670  0.2674
12848W        W29696  11.383   7.243   2.190  0.3711  0.1957  0.1253
12849W        W29697  13.945   4.016  11.511 -0.0391 -0.0876  0.0638
12850W        W29698  14.481  11.964  12.386 -0.0060 -0.2660  0.0211
12851W        W29699  16.020  16.207  14.000  0.0169  0.1586 -0.0042
12852W        W29700  15.065  12.690   2.797  0.1924 -0.1360 -0.0019
12853W        W29701  15.350   8.211   0.785  0.3361  0.2282 -0.0549
12854W        W29702  16.677  14.408  13.646  0.0410  0.1491 -0.2072
12855W        W29703   4.955  12.900  15.523  0.0191  0.0234 -0.1316
12856W        W29704  10.378  16.004  14.525 -0.0334  0.2405 -0.1110
12857W        W29705   8.744  15.577   5.426  0.2152 -0.0462 -0.2203
12858W        W29706   9.975  17.888   5.391  0.1369  0.1639 -0.0559
12859W        W29707  13.455  15.711  13.954 -0.2437 -0.2732 -0.1113
12860W        W29708   3.669  10.954  14.467  0.0192  0.1004  0.0599
12861W        W29709   5.194   7.786  14.735  0.0986 -0.5271 -0.3038
12862W        W29710  11.023   7.201   4.064 -0.2651  0.0533 -0.1389
12863W        W29711   2.251   7.754  12.753 -0.2385  0.2610  0.0673
12864W        W29712  14.812  12.365  11.956  0.0367 -0.1894  0.2170
12865W        W29713  11.116  13.713   0.279  0.0900 -0.0314  0.1850
12866W        W29714  11.253   7.699   4.180  0.2443 -0.2036 -0.0711
12867W        W29715   8.169   7.141  14.890  0.0980 -0.3234  0.1694
12868W        W29716  12.291  14.584  11.171  0.1701 -0.1938  0.0933
12869W        W29717  12.825  11.114  15.665 -0.0510  0.0336  0.2303
12870W        W29718   1.497  11.358   1.405 -0.4025  0.2913 -0.1833
12871W        W29719  15.238  14.915   3.821 -0.1915 -0.1052 -0.0919
12872W        W29720  11.477   2.997  11.640  0.1907 -0.1172 -0.1255
12873W        W29721   5.640   1.735  11.570 -0.1428 -0.2746 -0.1337
12874W        W29722   8.091  17.224  12.247  0.1963 -0.1517  0.1842
12875W        W29723   7.952   8.202   0.398 -0.2214 -0.1407  0.0453
12876W        W29724  11.935   5.881   3.457 -0.3797 -0.0679  0.3130
12877W        W29725  12.805   4.294   2.131  0.0440  0.0090 -0.0770
12878W        W29726  10.007   6.113  12.820 -0.0194  0.1104  0.0986
12879W        W29727  13.738  14.095  11.639 -0.3170  0.0501 -0.0077
12880W        W29728   9.690  16.347   1.873  0.2004  0.0862 -0.1729
12881W        W29729   0.483  11.084   1.239 -0.0373 -0.1281 -0.0981
12882W        W29730  11.911   9.269   3.947 -0.1909  0.0231 -0.1712
12883W        W29731  13.418  11.809  14.889  0.2690  0.0640 -0.0653
12884W        W29732  13.662  12.046   5.820 -0.0954 -0.1107 -0.0531
12885W        W29733  15.668   0.074   0.138 -0.1707 -0.1164  0.0366
12886W        W29734   6.808   2.739   3.553 -0.0048 -0.0176 -0.0681
12887W        W29735  14.808  15.222  13.166  0.2077  0.1520  0.1875
12888W        W29736   1.573   3.990   1.116  0.0859  0.1079  0.0055
12889W        W29737  10.620  14.410  13.191 -0.0489 -0.0205 -0.1750
12890W        W29738   7.158   2.160   0.468  0.1797  0.0103 -0.0093
12891W        W29739   6.903   1.863  15.297  0.0735  0.3414 -0.0280
12892W        W29740  11.362   2.207   1.527 -0.0208 -0.1519  0.0016
12893W        W29741  12.711  11.407  11.657  0.0930  0.0768  0.1427
12894W        W29742   0.342  16.373   0.755 -0.1356  0.0526  0.0205
12895W        W29743   2.534  10.986   2.520 -0.3121 -0.0779  0.2937
12896W        W29744   6.846   0.851  13.064  0.2170  0.4117  0.0353
12897W        W29745   7.151  11.858  11.434 -0.0593 -0.2811  0.1942
12898W        W29746  16.088   2.575  12.767  0.3369  0.1442 -0.0228
12899W        W29747  15.602  13.311   3.031 -0.1108  0.0740 -0.0876
12900W        W29748   6.095   9.968   2.373  0.0149 -0.0582  0.0084
12901W        W29749  12.111  16.133  14.877 -0.1280 -0.0587  0.1103
12902W        W29750   6.717  15.568   4.408 -0.0028 -0.2299  0.0339
12903W        W29751   0.610  14.629   1.503 -0.1843 -0.2190 -0.4854
12904W        W29752   3.731   2.077  11.611  0.2780 -0.1047  0.2058
12905W        W29753  16.414  10.129  14.601  0.2713 -0.1291 -0.1522
12906W        W29754   0.153  16.904   0.611 -0.2180  0.4073 -0.0833
12907W        W29755   2.024  12.446   3.723 -0.2427 -0.3285 -0.1789
12908W        W29756  11.182   9.181   1.267  0.1897  0.0483 -0.3048
12909W        W29757   5.164   9.843  12.403 -0.2230 -0.0635  0.0915
12910W        W29758   4.833   8.439  12.377 -0.1571  0.1069  0.2053
12911W        W29759   0.615   3.260   2.681 -0.0141  0.1223 -0.1989
12912W        W29760   4.368   4.193  14.082 -0.1522  0.1500  0.2415
12913W        W29761   7.268   4.395   0.254  0.2136  0.1860  0.2603
12914W        W29762  12.353  17.175   2.430 -0.3886  0.0107  0.2324
12915W        W29763  13.606   4.063   0.651  0.0500  0.1626  0.2811
12916W        W29764  13.606   1.426   2.406 -0.2634  0.2048  0.0372
12917W        W29765  15.194  11.668   2.445  0.0216  0.0160 -0.2406
12918W        W29766   2.938   5.507  13.551  0.6307 -0.2021 -0.0262
12919W        W29767  13.444   7.496  15.216  0.2419  0.2922 -0.0077
12920W        W29768  11.672   2.172  15.404  0.0205 -0.4175 -0.0839
12921W        W29769   9.386  17.747   1.969  0.1199  0.0243 -0.1443
12922W        W29770   4.845   6.118  14.075 -0.1116 -0.0575  0.0090
12923W        W29771   2.327  12.637  12.678  0.0246 -0.0115  0.0228
12924W        W29772   8.531  10.182  12.631  0.1140 -0.1707  0.0285
12925W        W29773  14.606   0.918   3.115 -0.0619 -0.1854 -0.2532
12926W        W29774   4.623  16.857   2.060 -0.2040  0.0064  0.0725
12927W        W29775   5.421   2.780  15.782 -0.1319 -0.0851 -0.1795
12928W        W29776   0.783   8.037   3.715 -0.2347  0.0278  0.0436
12929W        W29777   4.239  10.838   2.419 -0.0399  0.1451 -0.2761
12930W        W29778   5.596  14.937   0.694 -0.3937 -0.2733 -0.0451
12931W        W29779  10.695  17.938  15.507  0.5117 -0.2731 -0.2660
12932W        W29780   9.371   4.740   3.237  0.0426 -0.2575  0.2820
12933W        W29781   3.301   2.274  12.933  0.0062 -0.2652  0.5703
12934W        W29782   8.126   4.021  13.374  0.0177  0.0572  0.3522
12935W        W29783   6.044  12.154   4.727  0.1698 -0.3693  0.1402
12936W        W29784   0.992  16.752  15.910 -0.2814 -0.1239  0.0696
12937W        W29785   1.324   5.737   5.172 -0.1253  0.4603 -0.1307
12938W        W29786  16.522   3.617   5.444  0.3648 -0.2028 -0.0156
12939W        W29787   2.598  15.108   4.558  0.1493  0.2526  0.0108
12940W        W29788   6.911  10.600   3.875  0.0617  0.2378  0.3471
12941W        W29789  12.461   7.555  13.956 -0.1373  0.3688  0.0259
12942W        W29790  17.640   3.716   0.210 -0.0696 -0.0813 -0.0555
12943W        W29791  17.742   8.117   1.244  0.0167  0.1649 -0.1149
12944W        W29792   0.152   2.855  15.863 -0.0053 -0.2057  0.2265
12945W        W29793  12.241   7.081   2.261 -0.4606 -0.1769  0.2024
12946W        W29794   2.130  13.916   1.251  0.1373 -0.4464 -0.0698
12947W        W29795   3.246   7.470  14.682  0.0827  0.0211  0.0706
12948W        W29796   5.011  15.437  13.013 -0.4026 -0.1526  0.1285
12949W        W29797   8.320  10.548   2.139 -0.1046 -0.1553  0.2952
12950W        W29798   5.634  17.961   0.977  0.0877 -0.0519 -0.0029
12951W        W29799   2.413   8.842  13.257 -0.3072  0.7832 -0.4152
12952W        W29800   3.871   5.586  13.808 -0.0640 -0.1651 -0.0249
12953W        W29801   9.449   9.674   0.657 -0.2881  0.1453  0.0209
12954W        W29802  12.659   5.186  11.602  0.1859  0.0687  0.2041
12955W        W29803  12.294   9.100  11.140  0.3139  0.0945  0.1291
12956W        W29804   7.575  10.963   1.676  0.2181 -0.1603  0.1831
12957W        W29805   4.283   1.031  14.726  0.1031 -0.3690 -0.2190
12958W        W29806  13.846  11.860  15.804 -0.1412 -0.0594 -0.0548
12959W        W29807  10.716  10.912  12.239 -0.1166 -0.2408 -0.2720
12960W        W29808   9.858  10.635  13.662 -0.3187  0.0383  0.1546
12961W        W29809   7.333   2.580   0.244 -0.1570 -0.0300 -0.0098
12962W        W29810   0.535   5.131   2.336  0.1083  0.1131  0.1454
12963W        W29811   5.328  14.940   5.095  0.2512 -0.0263  0.0215
12964W        W29812  13.941   8.466   4.107  0.2627 -0.0666  0.0425
12965W        W29813   1.752   4.493  14.345  0.0956  0.1719 -0.1174
12966W        W29814   1.424   7.251  16.081 -0.0294 -0.0754  0.0114
12967W        W29815  17.838  14.225  13.334 -0.0898 -0.2401 -0.0575
12968W        W29816   5.912  10.403   2.530  0.0140  0.1294  0.1793
12969W        W29817  16.960  10.842  11.714  0.2348  0.1030  0.1902
12970W        W29818   5.148   7.426   3.399 -0.3503  0.0131  0.1511
12971W        W29819   8.793  12.989   1.685 -0.1258  0.2590  0.0853
12972W        W29820   6.263  11.625  15.646  0.0850 -0.2737  0.0330
12973W        W29821   0.196   3.708  15.185 -0.1240  0.0053 -0.0875
12974W        W29822   4.918   9.907   2.906 -0.4379  0.1287  0.2323
12975W        W29823   3.314   5.309  11.064 -0.0152 -0.1003 -0.0647
12976W        W29824  12.725   0.772   4.385  0.1551  0.1459 -0.1705
12977W        W29825   0.863   7.230  11.104  0.0074  0.0156  0.1765
12978W        W29826  14.875   2.010   2.186 -0.3710 -0.1876 -0.0717
12979W        W29827  11.560   7.092   0.551  0.0363  0.0622 -0.0995
12980W        W29828   6.058   6.916   0.551  0.1732 -0.2142  0.0522
12981W        W29829   4.548  16.111  13.206  0.1086 -0.1230 -0.0894
12982W        W29830   7.401  13.781   5.658 -0.1651 -0.3183  0.0148
12983W        W29831   4.063   3.619  15.261 -0.0316 -0.1978 -0.1295
12984W        W29832   5.844   1.535  12.782  0.0110 -0.0076 -0.0449
12985W        W29833  12.835  12.312   0.800 -0.1996 -0.0271 -0.0317
12986W        W29834  13.433   5.177  11.654 -0.2495  0.1443  0.0243
12987W        W29835  13.494   8.569   4.910 -0.0125  0.0611 -0.0494
12988W        W29836   1.438   2.212   4.109  0.3606 -0.1359  0.1693
12989W        W29837   3.349  12.317   3.300  0.1739  0.1596  0.0890
12990W        W29838   8.446  11.313  11.323  0.0755 -0.1405  0.1193
12991W        W29839   8.571  11.222   1.534 -0.1333  0.1415  0.2798
12992W        W29840  16.358  13.347   5.853  0.3175  0.1265 -0.0180
12993W        W29841   2.004   3.057  11.919 -0.0247  0.0831 -0.3434
12994W        W29842  14.741  12.683  14.757 -0.1020 -0.1009  0.1729
12995W        W29843   2.036   8.416  15.847  0.0505  0.3197  0.1904
12996W        W29844   9.996   0.335   1.292  0.0086 -0.0996  0.0216
12997W        W29845  16.767   2.619   3.377  0.1319 -0.0048 -0.0348
12998W        W29846  14.516   7.242  12.440  0.1734  0.0381  0.0626
12999W        W29847  16.918   6.712  15.831 -0.2100 -0.1620 -0.0631
13000W        W29848  16.858  10.370   5.782 -0.1308  0.3412 -0.0361
13001W        W29849   3.569  10.577  13.560 -0.2563 -0.3130 -0.2007
13002W        W29850   4.610  12.063  12.807  0.3041  0.1911 -0.0872
13003W        W29851  11.804   2.971  11.955 -0.0485 -0.1200  0.2624
13004W        W29852   9.287   1.683  13.259 -0.0867 -0.0270  0.1097
13005W        W29853   8.023  11.283   4.511  0.2534 -0.2175 -0.0454
13006W        W29854  15.455  11.575  13.303 -0.2105 -0.0256  0.0272
13007W        W29855   3.728  11.163   4.019 -0.0929 -0.0266 -0.3531
13008W        W29856   9.078   5.851   0.360 -0.2359  0.2858  0.1362
13009W        W29857  12.816   7.915   0.609  0.2437  0.1863 -0.0159
13010W        W29858   7.173  12.793  15.068 -0.0240 -0.2629 -0.1376
13011W        W29859   5.489   8.016   6.050 -0.1580 -0.0291 -0.0944
13012W        W29860  14.118   9.772  14.527 -0.3178 -0.4169 -0.0989
13013W        W29861  16.216   0.746   4.975 -0.0586 -0.1913  0.0764
13014W        W29862   0.348  13.950   1.204  0.0168  0.0492  0.2134
13015W        W29863   5.293   5.802  13.835  0.4250  0.0071 -0.0050
13016W        W29864  11.226  13.104  14.572 -0.3841 -0.0641 -0.2018
13017W        W29865   6.754  15.012   4.489  0.0144 -0.0314 -0.2133
13018W        W29866   5.862   6.600   0.075 -0.0525  0.0074 -0.1756
13019W        W29867   6.566   3.447  12.515 -0.1742 -0.0118 -0.2639
13020W        W29868  11.638   0.716  11.706  0.1532  0.0015  0.1758
13021W        W29869  10.448   7.221  11.935 -0.0830 -0.0166 -0.2078
13022W        W29870  15.289   0.105  14.405 -0.2729  0.0420 -0.1126
13023W        W29871   2.636   6.020   3.804 -0.2876  0.2188  0.1971
13024W        W29872  11.660   4.511  11.393  0.1650 -0.3868  0.0563
13025W        W29873   1.413   2.933  10.798 -0.3701 -0.2378  0.1942
13026W        W29874   1.627   0.277   5.341 -0.0854 -0.1178  0.1243
13027W        W29875   5.268  15.087  16.177  0.1155 -0.4309 -0.1185
13028W        W29876   5.977  17.552   1.863  0.0795 -0.0081  0.0164
13029W        W29877   1.738  14.732  13.054 -0.2206  0.0484 -0.2642
13030W        W29878   1.597  12.675   1.485  0.0970  0.3179 -0.0084
13031W        W29879   6.649   2.359  15.131 -0.0442  0.0198  0.0199
13032W        W29880   0.503   4.226   3.611  0.1595  0.2228  0.0996
13033W        W29881   8.100  17.194  14.506 -0.4677  0.2397 -0.0149
13034W        W29882   4.126   0.277  10.948 -0.4311 -0.1003 -0.3547
13035W        W29883  15.595   9.245   4.436 -0.1870 -0.0003 -0.0948
13036W        W29884   0.779   6.424   2.251 -0.0093 -0.3036 -0.1929
13037W        W29885   7.212   0.572  11.362  0.2748  0.0499 -0.0289
13038W        W29886   2.191   6.340   1.446  0.2973  0.2177 -0.1493
13039W        W29887  13.840   3.162   3.054  0.3850 -0.0393  0.1624
13040W        W29888   2.392  10.311  11.704  0.2591 -0.0934 -0.3752
13041W        W29889   9.346  11.120   0.853  0.0976 -0.1059  0.2332
13042W        W29890   8.570  10.823   4.753 -0.1901  0.0327 -0.0651
13043W        W29891   1.266   7.500   3.145  0.3109 -0.2164  0.0381
13044W        W29892  13.825   2.557   2.538  0.5557  0.0065  0.2106
13045W        W29893   1.143  16.735  13.151  0.5207  0.0859 -0.2005
13046W        W29894   1.218   8.307  12.523  0.0890  0.0289 -0.1012
13047W        W29895   4.999  16.646   5.421 -0.0935 -0.0305 -0.0111
13048W        W29896  10.567   2.221   1.035  0.2338 -0.3144  0.0905
13049W        W29897   9.168  13.793   3.576 -0.2867 -0.0034  0.3193
13050W        W29898   6.297  16.637   2.055 -0.0753 -0.0397 -0.4026
13051W        W29899   2.239   9.842  11.540  0.2247  0.2041  0.3002
13052W        W29900   1.142   1.227  15.458 -0.1880  0.1241  0.0921
13053W        W29901   1.749   9.787  11.221 -0.1489 -0.1034  0.2558
13054W        W29902   1.590   4.980   1.863  0.0347  0.4216 -0.0627
13055W        W29903   0.839   4.339  14.744 -0.0917  0.1874 -0.0537
13056W        W29904   2.579  15.509  11.885 -0.1320  0.0851 -0.2166
13057W        W29905   8.299  16.702  12.446 -0.1399 -0.0931  0.0481
13058W        W29906   5.877  17.237   5.510  0.1411 -0.0191  0.1875
13059W        W29907   2.889  16.176  14.549 -0.1819 -0.1259  0.6294
13060W        W29908   9.988  10.548   2.939  0.3412  0.0667 -0.0631
13061W        W29909   3.187   8.728   5.857 -0.0157  0.1040  0.3250
13062W        W29910   9.168  14.945   4.598  0.0376 -0.1390  0.0915
13063W        W29911   1.533  16.765   2.763 -0.2838 -0.0026  0.0651
13064W        W29912   0.778   8.816   3.234  0.0613 -0.0666  0.0620
13065W        W29913  12.473  11.162  16.105 -0.1898  0.0341 -0.1141
13066W        W29914  14.685   8.080  12.599 -0.0865 -0.3459 -0.0054
13067W        W29915   5.209  13.473  11.696 -0.1407 -0.1023  0.0807
13068W        W29916   1.813  13.689   3.959 -0.1026  0.0397  0.2337
13069W        W29917   7.557   6.446  14.919  0.3396  0.4644 -0.0122
13070W        W29918  15.538  17.438   4.701  0.0546 -0.1307 -0.0536
13071W        W29919   6.219   8.053  14.914  0.0333 -0.0627  0.1766
13072W        W29920   2.055   1.087  15.911 -0.1410  0.0099 -0.0885
13073W        W29921  13.258  10.306   1.628 -0.1831  0.0498  0.4507
13074W        W29922  14.335  13.233  15.626  0.1142  0.2355 -0.1357
13075W        W29923  16.211  16.715  13.249  0.3447 -0.0152  0.2321
13076W        W29924  16.974  15.862   1.727  0.0526  0.0181  0.1915
13077W        W29925  16.260   3.027  12.389  0.0247 -0.1747  0.0648
13078W        W29926  17.789   2.220  14.947  0.4460 -0.1805  0.0331
13079W        W29927  16.941  17.851   0.663 -0.0144 -0.0079  0.2006
13080W        W29928  13.111  12.963   4.831 -0.1495 -0.0496 -0.2226
13081W        W29929  15.026  17.667  13.775 -0.1645  0.0471 -0.1648
13082W        W29930   0.155   2.766   1.468 -0.1347 -0.2381 -0.1033
13083W        W29931  11.186   2.853   4.946 -0.2944 -0.1365 -0.0793
13084W        W29932  12.636   2.428  14.944  0.1272 -0.2227 -0.0182
13085W        W29933  11.500   1.941   0.775  0.1109 -0.0589  0.0342
13086W        W29934   1.099  14.542   3.109 -0.0442  0.0625 -0.5201
13087W        W29935   2.476  13.166  12.602  0.1266  0.2297  0.0337
13088W        W29936   8.605   7.941   2.736 -0.0847  0.0563 -0.1007
13089W        W29937   1.136   2.160  12.135  0.2971  0.1083 -0.2440
13090W        W29938   8.502  14.326   3.044 -0.1390  0.1580  0.1112
13091W        W29939  17.962  14.909   5.272 -0.1186  0.1599 -0.5024
13092W        W29940   2.526   4.243  12.389  0.0102  0.3956 -0.0717
13093W        W29941   5.296  17.329   4.312  0.2094  0.3033 -0.0987
13094W        W29942   8.569  15.865   0.917  0.1400 -0.1681 -0.0585
13095W        W29943   8.487  12.604   4.383 -0.1292  0.4608  0.2379
13096W        W29944   1.382   7.003  14.213 -0.2142 -0.0947  0.1211
13097W        W29945   9.206  11.404   5.250 -0.1320 -0.1095  0.1517
13098W        W29946   5.398   2.276   4.898  0.1237 -0.3869  0.2479
13099W        W29947   3.350  16.319  16.177 -0.1992  0.0379  0.0041
13100W        W29948  14.598   8.666  16.078 -0.2293  0.1061  0.1691
13101W        W29949  12.942  12.789  14.961 -0.1283 -0.0324 -0.0531
13102W        W29950   2.948   2.750  15.098  0.0533 -0.1321  0.3013
13103W        W29951  15.416  15.439   3.658 -0.0383 -0.3449 -0.1663
13104W        W29952  14.410   5.241   4.354  0.0239 -0.0469  0.1293
13105W        W29953   9.572   4.160  13.700  0.1596  0.0552 -0.5287
13106W        W29954  17.690   6.116  14.286  0.0079  0.4173 -0.0559
13107W        W29955   8.626   2.849   1.394  0.1274 -0.2988  0.2276
13108W        W29956   6.940  17.514  13.710 -0.0376 -0.3607 -0.1874
13109W        W29957  14.667  13.969   0.920  0.0505  0.1385  0.0544
13110W        W29958  11.463  12.276   2.690 -0.0659  0.2459  0.1839
13111W        W29959  15.230   7.408   0.174 -0.0241 -0.1285  0.0025
13112W        W29960   0.009   4.718   4.615  0.0019 -0.0756 -0.0022
13113W        W29961  16.149  11.281   1.467  0.1556 -0.3519 -0.2608
13114W        W29962  10.546   7.667  15.126 -0.0059  0.1707 -0.1287
13115W        W29963   9.162   1.649   4.847 -0.1914 -0.1729  0.1442
13116W        W29964  14.588  17.891  13.842  0.1239 -0.0809  0.3427
13117W        W29965  16.938  14.699   4.298 -0.4604 -0.2123  0.1080
13118W        W29966   2.809   6.094  13.534 -0.0084 -0.2932  0.2241
13119W        W29967  11.544   5.604  14.457  0.3218  0.4093 -0.0207
13120W        W29968  13.353  17.152   2.333 -0.0845  0.0215  0.1175
13121W        W29969   0.617  13.335   2.074  0.2505 -0.0522  0.0196
13122W        W29970   4.848   4.808   4.641 -0.3168  0.0007 -0.0503
13123W        W29971   3.191  14.233  13.313  0.1319 -0.1790  0.1548
13124W        W29972  11.226   3.969  15.171  0.3733  0.4178 -0.2571
13125W        W29973   2.648  11.588   5.436  0.1913 -0.2139 -0.0400
13126W        W29974  11.218   1.742   0.400  0.0711 -0.2566 -0.0294
13127W        W29975   5.998   4.016  15.622  0.0986  0.1339  0.0223
13128W        W29976   3.095   2.300  15.300  0.0264 -0.1061 -0.2643
13129W        W29977   0.611   9.556  16.238  0.1785  0.0589  0.0101
13130W        W29978  15.103  17.086  12.990 -0.0966  0.1728  0.0532
13131W        W29979   7.307   1.356  13.081  0.1219  0.3547  0.2168
13132W        W29980  13.352  11.710   3.843 -0.1049 -0.2002 -0.3639
13133W        W29981   2.550   8.362  16.169 -0.2229 -0.2899 -0.0032
13134W        W29982  11.671   4.576  12.687 -0.5102  0.3172  0.0392
13135W        W29983   4.892  16.859  12.179  0.2022  0.1912 -0.0182
13136W        W29984   7.633   3.738  15.762 -0.0032  0.1374  0.2470
13137W        W29985   7.980  14.518   4.108  0.2651 -0.0522 -0.3555
13138W        W29986  12.572   7.856  13.019 -0.1020  0.3225 -0.0048
13139W        W29987  15.102   5.818   3.940 -0.0576 -0.5295 -0.0975
13140W        W29988  12.062   4.047  12.653  0.0861 -0.4758 -0.0314
13141W        W29989  16.504   3.091   3.327  0.1239 -0.2706 -0.1664
13142W        W29990  11.084  15.522  12.667  0.0354 -0.0784  0.2912
13143W        W29991   8.937  11.538  16.266  0.1159  0.1397 -0.1639
13144W        W29992   4.096  11.260  10.953 -0.0243  0.0446  0.0375
13145W        W29993   1.622  16.508   2.332  0.2594  0.1540  0.0709
13146W        W29994   0.307   6.365   5.657  0.0293  0.1003 -0.1970
13147W        W29995   7.234  13.603   2.583  0.0788 -0.1913 -0.2584
13148W        W29996  13.101   0.355  14.180 -0.0265  0.2960 -0.1571
13149W        W29997   7.198  17.010  14.192 -0.0693  0.0212  0.0575
13150W        W29998   4.702   9.294  15.481  0.0294 -0.1591 -0.2649
13151W        W29999   9.503   6.143   4.400 -0.1103  0.3040  0.1644
13152W        W30000   9.299   0.916   0.287 -0.1190  0.0835 -0.0691
13153W        W30001   4.169   1.011  14.200  0.2601 -0.2271  0.0242
13154W        W30002  12.564  17.224  12.221 -0.0058  0.1103 -0.2843
13155W        W30003  14.482  14.434   4.856 -0.0849 -0.0699  0.0229
13156W        W30004   6.195  17.869  12.592 -0.0961  0.0995  0.3000
13157W        W30005   8.652   6.378  12.559  0.3379  0.2814 -0.2116
13158W        W30006  18.014  14.021  11.115  0.0626 -0.0109  0.0803
13159W        W30007   9.512   3.135  13.317  0.1601 -0.3216  0.0121
13160W        W30008  17.118  17.846  12.987 -0.0684 -0.0177 -0.0519
13161W        W30009  17.522  14.328   2.081 -0.1008 -0.0954  0.1710
13162W        W30010   0.238  14.071   3.821 -0.2116  0.1610 -0.1383
13163W        W30011   0.768  17.354  11.537 -0.0410  0.0954 -0.2636
13164W        W30012  16.021   8.252   0.692 -0.1326 -0.0451 -0.0009
13165W        W30013   1.657  13.178   2.423 -0.1847 -0.0851 -0.1203
13166W        W30014  17.682   3.040  14.097 -0.1559  0.1926  0.0238
13167W        W30015   9.199   9.917   0.287 -0.4241 -0.2351  0.1735
13168W        W30016   7.556   5.891   2.033 -0.1996  0.0311 -0.1724
13169W        W30017   2.806   8.570   1.101 -0.0699 -0.1145  0.3025
13170W        W30018  17.011   6.027  14.385  0.2153  0.1370  0.2246
13171W        W30019  18.047  13.782  12.389  0.1750  0.2369  0.0683
13172W        W30020  17.569   7.806  15.674  0.2070 -0.0334  0.2288
13173W        W30021  14.084  11.664   4.172  0.0895  0.0154  0.1973
13174W        W30022   8.255  10.388   5.096  0.1180  0.1276  0.2343
13175W        W30023  13.317   8.297   1.100 -0.0769  0.1790  0.1049
13176W        W30024  16.412   3.458  12.122  0.0001  0.2425  0.2978
13177W        W30025   2.723  16.281   2.465  0.1541  0.2375 -0.1549
13178W        W30026   1.804   0.326  15.053 -0.1154  0.3293  0.2017
13179W        W30027  16.112   2.120   3.743 -0.1512  0.0648 -0.2510
13180W        W30028   7.605   5.407   0.520 -0.2666  0.2547 -0.0767
13181W        W30029   4.708   6.072  13.419  0.0470 -0.0296  0.1052
13182W        W30030  14.451  13.970  13.050 -0.2304  0.0313 -0.3040
13183W        W30031  15.222   2.317   3.480  0.1917 -0.0852 -0.0559
13184W        W30032  15.602   9.079   1.712  0.2576  0.1043  0.1365
13185W        W30033  15.700   9.941  15.081  0.4350  0.0827  0.1927
13186W        W30034   2.673  11.881   3.669  0.0450  0.1037  0.1334
13187W        W30035   9.103  15.775   2.851  0.0256  0.2312 -0.0234
13188W        W30036  18.024   6.196   3.225 -0.0300  0.4547 -0.0962
13189W        W30037  12.182  15.033   5.688 -0.0788  0.1858  0.0066
13190W        W30038  16.012   8.838   1.305  0.2038  0.1641 -0.1465
13191W        W30039  11.456   4.150   0.551  0.2099 -0.2663  0.2430
13192W        W30040   6.284  17.089   1.210 -0.1614  0.2821  0.3266
13193W        W30041   2.805  17.903   2.431 -0.1028 -0.4594 -0.2262
13194W        W30042  12.952   5.206   0.697  0.4110 -0.1526  0.0663
13195W        W30043   3.013  13.923   1.165  0.1980  0.0384 -0.1713
13196W        W30044  15.611   9.681   0.876  0.1097  0.4600 -0.4044
13197W        W30045  10.798  14.130   0.820 -0.2132  0.2796 -0.0887
13198W        W30046  14.692   6.701  13.979 -0.1054 -0.1178 -0.3098
13199W        W30047   7.961   7.480  15.663 -0.1078  0.2328 -0.0427
13200W        W30048   3.599   7.426  11.322  0.0175 -0.3659  0.1081
13201W        W30049   4.834  11.725   0.144  0.2960  0.3260  0.0212
13202W        W30050  12.285  13.675  14.046  0.3158 -0.1060  0.0574
13203W        W30051   8.268   3.547   1.340 -0.6429 -0.1448  0.1869
13204W        W30052   1.775   8.210  12.550 -0.2046 -0.1591  0.0242
13205W        W30053  14.329  15.052   2.833  0.3590  0.1626 -0.2179
13206W        W30054  13.301  10.486  12.318  0.1423 -0.4010  0.2524
13207W        W30055   6.497  11.243  13.187  0.0838  0.0861  0.0755
13208W        W30056   0.527   4.793  12.771  0.1271  0.1593 -0.2822
13209W        W30057   0.941   6.008  14.423 -0.1249 -0.0898 -0.1687
13210W        W30058   8.374  15.012   1.599 -0.0269 -0.2695 -0.0403
13211W        W30059  17.118   4.109  13.954  0.0175  0.1561 -0.5908
13212W        W30060  13.360   2.242   0.644  0.1310  0.2472 -0.1865
13213W        W30061   2.101   8.952   4.071  0.0438  0.1172 -0.0668
13214W        W30062   4.145   8.238   1.378 -0.2520 -0.1748 -0.1169
13215W        W30063   3.414  14.462   3.599 -0.1602  0.0519  0.0227
13216W        W30064   1.970  17.137   2.230  0.0376  0.0612 -0.0440
13217W        W30065   5.733   4.410   3.358  0.0085 -0.0089  0.1229
13218W        W30066   6.798   7.140   4.942  0.1466 -0.0108 -0.0612
13219W        W30067   5.644   6.861   3.794  0.1306 -0.0555 -0.0111
13220W        W30068   6.980   8.015   0.612  0.0517 -0.0801  0.3045
13221W        W30069   8.198   9.861  16.248  0.5479  0.0028 -0.3579
13222W        W30070   9.184   3.617  14.348 -0.1950 -0.2143 -0.0537
13223W        W30071  12.470  11.869   2.549  0.2959 -0.3184  0.0933
13224W        W30072   5.484  11.821  14.978  0.0038  0.0124  0.1095
13225W        W30073  10.336   4.258   4.875  0.0908  0.0036 -0.1690
13226W        W30074   1.643   3.144  12.892  0.1160  0.1077 -0.2954
13227W        W30075  16.137   1.548   0.788 -0.1513  0.1119  0.2159
13228W        W30076   4.293   6.356  13.548  0.2043 -0.1363  0.0319
13229W        W30077  15.361  10.617  13.438  0.0605  0.0848  0.0118
13230W        W30078   6.894  17.279  11.009 -0.3782  0.0283 -0.1751
13231W        W30079   8.167  12.251   2.370 -0.1140  0.1566 -0.1282
13232W        W30080  11.927   6.678  12.797  0.3198 -0.0960  0.1565
13233W        W30081   3.552  16.859  11.770  0.1227  0.1565 -0.0808
13234W        W30082   1.248   1.087  13.377  0.0061  0.4484 -0.1511
13235W        W30083  13.020   4.440  12.858  0.3469 -0.0192  0.0971
13236W        W30084   6.164  11.299  16.047 -0.3332  0.0704  0.0113
13237W        W30085  11.958   7.990  12.304  0.1451  0.3181 -0.0989
13238W        W30086   4.922   7.013   4.240 -0.3178  0.0118 -0.1997
13239W        W30087   1.018   9.636   3.524  0.0021  0.0467  0.3044
13240W        W30088   7.847  14.044   5.161 -0.1069 -0.0465 -0.2314
13241W        W30089  11.228   0.995  14.316  0.1981  0.2276 -0.1931
13242W        W30090   1.924  17.083   0.119  0.1439 -0.2482 -0.0250
13243W        W30091  13.937   6.541  13.185 -0.0587  0.0570  0.1356
13244W        W30092  13.047   4.192   0.501 -0.4267 -0.2265 -0.1304
13245W        W30093  11.977  15.355  14.314  0.2575 -0.1928  0.1485
13246W        W30094   1.681   3.286   3.141  0.1734 -0.1135  0.0403
13247W        W30095   3.606  16.983   3.121 -0.0564 -0.2555  0.0448
13248W        W30096   7.123  16.971  13.677  0.0101 -0.1720  0.2592
13249W        W30097  10.837  15.405  11.977  0.1061 -0.1468  0.1134
13250W        W30098   3.697   7.425   2.849  0.2068  0.0400 -0.0809
13251W        W30099   1.815  13.280  11.526 -0.0974 -0.0985 -0.1191
13252W        W30100  16.896   2.832   4.766 -0.1462 -0.1356 -0.1921
13253W        W30101   7.333   9.534   1.560 -0.1822 -0.2128 -0.1319
13254W        W30102   3.578   9.316   2.986  0.0161 -0.2153  0.1659
13255W        W30103  14.102   6.216   0.188  0.1172  0.0975 -0.0490
13256W        W30104   4.390   7.950  15.457  0.4262 -0.0819  0.1554
13257W        W30105  13.685   5.746   1.558 -0.1525  0.0340  0.0740
13258W        W30106   6.835  11.641  12.861  0.1590 -0.1080 -0.1315
13259W        W30107  11.101   0.862   3.625 -0.3667 -0.0028 -0.0020
13260W        W30108   6.597   3.420  10.916  0.0954  0.1709  0.1177
13261W        W30109  10.838  10.455  12.625 -0.2467  0.2891  0.0485
13262W        W30110   5.871   7.902   3.531 -0.0644  0.1817 -0.0616
13263W        W30111   4.882  10.272  16.055 -0.0991  0.0564  0.1237
13264W        W30112   3.140   1.641  15.752 -0.0083  0.2519  0.2359
13265W        W30113  14.836   6.934   2.584  0.1006 -0.0631 -0.2788
13266W        W30114  17.224   1.566   0.478  0.0610 -0.1231 -0.2470
13267W        W30115   1.768   1.943   5.751 -0.0406 -0.0263  0.1976
13268W        W30116   8.385  14.080   3.531  0.5034 -0.0410  0.0051
13269W        W30117  14.345   1.261   0.925 -0.2761 -0.3157  0.2342
13270W        W30118   4.015  16.240  12.389 -0.1818 -0.1807  0.1049
13271W        W30119  13.364  13.047   3.944  0.1149 -0.0055 -0.3058
13272W        W30120   2.044  12.632  16.167 -0.1604 -0.0701 -0.0519
13273W        W30121   9.590   6.259   0.228  0.4584  0.1516  0.1816
13274W        W30122  11.179  17.795  12.835  0.1270 -0.1888 -0.1485
13275W        W30123  17.023   5.632  12.917 -0.2647  0.0852  0.1109
13276W        W30124   6.620   8.209  15.835  0.3049  0.1472  0.0786
13277W        W30125   5.040  12.469   3.218 -0.2847 -0.2990  0.2020
13278W        W30126   8.793  11.948   0.832 -0.3769 -0.2636 -0.2003
13279W        W30127   8.501   3.450  15.066 -0.4411 -0.0473 -0.1072
13280W        W30128  13.266  12.347   0.973  0.1528  0.0913  0.1433
13281W        W30129  17.679  17.570   3.937 -0.2989  0.1254  0.2366
13282W        W30130   0.946   8.176   0.794 -0.1776 -0.3067 -0.4453
13283W        W30131  11.575   2.171  11.571 -0.2731  0.2968  0.0634
13284W        W30132  15.837   0.462  16.113  0.0191 -0.2332 -0.1472
13285W        W30133   5.949  14.354   5.021  0.3054  0.0676  0.3700
13286W        W30134  10.306  17.424  12.456  0.0129 -0.2557 -0.0460
13287W        W30135  17.340   5.939   0.261  0.1105  0.0966  0.0125
13288W        W30136   5.300   7.597  12.801  0.2033  0.1355  0.0087
13289W        W30137  11.112  10.471   3.461  0.0257  0.0075 -0.0995
13290W        W30138   6.246   5.245  15.919 -0.0089  0.0695  0.0928
13291W        W30139  11.833   1.673  11.506 -0.2009  0.3549  0.4484
13292W        W30140  10.839   7.114   5.742 -0.1906 -0.0749 -0.0198
13293W        W30141  10.277   3.803   3.120  0.0990  0.1890 -0.0631
13294W        W30142  17.005  13.976  14.696 -0.3485 -0.2030 -0.1122
13295W        W30143   9.318   8.968   4.102 -0.0823 -0.1584  0.0724
13296W        W30144   7.518   9.267  15.640  0.0234  0.0836  0.1320
13297W        W30145  17.639  16.468  13.391 -0.2077  0.1580  0.0331
13298W        W30146   3.764   3.835  12.165 -0.1354 -0.2391 -0.0452
13299W        W30147  10.009  11.033   3.137  0.0394  0.2933  0.0331
13300W        W30148   0.941  13.348  16.244  0.0667  0.1425 -0.0731
13301W        W30149  14.776  10.409   0.380  0.0564  0.3222  0.1230
13302W        W30150   9.592  16.573   2.309 -0.2981  0.1268 -0.2667
13303W        W30151  13.896   3.848  12.829 -0.3169  0.1283  0.0770
13304W        W30152  14.740   5.717   3.053 -0.1425 -0.0052 -0.2435
13305W        W30153  17.223   8.467  11.949  0.0252 -0.0110 -0.2806
13306W        W30154   1.594   9.907   2.064 -0.0225  0.0298  0.2493
13307W        W30155  11.407   5.103  12.304 -0.1936  0.2766  0.1931
13308W        W30156  14.573   6.613  15.811  0.2917 -0.1416 -0.0317
13309W        W30157   8.701  15.096  13.997 -0.0226  0.0460  0.0953
13310W        W30158  14.341   9.622   4.584  0.1247  0.2405 -0.0794
13311W        W30159   5.988   6.444  14.215 -0.0634  0.2391 -0.1788
13312W        W30160  10.135   6.744  14.087 -0.1781 -0.2827  0.1354
13313W        W30161   5.810  15.655  11.857 -0.1165  0.1978  0.0329
13314W        W30162   0.738   7.511  12.477  0.1854 -0.2060 -0.0964
13315W        W30163   1.432   7.627   2.552 -0.0962 -0.0680 -0.1250
13316W        W30164   1.661   4.204   0.640 -0.2689 -0.1815 -0.1723
13317W        W30165  14.944   7.273   4.490 -0.3155  0.0341  0.1016
13318W        W30166  11.072   4.911   0.959  0.3008  0.1631 -0.0296
13319W        W30167   5.835   5.433  12.277 -0.1165  0.1831 -0.0274
13320W        W30168  14.030   9.977   1.845  0.0525  0.1982 -0.1267
13321W        W30169   3.476  15.540  14.903 -0.0014  0.2574 -0.0759
13322W        W30170  10.404   0.201   3.300 -0.0260  0.2208 -0.1332
13323W        W30171  12.572   1.046  14.537  0.2754  0.1916 -0.1273
13324W        W30172  13.153  12.540  13.451 -0.2030  0.0327 -0.1555
13325W        W30173  13.491   0.752  11.699 -0.1182  0.0205  0.1696
13326W        W30174  11.122   0.468   1.515  0.1033 -0.0357  0.0563
13327W        W30175   5.700   6.191  16.001  0.0309 -0.2570 -0.1226
13328W        W30176   8.371   3.018   2.652  0.1227 -0.0817 -0.2277
13329W        W30177  17.841   0.806   2.860 -0.1081 -0.1404 -0.1845
13330W        W30178   9.002   0.082   3.417  0.1654 -0.2081 -0.3013
13331W        W30179   3.118   0.373  14.680 -0.0393  0.0204 -0.0689
13332W        W30180   2.458   1.382  13.522  0.1681  0.4075 -0.0977
13333W        W30181   6.838  10.832   4.813 -0.0405  0.2080 -0.0863
13334W        W30182  17.946   2.500   0.219  0.0478  0.1774  0.1186
13335W        W30183   3.278   5.253   5.068 -0.1059 -0.0429 -0.2597
13336W        W30184   2.640   5.588   1.700  0.0004  0.3446  0.0081
13337W        W30185  12.596  14.648   3.760  0.1576 -0.3751 -0.1157
13338W        W30186  10.710  11.438   0.626 -0.1725 -0.0649 -0.2984
13339W        W30187  14.827   1.986   3.509  0.0409  0.0919  0.0209
13340W        W30188  16.102  16.033  10.501  0.5418 -0.0120  0.0523
13341W        W30189   5.576  14.051   2.265 -0.0607  0.2214  0.2305
13342W        W30190   8.921  15.241  11.954  0.0560 -0.5757 -0.2043
13343W        W30191   4.784   4.064  13.793  0.4142  0.3304  0.1611
13344W        W30192   9.006  17.775  11.047  0.1812  0.0650 -0.1122
13345W        W30193  15.070   5.459   0.419  0.2353  0.1820  0.1441
13346W        W30194   8.497  17.586  11.779 -0.0095 -0.1946  0.0304
13347W        W30195   4.940   0.603   1.323 -0.2226 -0.2264  0.3480
13348W        W30196   2.030  13.779   2.986  0.2081 -0.1922  0.0426
13349W        W30197   8.992   2.709  14.444  0.1683 -0.0785  0.0432
13350W        W30198   8.635  11.344  14.193  0.5346  0.3164 -0.2478
13351W        W30199   4.697   3.746  15.847  0.0973  0.2652  0.0150
13352W        W30200  10.188   4.740  11.182 -0.0215  0.1238 -0.0738
13353W        W30201   6.884   3.863  15.109 -0.1753 -0.0750  0.2912
13354W        W30202   8.441   0.625   3.995  0.1813 -0.2992 -0.2594
13355W        W30203   3.761   6.707  15.594  0.1298 -0.3447  0.1699
13356W        W30204  16.742   1.470   0.097 -0.0544  0.0325  0.0151
13357W        W30205  15.734   7.180   2.990 -0.0763 -0.0232  0.2424
13358W        W30206   3.899   7.617  11.773 -0.2065  0.0354  0.1606
13359W        W30207   2.418   9.319  16.063  0.0664 -0.0052  0.4371
13360W        W30208   2.947   7.925   3.988  0.1991 -0.0208  0.2442
13361W        W30209   5.751   0.997   4.252 -0.1331  0.0645  0.0143
13362W        W30210   2.673  17.503  15.624  0.1584 -0.0576  0.0683
13363W        W30211  10.385  15.622  10.720 -0.1184  0.1193 -0.4898
13364W        W30212   0.820   4.803   4.538  0.1274  0.1382  0.2586
13365W        W30213  10.699   8.476   4.842 -0.2753  0.1053  0.2868
13366W        W30214  17.951   1.988   5.259 -0.0041  0.1166  0.4821
13367W        W30215   7.931   6.751   0.476  0.2044 -0.1506  0.2310
13368W        W30216   3.479   3.632   2.212  0.1757  0.0820  0.1975
13369W        W30217   3.757  16.202   1.905 -0.1334 -0.0914  0.3110
13370W        W30218   2.672  14.759   2.093 -0.0227  0.0103  0.0950
13371W        W30219  13.221  15.826  12.337 -0.0873  0.3310  0.0153
13372W        W30220   0.294   1.097   0.205  0.3850 -0.4142  0.1067
13373W        W30221  15.747   7.551   3.918  0.0795  0.0008  0.3454
13374W        W30222   7.944  15.952  12.705 -0.2584 -0.2784 -0.3300
13375W        W30223   6.849  13.942  15.810 -0.5398  0.2156  0.2170
13376W        W30224  15.218   6.420  15.735 -0.4356  0.2187 -0.2405
13377W        W30225  18.013   2.187   2.140  0.1263  0.3990  0.1767
13378W        W30226   5.572  13.227   2.756  0.0630  0.0953  0.3185
13379W        W30227   9.397   1.648  12.241  0.1500  0.1520 -0.1700
13380W        W30228   6.068   0.648   0.515 -0.1317  0.0079 -0.1297
13381W        W30229   4.355   8.723  13.648 -0.1675  0.0825  0.0261
13382W        W30230  13.019   5.440  13.282 -0.2024 -0.0555 -0.2541
13383W        W30231  12.843   0.022   3.193  0.2249 -0.0376  0.2768
13384W        W30232  13.340   8.788  15.773 -0.0116 -0.0495 -0.0463
13385W        W30233  14.616  15.962  12.513 -0.1042  0.3338 -0.3190
13386W        W30234  12.595   5.360   2.849  0.0283  0.0941 -0.2829
13387W        W30235   3.517  16.339   4.556 -0.0860  0.1605  0.1786
13388W        W30236  15.148   6.155  12.701 -0.1187 -0.1956  0.2330
13389W        W30237  15.842   9.612  10.831  0.1263 -0.0326 -0.2058
13390W        W30238   7.344  10.192   2.396 -0.1400 -0.0099  0.0055
13391W        W30239   9.153   5.124  15.689 -0.2060  0.1670  0.1938
13392W        W30240   1.604   8.162  15.004 -0.2536  0.0331 -0.1423
13393W        W30241  15.141   9.766  14.955 -0.0701 -0.2326  0.3112
13394W        W30242  14.034   7.518   1.560 -0.1686 -0.0182 -0.1356
13395W        W30243  17.866   0.417   4.203  0.0539 -0.0273  0.3131
13396W        W30244   7.289  16.202   1.419 -0.0652  0.1225 -0.1084
13397W        W30245  15.445  16.698   1.332 -0.0268  0.0443  0.0436
13398W        W30246  10.632  15.198  12.863 -0.0891  0.0375 -0.1101
13399W        W30247  15.385   2.038  14.194  0.4283  0.1200 -0.1771
13400W        W30248   6.990   0.909  15.292  0.0442  0.0259  0.5346
13401W        W30249  15.591  13.784   2.862 -0.0804  0.0230 -0.1500
13402W        W30250   9.232  10.610  10.646  0.1821 -0.2689  0.1192
13403W        W30251   7.240   0.867   0.019 -0.2123 -0.0099  0.0281
13404W        W30252   7.510   2.766   6.679  0.0094  0.2258  0.1795
13405W        W30253  16.898   7.775  13.766  0.1388 -0.3020 -0.0371
13406W        W30254   5.223   1.347   5.338  0.1152  0.0679 -0.1322
13407W        W30255  13.594  10.112   0.634 -0.0723  0.0685  0.2034
13408W        W30256   5.644  16.044  14.183  0.0895  0.0914 -0.1750
13409W        W30257   7.418  12.694  12.349 -0.0748  0.2047 -0.2695
13410W        W30258  16.959   2.940  12.621 -0.2077  0.2958  0.0561
13411W        W30259  17.015  14.897   3.866 -0.2244 -0.0533  0.2443
13412W        W30260  17.672   2.896  11.582  0.3253 -0.1140 -0.0865
13413W        W30261   0.898   0.779  15.203  0.1326 -0.1415  0.1726
13414W        W30262   7.880   9.867  11.448 -0.0416  0.1081  0.0484
13415W        W30263  15.897  10.120   3.184  0.4022  0.1421  0.2355
13416W        W30264   2.330   1.276   3.878 -0.0102  0.1020 -0.2673
13417W        W30265   3.706   1.738   3.123  0.0996 -0.0990  0.0314
13418W        W30266  17.693  18.011   2.344 -0.3285 -0.0093 -0.0234
13419W        W30267  13.191   3.807  13.864 -0.2308  0.2306 -0.1407
13420W        W30268   6.187  14.852  13.770  0.0913 -0.2088  0.1167
13421W        W30269   4.664  14.515  16.094  0.2824 -0.0010  0.1269
13422W        W30270  12.006  12.447  12.037  0.3540 -0.0661  0.4308
13423W        W30271  15.375   1.056  11.444 -0.3157 -0.2033 -0.0142
13424W        W30272  12.679   1.136   1.779  0.0937  0.2811 -0.3076
13425W        W30273   6.773  14.779  11.812  0.0013  0.4016 -0.1455
13426W        W30274   2.999   3.961  10.692 -0.1781  0.4088  0.0333
13427W        W30275  12.348   3.610   0.622 -0.2604 -0.1914  0.2009
13428W        W30276   3.506   6.127   0.268 -0.0954  0.0882  0.0577
13429W        W30277   2.379  12.772  12.212  0.0353  0.0170  0.1184
13430W        W30278  16.514   8.645   3.061 -0.2165  0.0182  0.0503
13431W        W30279   2.343   4.723  12.349 -0.0226  0.1183  0.2520
13432W        W30280   2.660   7.064  15.376 -0.1461 -0.1864  0.5279
13433W        W30281   2.361   7.303   1.428 -0.2781 -0.2752  0.0524
13434W        W30282   7.069  14.949   0.118 -0.1140  0.0494  0.2994
13435W        W30283   2.559  13.936  14.468 -0.1543 -0.0163 -0.0802
13436W        W30284  12.969   4.014  15.075 -0.2712  0.2724 -0.0629
13437W        W30285   8.739   8.388   0.309  0.0082  0.1636  0.1653
13438W        W30286  10.112  10.784  12.610 -0.0215 -0.0894 -0.1773
13439W        W30287  16.074   1.645  12.978 -0.2170  0.0495  0.1883
13440W        W30288   9.378   6.332  15.391  0.1762  0.0279 -0.0600
13441W        W30289  14.786  11.278   2.910  0.1987 -0.0893 -0.0453
13442W        W30290  15.605   5.233  11.217 -0.0649 -0.0473 -0.3672
13443W        W30291   3.477   1.969  10.612  0.2852  0.0810 -0.1222
13444W        W30292   4.303   4.880  13.906 -0.3776 -0.0491 -0.0259
13445W        W30293   0.363   2.097   4.062  0.0559  0.0922  0.2098
13446W        W30294   1.066   6.449   0.350 -0.3189  0.2087 -0.2365
13447W        W30295   8.994   8.617   4.246 -0.0780  0.0465 -0.0222
13448W        W30296  13.291   0.768   3.480 -0.0772  0.0316  0.1315
13449W        W30297  16.226  10.517   0.865  0.1341  0.1627 -0.1157
13450W        W30298  14.208   1.307  15.852 -0.1596  0.0985  0.1022
13451W        W30299   2.651  13.518  10.989  0.4059 -0.0530  0.1231
13452W        W30300  17.156   6.435   0.647  0.0722  0.0123  0.1647
13453W        W30301  15.410  12.606   0.074  0.2401  0.1001  0.2446
13454W        W30302   3.994  13.529  13.721  0.0244 -0.2109 -0.2426
13455W        W30303  16.145  13.433   4.219 -0.3650  0.1705 -0.1348
13456W        W30304  11.658   7.044  12.402 -0.1155  0.1331 -0.3452
13457W        W30305   5.677   6.801  12.148 -0.3486 -0.1856  0.0894
13458W        W30306   7.945  12.802  13.321 -0.0384 -0.3488  0.0722
13459W        W30307   5.163   4.498  15.772  0.2395 -0.0318 -0.1020
13460W        W30308   1.457  16.838  16.257 -0.0550 -0.1759 -0.1164
13461W        W30309  15.843   2.689  11.755 -0.0089 -0.3072  0.0159
13462W        W30310  13.638   4.949  13.144 -0.2534  0.0591  0.0892
13463W        W30311  10.694  14.732   2.942 -0.1399  0.1221  0.0959
13464W        W30312   8.510   1.862   1.667 -0.1833 -0.2366  0.1926
13465W        W30313   3.390   1.699  14.698  0.1827 -0.0040  0.1704
13466W        W30314   4.813   9.894  12.755 -0.1148 -0.2335  0.0231
13467W        W30315  16.067  16.009  14.890  0.0048 -0.0687 -0.1932
13468W        W30316  12.161  12.264   3.832  0.1520  0.1980  0.1796
13469W        W30317   1.909   2.803   0.311  0.2055 -0.2459  0.2120
13470W        W30318  13.258   3.681  15.377  0.0210  0.2171 -0.1127
13471W        W30319   4.287  12.430  15.672 -0.1377 -0.1394  0.1129
13472W        W30320  12.744   2.881   4.982 -0.4095  0.0042  0.0357
13473W        W30321   5.949   2.521  14.303 -0.2203 -0.4049  0.3424
13474W        W30322   7.099  17.944   4.995 -0.3985  0.1688  0.0249
13475W        W30323   4.148   9.978  14.066 -0.0161  0.1799 -0.2059
13476W        W30324  16.908   0.403  14.793 -0.4425  0.1380 -0.1070
13477W        W30325  17.765  16.816  15.444  0.0487  0.1810  0.0595
13478W        W30326   7.415  14.211   2.595 -0.1761 -0.0617 -0.1079
13479W        W30327   3.423  13.705   3.423 -0.1895  0.0034 -0.1306
13480W        W30328   1.620  17.154   1.773 -0.1317 -0.0199 -0.0301
13481W        W30329   8.321   4.402  14.880  0.3476  0.1861 -0.1387
13482W        W30330  11.793  17.684   4.010 -0.0889 -0.1135 -0.0955
13483W        W30331   0.920  17.679  13.328  0.3622  0.0987  0.4698
13484W        W30332   0.085   3.345  14.181 -0.0662 -0.1183  0.1007
13485W        W30333   5.803  13.099  14.702  0.1748  0.1391  0.3450
13486W        W30334  13.491   8.966  14.461  0.1901  0.0846 -0.0524
13487W        W30335   3.679  17.584  15.805  0.0197  0.2468  0.4560
13488W        W30336   1.726  14.937   0.898  0.0080 -0.1558  0.0286
13489W        W30337  13.975  13.665  11.712 -0.2001  0.0676 -0.1212
13490W        W30338   2.009  14.654  11.932 -0.1542  0.0783  0.1081
13491W        W30339  13.817   7.747  11.847  0.0698  0.3590 -0.3529
13492W        W30340  11.911  13.180  12.331 -0.0865  0.0381 -0.0672
13493W        W30341  17.675  16.413   1.917 -0.0570 -0.2008  0.2200
13494W        W30342   2.143   9.404  14.559 -0.0906  0.0407  0.0416
13495W        W30343   1.687  16.654   5.402  0.1368 -0.0698 -0.6683
13496W        W30344  15.990   5.962  14.905  0.0878 -0.1646  0.1695
13497W        W30345  16.688  16.308   1.462  0.0647  0.4064 -0.1989
13498W        W30346  16.349  13.516   2.358 -0.4647  0.0399 -0.0326
13499W        W30347  13.972  14.120  14.476  0.1122  0.2279 -0.1712
13500W        W30348   7.958   8.993  11.879 -0.0035 -0.2210 -0.2722
13501W        W30349   8.654  16.323   3.690 -0.0192  0.0726 -0.0353
13502W        W30350  12.875   3.267   2.186 -0.0197  0.1761 -0.0046
13503W        W30351  14.104  13.151   5.177 -0.0350  0.0921  0.2391
13504W        W30352   1.737  17.482  11.448  0.0318 -0.0325 -0.1401
13505W        W30353   2.897  10.186  12.807  0.2635 -0.1739 -0.1003
13506W        W30354  11.416   4.216   5.097  0.0581  0.0394 -0.2663
13507W        W30355  10.592  11.443   3.843 -0.1002 -0.1162 -0.1657
13508W        W30356   5.736  13.063   3.777  0.2488  0.3182  0.0403
13509W        W30357  15.986  13.046   1.583 -0.0635 -0.2694 -0.0942
13510W        W30358  14.839  13.855   2.225  0.2310  0.0714  0.0083
13511W        W30359   5.467   3.742   3.890  0.3297 -0.0345 -0.1668
13512W        W30360   7.990  12.134  11.588  0.0283 -0.1412 -0.2197
13513W        W30361   8.696  10.032   0.512  0.1902 -0.0397 -0.0491
13514W        W30362   3.195  14.463   4.032 -0.3188  0.1904 -0.0309
13515W        W30363   5.364  12.423  13.789 -0.0602 -0.3450 -0.0911
13516W        W30364   8.725   5.040   2.203  0.0635 -0.2522  0.0252
13517W        W30365   6.175   2.358   2.380 -0.4382 -0.3515  0.1462
13518W        W30366   7.934  13.881  14.100 -0.1700  0.2439  0.0366
13519W        W30367   6.476  10.521   3.510 -0.0783 -0.2721 -0.1986
13520W        W30368  10.064   2.144   0.133 -0.0812 -0.0013 -0.0125
13521W        W30369  14.588  11.525  12.154  0.3007 -0.1098  0.2023
13522W        W30370  16.269   2.587   0.732  0.0662  0.4580  0.1131
13523W        W30371   7.422   0.196   0.116 -0.1586  0.0497 -0.3083
13524W        W30372  10.902   6.288  11.825  0.1816  0.0795  0.0957
13525W        W30373   3.976   4.219   0.159  0.2860 -0.0597 -0.1818
13526W        W30374  11.313   0.271  15.951 -0.2307 -0.0119  0.0077
13527W        W30375   5.084  12.390  15.461  0.0751 -0.1792  0.2106
13528W        W30376   3.091  10.839  12.133 -0.0044  0.2468 -0.2472
13529W        W30377  12.062  14.652  14.193  0.0126  0.2971 -0.1133
13530W        W30378  15.796   4.702  11.903  0.0838  0.1594  0.0626
13531W        W30379   0.191   3.615  12.017  0.0166 -0.1659 -0.0165
13532W        W30380  15.240  13.688  13.399  0.0732 -0.0083  0.1389
13533W        W30381   9.772   3.728   4.005 -0.0180  0.0120  0.1185
13534W        W30382   0.487  12.549   2.539  0.0443 -0.0891 -0.1580
13535W        W30383  11.376   9.745  10.659  0.3113  0.1276  0.2436
13536W        W30384   7.367   4.874  15.205 -0.1687 -0.0864  0.1468
13537W        W30385   4.033   9.617  13.171 -0.0466 -0.0514 -0.0388
13538W        W30386  13.524   7.324   4.228  0.1096 -0.1575  0.1486
13539W        W30387  10.151   7.619  13.462  0.1665  0.0306 -0.0720
13540W        W30388  11.190  11.012   3.337 -0.0911  0.1264  0.1573
13541W        W30389   0.196   1.232  11.807 -0.1502  0.1881 -0.3025
13542W        W30390  12.655   9.555   0.650 -0.1061 -0.1590  0.3875
13543W        W30391   3.225   9.551  10.241  0.0387 -0.2803 -0.1380
13544W        W30392  13.910  15.295   1.377 -0.0085  0.0650 -0.0729
13545W        W30393  12.596   5.185   3.840  0.4364  0.0708  0.1668
13546W        W30394  11.007   9.569   1.522  0.0145  0.1806 -0.1277
13547W        W30395  16.060  16.713  15.872 -0.1906 -0.0086 -0.0444
13548W        W30396  17.548   9.355  13.634 -0.2420  0.1601 -0.3237
13549W        W30397  16.706   1.336  11.189 -0.2242 -0.0531  0.0789
13550W        W30398   9.841  15.841  14.237 -0.2685 -0.1270 -0.1564
13551W        W30399  17.364  16.707  13.768 -0.1037 -0.1543 -0.1062
13552W        W30400  12.555   4.335  15.984 -0.1138  0.0696  0.1436
13553W        W30401   0.280   1.841  14.254  0.1165  0.1769 -0.1264
13554W        W30402   9.601  15.369  14.955  0.0660 -0.0029  0.0003
13555W        W30403   1.672   7.251  11.486 -0.2485 -0.0325  0.0351
13556W        W30404  15.765   3.407  15.597 -0.0313  0.1699 -0.1537
13557W        W30405   8.877   6.894   1.137 -0.0310  0.1227  0.0134
13558W        W30406  11.768  10.580   0.216 -0.0481 -0.3028  0.0173
13559W        W30407   3.345  13.218  12.991  0.0198 -0.2483  0.0847
13560W        W30408  15.205  12.024  14.056 -0.1892  0.0931 -0.0167
13561W        W30409   8.669  16.161   0.293  0.2288 -0.0079  0.2200
13562W        W30410   8.211  12.079   4.099 -0.1922  0.3199 -0.1356
13563W        W30411  11.567   0.443  12.586 -0.1705 -0.0891  0.0514
13564W        W30412  10.841   0.382   1.014  0.1032 -0.3187  0.3071
13565W        W30413   9.765   8.265  11.829 -0.1140 -0.0611  0.2325
13566W        W30414   1.340  15.453  12.871  0.0980  0.1464 -0.4094
13567W        W30415   6.619  17.490   1.757 -0.0138  0.1969  0.5446
13568W        W30416  13.658   0.815  15.324 -0.1532 -0.0449 -0.1982
13569W        W30417  15.455  12.933  12.297  0.2248  0.1444 -0.4847
13570W        W30418   6.382   2.008   0.973  0.1447  0.1437  0.0693
13571W        W30419   5.962   7.028  11.713 -0.0763 -0.2066 -0.0279
13572W        W30420  12.150  17.241  11.840 -0.0918  0.0547  0.1716
13573W        W30421  10.937   9.622  13.153  0.1308  0.1227  0.2365
13574W        W30422  10.985  11.148  16.098 -0.3402  0.2982 -0.1522
13575W        W30423   8.989  17.526  14.079  0.1537  0.3661  0.3043
13576W        W30424   0.605   6.032   1.923 -0.2693 -0.4060  0.2349
13577W        W30425   7.279  14.765  12.548  0.0105  0.1310  0.2392
13578W        W30426  16.190   0.929   1.415  0.5955 -0.1599 -0.1979
13579W        W30427  17.447  12.911   1.155 -0.5027 -0.2533 -0.0562
13580W        W30428   2.017  15.996  12.422 -0.0388 -0.0696  0.0748
13581W        W30429  16.714  10.923   4.500  0.0397 -0.0819  0.0159
13582W        W30430  15.005   9.382  15.503  0.0056 -0.0777  0.0200
13583W        W30431  10.324   7.628   1.456  0.0831 -0.2605  0.1241
13584W        W30432   8.707   3.655   0.064 -0.2774  0.2721  0.2202
13585W        W30433  16.804   4.614   2.583  0.3348  0.2400 -0.1506
13586W        W30434   5.157  17.262   1.480 -0.4349  0.1612  0.4215
13587W        W30435  16.427  12.815   3.063 -0.5555 -0.1832 -0.0918
13588W        W30436   1.075   4.998  14.411 -0.1385 -0.3188  0.3571
13589W        W30437   1.541   5.503  13.049 -0.1021 -0.0341  0.0702
13590W        W30438   2.290   8.200  12.548 -0.5014  0.0543  0.0774
13591W        W30439   3.807   0.120  13.851 -0.0001  0.1381 -0.1245
13592W        W30440   1.068   8.052  14.792  0.1453 -0.1283 -0.0561
13593W        W30441  12.278  10.648  16.156  0.2828  0.1984  0.2219
13594W        W30442   3.175   9.325  13.471  0.1505  0.0304 -0.0456
13595W        W30443   1.540   0.024  12.441  0.1841 -0.3099  0.0243
13596W        W30444   0.990   0.817  14.664  0.0368 -0.0548  0.1691
13597W        W30445  15.776  11.815   0.282 -0.0165  0.0394 -0.2481
13598W        W30446  11.761   9.734  15.244  0.4017  0.0160  0.2437
13599W        W30447  10.978  11.285   4.616  0.0093  0.1074 -0.1533
13600W        W30448  15.702   2.106   2.657  0.1045 -0.3609  0.1166
13601W        W30449  16.807   5.214  15.040 -0.0304 -0.1108  0.0453
13602W        W30450   1.753  15.877  11.644 -0.0777  0.1007 -0.3625
13603W        W30451  11.371   3.185   3.545  0.1232  0.1517 -0.1373
13604W        W30452   5.113   0.065  15.892 -0.0685 -0.0369  0.3309
13605W        W30453   8.907   9.462  11.176  0.2360 -0.0309  0.3133
13606W        W30454  14.512   2.249  14.309  0.0950 -0.0148  0.1443
13607W        W30455   9.930   3.902   2.137  0.1632  0.0562 -0.0910
13608W        W30456   7.174   1.525   4.769  0.1878  0.1117 -0.1636
13609W        W30457  12.618  13.994  15.162 -0.2321 -0.0456 -0.0293
13610W        W30458   1.184  16.011   4.751 -0.0147  0.2029  0.1506
13611W        W30459  13.126  17.064  15.713 -0.0769  0.1543 -0.2282
13612W        W30460   6.283  13.030  12.687 -0.2065  0.1828  0.1915
13613W        W30461  12.660   3.720  15.408  0.0109 -0.2011  0.1534
13614W        W30462  14.651  11.312  15.412  0.0825  0.0628  0.1011
13615W        W30463   1.272  11.754  10.671  0.1735  0.1300  0.2366
13616W        W30464   0.145  12.840   3.166 -0.0059  0.0903 -0.1168
13617W        W30465   1.204   4.003   0.828  0.0468 -0.0255  0.0973
13618W        W30466   9.185  13.193   0.389  0.1478  0.0148 -0.0833
13619W        W30467  13.000  16.255   2.843 -0.2070 -0.1931  0.2935
13620W        W30468  13.069  13.281  14.748 -0.2019 -0.0550  0.1138
13621W        W30469   1.817  13.730  11.235 -0.1853  0.0272 -0.0341
13622W        W30470  15.775  10.347  11.503  0.1308 -0.2058 -0.2855
13623W        W30471   6.941  12.945   5.116 -0.2998 -0.3071  0.0381
13624W        W30472   1.825   8.832  13.899 -0.1484  0.0146  0.0882
13625W        W30473   4.762   0.961   4.720  0.0585 -0.1275  0.2516
13626W        W30474   0.988  11.470   1.286  0.2841 -0.0284 -0.0680
13627W        W30475   6.545  13.229  13.071  0.0045  0.0921 -0.0102
13628W        W30476   8.261   0.714  14.440  0.0768  0.0341  0.2264
13629W        W30477  14.415  15.460  13.388 -0.1087 -0.1086  0.0283
13630W        W30478  12.415  12.050  13.799 -0.0283 -0.2456 -0.0223
13631W        W30479   6.656  17.078  13.498  0.1914  0.1775  0.1578
13632W        W30480   5.362  17.408   3.042  0.2837  0.0330  0.2102
13633W        W30481   2.174   9.778  16.075 -0.0290 -0.0552 -0.1966
13634W        W30482   7.051   9.354  14.772 -0.2605  0.1636 -0.0539
13635W        W30483   6.800   3.100   4.451 -0.1075 -0.1935  0.0499
13636W        W30484  12.553  16.417   5.123 -0.0585 -0.1610 -0.0264
13637W        W30485   6.091  13.525  12.462 -0.1973 -0.2791  0.0753
13638W        W30486  10.934   3.136  12.448  0.0367  0.2379 -0.0722
13639W        W30487   9.299  14.197  15.787 -0.0351  0.1635  0.0320
13640W        W30488  14.365  14.565  13.839  0.1115 -0.0477  0.2707
13641W        W30489   4.614  15.628  12.739 -0.0426  0.0240  0.0324
13642W        W30490  12.735  12.065   0.367  0.2242 -0.1993 -0.2970
13643W        W30491  16.868  14.696  11.635  0.0761 -0.0945  0.2312
13644W        W30492  17.687  17.251   5.162  0.3399  0.0037  0.1393
13645W        W30493  16.171   1.548   1.944  0.1091  0.3274  0.1500
13646W        W30494   1.106  16.766  12.153  0.0217 -0.0083 -0.0733
13647W        W30495  17.161   3.557   4.837 -0.1476  0.0926  0.1571
13648W        W30496   5.928  17.074  15.887 -0.1004 -0.3122  0.0478
13649W        W30497  14.325  10.476  15.116 -0.1223  0.0422  0.0005
13650W        W30498   4.718  13.029   1.472 -0.0498 -0.0114 -0.1638
13651W        W30499   1.491   8.715  12.677 -0.2171 -0.4442  0.3624
13652W        W30500   3.588   7.045   4.886  0.0558  0.1866 -0.0904
13653W        W30501  15.551  10.167   4.977  0.0223 -0.0035  0.0604
13654W        W30502  16.750   9.498   1.714 -0.4678  0.2960  0.0475
13655W        W30503   1.985  14.617   0.418  0.0186  0.2798  0.3377
13656W        W30504  17.234  16.916  15.485 -0.2186  0.1903  0.2144
13657W        W30505   5.896  12.649  14.428  0.0201 -0.0670  0.2682
13658W        W30506  14.494  14.143  15.060 -0.1223  0.1635  0.0921
13659W        W30507  13.827  11.829   1.480 -0.0197  0.2653 -0.3381
13660W        W30508   3.241   7.936  12.405  0.1737  0.0472 -0.1389
13661W        W30509   2.180  10.929   1.549 -0.0379 -0.2759  0.2080
13662W        W30510   2.370  12.152  12.686  0.3436 -0.1280 -0.0632
13663W        W30511   4.155   6.531   4.954 -0.0790 -0.1854 -0.0042
13664W        W30512  17.210   3.660   2.492 -0.1676 -0.0666 -0.0670
13665W        W30513  13.256  13.974   0.131 -0.2309  0.4068  0.2333
13666W        W30514  16.818   7.029  14.247 -0.0609 -0.0146  0.4872
13667W        W30515  17.849  11.854  12.893  0.0079  0.0164  0.3232
13668W        W30516  16.705  17.410  14.140  0.1849  0.1250 -0.0503
13669W        W30517  16.762   3.825   6.105 -0.1917  0.0976 -0.2952
13670W        W30518   6.895   2.878  16.146  0.1453  0.2248  0.1741
13671W        W30519   8.955   4.944  16.166 -0.1996  0.0741 -0.1221
13672W        W30520  13.407  17.328  11.387  0.0222  0.2028  0.1529
13673W        W30521   6.332  14.467  11.888  0.0396 -0.0970 -0.0201
13674W        W30522  17.555  11.525   1.990 -0.0473  0.1112 -0.2826
13675W        W30523   7.645   9.953  16.032  0.0344 -0.1997  0.1281
13676W        W30524   3.035  16.674   1.659 -0.2612 -0.1053 -0.0138
13677W        W30525  17.389   2.672  10.243 -0.0619 -0.0716  0.0548
13678W        W30526  12.514   1.032   0.740  0.1192 -0.2010 -0.1860
13679W        W30527   7.415  13.615   5.024 -0.0592 -0.2299 -0.0967
13680W        W30528   2.591  15.183  12.369 -0.3630  0.1212 -0.2200
13681W        W30529  10.196   5.824  12.354  0.1229 -0.3009 -0.2928
13682W        W30530  14.129  17.268  15.804  0.3620 -0.0037 -0.0110
13683W        W30531   9.712   1.330   0.376 -0.2280 -0.3144  0.3429
13684W        W30532  15.795   5.683   3.438 -0.1950 -0.0147 -0.3879
13685W        W30533   5.825  14.219  11.116  0.4395  0.2629 -0.2825
13686W        W30534   6.233  10.715   4.913 -0.0203  0.1257 -0.3200
13687W        W30535   8.489  17.622  15.505 -0.1116 -0.2129  0.0404
13688W        W30536  13.962   0.475   0.054  0.2080  0.1634 -0.3657
13689W        W30537   6.506   3.200   1.427 -0.0145  0.0511  0.1548
13690W        W30538  10.304   1.047   1.053  0.0377  0.0354  0.0915
13691W        W30539   3.143  17.020  11.306 -0.0618 -0.1594 -0.1904
13692W        W30540   3.273  15.063   2.765  0.0008 -0.1372 -0.0879
13693W        W30541   6.683  10.979  11.459  0.1434 -0.0888  0.0865
13694W        W30542  11.902  16.415   3.483  0.2707 -0.1891 -0.3991
13695W        W30543   7.351   3.102  16.086 -0.2578 -0.0330 -0.0390
13696W        W30544   3.840   0.645   0.958  0.0692  0.0730  0.1785
13697W        W30545   2.433  12.287  16.100 -0.2554  0.2340 -0.1062
13698W        W30546  14.562   7.436   1.355 -0.2576  0.2390 -0.1728
13699W        W30547  16.181   5.324   4.176  0.2016 -0.0484  0.0844
13700W        W30548   0.231  11.842  15.659  0.1396  0.0769 -0.1340
13701W        W30549   0.660   7.911  16.118 -0.2135  0.0945  0.0732
13702W        W30550  17.515  15.582  11.609  0.1488 -0.1393  0.0651
13703W        W30551   6.321   8.729   3.793 -0.0744 -0.0168  0.2864
13704W        W30552  12.303   9.752   3.268 -0.0925  0.0917  0.4278
13705W        W30553  17.723  13.466   2.584 -0.0905  0.0898 -0.1530
13706W        W30554   0.771  14.386   1.962 -0.0813 -0.1870  0.2552
13707W        W30555   7.679  16.997   2.315 -0.3348  0.0861  0.0431
13708W        W30556   4.197   6.190  16.090  0.1980 -0.0066 -0.1427
13709W        W30557   5.888  10.878   2.427 -0.3360 -0.0353 -0.3418
13710W        W30558   8.205   0.835  12.093  0.1318  0.0651  0.0093
13711W        W30559  11.190  10.368   4.460 -0.0884 -0.0338 -0.1925
13712W        W30560   0.301   5.133   2.893 -0.1777  0.0981 -0.3073
13713W        W30561  12.254  14.809  12.424 -0.1357  0.7808 -0.1649
13714W        W30562   0.799   4.098   5.384 -0.1608  0.0580 -0.1417
13715W        W30563   1.390   1.710   0.041  0.0827 -0.2661  0.0760
13716W        W30564   7.912   8.506  15.449  0.1015 -0.3126 -0.0239
13717W        W30565   7.823   8.222   2.917 -0.1735 -0.1890  0.2528
13718W        W30566   4.354   5.635  15.952 -0.0191 -0.0489  0.0691
13719W        W30567   6.854   2.068   4.039  0.0838  0.0297  0.1953
13720W        W30568  10.424  15.975   0.176  0.1219 -0.2285  0.2794
13721W        W30569   3.620   6.176  15.388 -0.1868  0.2204 -0.4156
13722W        W30570   1.489  13.325  14.168  0.1685 -0.0594  0.1226
13723W        W30571   8.255   3.241   4.499  0.0105 -0.2082 -0.0543
13724W        W30572   7.472   7.581  10.765 -0.1310 -0.0573 -0.2513
13725W        W30573  11.660   3.581   3.300  0.2150  0.1064  0.0526
13726W        W30574   0.108   1.040   3.232  0.1665 -0.0769  0.0741
13727W        W30575   5.068   4.899   3.424  0.1186  0.2748  0.0393
13728W        W30576  15.382   9.724   0.179  0.1453  0.1431 -0.0125
13729W        W30577  17.947   2.100  11.613 -0.0834 -0.0902 -0.0675
13730W        W30578   4.015   8.544  11.480  0.1053 -0.0392 -0.2272
13731W        W30579   2.558   6.056   3.085 -0.1235  0.0098 -0.2427
13732W        W30580   0.159   1.863  12.333  0.0769 -0.0701 -0.1615
13733W        W30581  16.677   4.467  13.837 -0.1893 -0.3316  0.1459
13734W        W30582  14.269  12.337   5.286  0.1043  0.0018 -0.1823
13735W        W30583   0.869  15.785  15.234  0.0076 -0.0113  0.0354
13736W        W30584   1.944   7.559   2.667 -0.1714  0.2196  0.0118
13737W        W30585  17.033  16.822   4.126 -0.1963  0.1573  0.0874
13738W        W30586   3.686   2.890   1.587 -0.2983 -0.0076  0.1868
13739W        W30587   9.587   6.854  11.811  0.1203  0.0784 -0.4392
13740W        W30588  13.868   5.644  11.738  0.1007  0.0778  0.1145
13741W        W30589  16.883  17.141  15.793  0.0089 -0.1283 -0.0255
13742W        W30590   8.171   0.259  14.852  0.2794  0.0942  0.3789
13743W        W30591  10.286  11.120  12.097  0.1627  0.2132 -0.1413
13744W        W30592  10.078  10.370   5.811 -0.2694  0.3456  0.0486
13745W        W30593  11.516   6.397  14.762  0.2093 -0.3735  0.0397
13746W        W30594  12.493  15.830   2.308 -0.0312  0.0831  0.1106
13747W        W30595   3.458   2.572   0.265 -0.0195 -0.0349 -0.0730
13748W        W30596   8.816  10.357  14.570  0.1196 -0.2753  0.1701
13749W        W30597   1.170  10.675  11.322 -0.0131  0.0546  0.1179
13750W        W30598   2.064  10.444  12.275 -0.4288 -0.0399 -0.2070
13751W        W30599  10.164   4.967  11.667  0.1631  0.1695 -0.1502
13752W        W30600   8.579   8.745   0.032  0.1404  0.0182  0.1410
13753W        W30601  14.771   9.409   4.429  0.2493  0.0172 -0.1153
13754W        W30602   3.383  14.887   4.202  0.1957  0.1525  0.0829
13755W        W30603   4.425  11.772   2.909  0.2501  0.0051  0.1548
13756W        W30604   1.960   8.622  13.419  0.1215  0.2002 -0.2804
13757W        W30605   6.446  10.284  11.614  0.2831  0.0336 -0.0775
13758W        W30606   7.573   5.746  12.141  0.2019  0.0969 -0.1660
13759W        W30607   6.683  14.969  11.281  0.0284  0.1815  0.1192
13760W        W30608  14.502   6.083  13.203  0.0203 -0.0025 -0.1468
13761W        W30609   0.574   5.149  10.763  0.0039  0.1369 -0.1041
13762W        W30610  17.693   9.456   0.809 -0.6060  0.3715  0.0492
13763W        W30611   3.080   3.488  10.457 -0.0006  0.0746  0.3030
13764W        W30612  15.993  13.730   2.610 -0.0084 -0.1394 -0.0957
13765W        W30613   8.609  16.350   4.839 -0.1800  0.3073 -0.1630
13766W        W30614   4.289  13.205   1.673  0.0236 -0.1539 -0.1456
13767W        W30615  17.248   5.410   2.403  0.2563 -0.2397 -0.1448
13768W        W30616  13.999  11.003   2.543  0.0501  0.0403 -0.1967
13769W        W30617   3.205   1.704   4.076 -0.2021 -0.2918 -0.3320
13770W        W30618   3.419   2.815  14.290  0.2046  0.0923  0.0727
13771W        W30619   7.391   4.987   2.103  0.2172 -0.0960 -0.2225
13772W        W30620   6.825   3.830   2.483 -0.1297 -0.0235  0.3535
13773W        W30621  10.482  10.447   1.538 -0.1715 -0.1358  0.0288
13774W        W30622   1.383  16.618  12.737 -0.2486 -0.3303 -0.0171
13775W        W30623  11.387  12.550   3.261  0.0934  0.2906 -0.0953
13776W        W30624   4.641   0.954   0.358  0.1383  0.2668  0.2538
13777W        W30625  17.145   0.274  12.159  0.0089 -0.2614  0.0954
13778W        W30626   4.610  15.746   3.443 -0.1113  0.0503 -0.1052
13779W        W30627   3.376  11.002   1.721 -0.0781 -0.2587 -0.1766
13780W        W30628  16.751   3.042  13.233  0.1379 -0.0981 -0.1806
13781W        W30629   3.892  13.182   2.517 -0.2365  0.2351 -0.0589
13782W        W30630  13.418   5.183  14.044  0.1246  0.1042 -0.0301
13783W        W30631   1.625   8.053   0.327 -0.0333  0.3058  0.1719
13784W        W30632  14.217   6.902  11.408  0.0297 -0.0981 -0.1600
13785W        W30633  16.386  15.620   2.699 -0.0891 -0.0317  0.2815
13786W        W30634  16.149   1.510  15.091  0.0437 -0.1010 -0.3436
13787W        W30635   6.859   4.391  13.688  0.1445 -0.1262  0.0189
13788W        W30636  15.705  17.139   2.821 -0.1028  0.1445 -0.0850
13789W        W30637   5.501  13.033   1.711  0.0086  0.0491 -0.1131
13790W        W30638   7.421   5.338  14.062 -0.3418  0.1377  0.1313
13791W        W30639   9.202  15.275   2.687  0.2953 -0.0919 -0.0175
13792W        W30640   9.163  16.027  15.160 -0.1356  0.2445 -0.2422
13793W        W30641   3.623   1.588   0.999  0.2662 -0.1319 -0.0407
13794W        W30642  17.175   9.323  11.215 -0.0742 -0.1007  0.3423
13795W        W30643   7.535  17.701   4.793 -0.0275 -0.3523 -0.2553
13796W        W30644  17.207   3.631  13.396  0.0461  0.2277  0.2294
13797W        W30645  14.809   1.962   1.391  0.0120  0.0651  0.2307
13798W        W30646  15.869   7.447  14.989  0.2104 -0.0921 -0.3710
13799W        W30647   5.426  14.886   2.354 -0.1170 -0.2460 -0.0889
13800W        W30648   8.330  15.450   1.221  0.1029 -0.0291  0.0190
13801W        W30649   4.964   3.230   0.753 -0.2323  0.2890  0.0291
13802W        W30650   5.949  14.192  11.845  0.2640 -0.1245  0.2122
13803W        W30651  15.904  10.828  15.049 -0.0197 -0.2874 -0.0305
13804W        W30652   0.174  13.969  13.124  0.0474  0.2053  0.1091
13805W        W30653  12.385   2.352  11.064  0.3320 -0.1890 -0.1846
13806W        W30654  13.203  14.589   3.229 -0.0567  0.0097  0.1700
13807W        W30655   3.988  16.666   3.155  0.1643 -0.3649  0.0186
13808W        W30656   2.723   9.143   2.713  0.1394 -0.1490 -0.1235
13809W        W30657   8.117   8.357  12.648  0.3880 -0.2424  0.1429
13810W        W30658   8.006  17.473   4.782  0.1186 -0.0132  0.0359
13811W        W30659   6.105  16.159   0.813 -0.2810  0.0929  0.2031
13812W        W30660   8.591   8.873   1.879  0.0155 -0.0063  0.3025
13813W        W30661   9.064   9.016   4.594  0.3180  0.3174 -0.0379
13814W        W30662   1.744   6.356   2.523 -0.1620  0.0507 -0.0754
13815W        W30663   3.478   8.846   1.965 -0.1863 -0.1912 -0.3686
13816W        W30664  13.545   4.040   4.867 -0.0010 -0.1189  0.1387
13817W        W30665  15.961   3.993   0.125  0.0645  0.2699  0.0316
13818W        W30666   0.714   7.783   0.504 -0.0073 -0.0371  0.1717
13819W        W30667   5.646   1.420   3.039  0.2262  0.0075  0.1761
13820W        W30668   9.935   8.680  12.637 -0.1499  0.0165 -0.2713
13821W        W30669   6.564   3.078  14.736 -0.0887 -0.3570  0.0639
13822W        W30670   8.589   3.537   3.307  0.2549 -0.2265  0.0461
13823W        W30671   8.030  14.468  15.092 -0.1632  0.0633  0.3203
13824W        W30672  10.469  16.147   4.286 -0.0654 -0.2515 -0.0466
13825W        W30673   8.219  16.636   1.952 -0.1380 -0.0079  0.2120
13826W        W30674  16.386  15.271   0.341  0.1323  0.2594  0.1096
13827W        W30675   2.113  11.625  14.596 -0.2897 -0.0136  0.2059
13828W        W30676   1.800  13.786  15.507  0.0440  0.1684 -0.3539
13829W        W30677  15.804  12.323  12.225 -0.1360  0.1304 -0.3742
13830W        W30678   3.521  11.230   1.202 -0.0106  0.2398  0.0367
13831W        W30679  12.134   1.262  13.682  0.0990 -0.0054  0.1323
13832W        W30680   3.840   2.239   3.355  0.0471 -0.0304  0.1202
13833W        W30681  14.531   0.151   1.391 -0.0376 -0.0878 -0.0030
13834W        W30682   3.366   1.770  11.818 -0.0430 -0.1827 -0.2111
13835W        W30683  16.882   3.397  15.962 -0.0824 -0.2521  0.2770
13836W        W30684   4.692  10.813  12.421 -0.1803 -0.0895 -0.1317
13837W        W30685  17.931   3.648   1.515  0.2299 -0.3291  0.2802
13838W        W30686  14.819  14.573   4.480 -0.1431  0.0425 -0.3040
13839W        W30687  11.623  12.130   0.401 -0.1003  0.0257 -0.0530
13840W        W30688  10.608   8.668   3.977  0.2314  0.1859  0.0037
13841W        W30689  10.409   1.892  12.532  0.1623 -0.1176 -0.0531
13842W        W30690  15.538  17.452  11.293 -0.0929 -0.2369  0.0108
13843W        W30691  14.378  14.067   5.227 -0.0480  0.0263 -0.1444
13844W        W30692   2.045  10.482   1.405 -0.1836 -0.2054  0.1015
13845W        W30693  17.039  16.715  12.283  0.0265 -0.1854 -0.2678
13846W        W30694  13.647  14.322  12.057  0.3293 -0.2393  0.1672
13847W        W30695  13.035  13.780   4.270  0.2452 -0.1141  0.2372
13848W        W30696   7.775  15.942  11.363  0.2015 -0.0973  0.0224
13849W        W30697  11.484  15.996  12.053 -0.1725  0.1855  0.0176
13850W        W30698   8.127   8.533   5.421 -0.1372 -0.2786  0.0956
13851W        W30699   1.511   9.695  15.630 -0.0105  0.2434  0.0762
13852W        W30700   8.043   5.546   0.245 -0.1457 -0.1006  0.0977
13853W        W30701   8.428  17.975   3.613  0.1473 -0.0031 -0.0112
13854W        W30702  17.765   8.386   0.773  0.1133 -0.1244  0.0410
13855W        W30703   7.236  13.148   1.980  0.0480 -0.0696 -0.1441
13856W        W30704  17.410   3.591   4.149 -0.0109 -0.1977 -0.3897
13857W        W30705  16.393   5.099  14.583  0.0077  0.1304  0.0469
13858W        W30706   9.584   1.088   1.609  0.1160 -0.0887 -0.0615
13859W        W30707   7.645  12.710   3.927 -0.0652 -0.1668  0.3222
13860W        W30708   7.088   7.109   0.715 -0.0690 -0.0345 -0.2224
13861W        W30709  15.420  10.057   3.249  0.0601  0.4722  0.2918
13862W        W30710  12.750   2.086   4.015 -0.0956  0.0013  0.3925
13863W        W30711  17.383   4.499  16.096  0.2705 -0.0593 -0.1292
13864W        W30712  13.096   7.296  12.137 -0.0440 -0.0354 -0.0112
13865W        W30713   8.894   8.444   4.741 -0.2934 -0.1487 -0.2998
13866W        W30714   3.522  10.545  11.376 -0.2925 -0.3301  0.0242
13867W        W30715  17.840   5.883  11.943  0.1486 -0.0862  0.0191
13868W        W30716   6.614   2.896   0.972 -0.1575  0.0299 -0.0203
13869W        W30717   5.359   9.071   0.293 -0.2631  0.0106 -0.0467
13870W        W30718   2.221   0.224  11.783 -0.0179 -0.1228 -0.0643
13871W        W30719   5.833   7.996   4.060  0.0917 -0.2095  0.2041
13872W        W30720   0.347  12.831  13.727  0.3243 -0.0608 -0.3949
13873W        W30721  10.560  14.331   3.226 -0.1487 -0.1745  0.1046
13874W        W30722  13.831  15.995  14.687  0.2294 -0.0085  0.2512
13875W        W30723  15.253  12.671   1.092  0.3323  0.2817  0.0330
13876W        W30724   3.336  16.168  14.266  0.2207  0.1010 -0.1568
13877W        W30725   4.734   5.904  11.374  0.1684 -0.0760 -0.0749
13878W        W30726  12.097  11.858  14.610  0.2820  0.3081  0.2133
13879W        W30727  16.058  17.763   1.921  0.3293 -0.0077 -0.1034
13880W        W30728  11.602  11.376  15.201  0.2839  0.0620  0.2928
13881W        W30729   4.680   5.552   2.487  0.1586  0.0594 -0.0300
13882W        W30730   6.696   7.843   0.007  0.1350 -0.1400  0.1676
13883W        W30731   8.666   4.632  13.841  0.1539  0.0853  0.1385
13884W        W30732  15.727   1.571  11.209 -0.1956  0.0467  0.0836
13885W        W30733   3.560   9.995  13.849  0.1063 -0.1739  0.0290
13886W        W30734  17.167  10.828  14.745 -0.1362 -0.1127  0.0866
13887W        W30735   9.482   9.316   1.136  0.1308 -0.0270 -0.1832
13888W        W30736   4.229  17.607  15.860  0.3434 -0.1244  0.0830
13889W        W30737   5.268   5.320  15.202  0.1853  0.2524  0.3032
13890W        W30738   4.244  18.048   1.674  0.0665 -0.1450 -0.0762
13891W        W30739   4.832   0.344  16.194 -0.0983 -0.0234  0.0399
13892W        W30740  10.365   5.089   0.393  0.0147  0.1193  0.1773
13893W        W30741  15.346  14.617  13.272 -0.1352  0.3471 -0.0861
13894W        W30742   1.181   0.835   3.272  0.3845 -0.0565 -0.0392
13895W        W30743  16.335   4.803  13.624 -0.1115  0.0501  0.1952
13896W        W30744  13.378  10.347  15.640  0.2126 -0.0639 -0.4808
13897W        W30745  16.657   7.270  16.061 -0.0949  0.0471 -0.1333
13898W        W30746  11.514  13.719   1.273  0.1936 -0.2017 -0.1111
13899W        W30747  14.211   2.056  15.669  0.0409 -0.2503  0.2895
13900W        W30748   2.703   9.883  12.466  0.0297 -0.0129 -0.0760
13901W        W30749  17.013  16.476  12.789  0.2891 -0.0965 -0.0081
13902W        W30750   3.821  15.469   4.315 -0.1277  0.2367 -0.0816
13903W        W30751  16.848  15.511   3.962  0.2185 -0.1362  0.0275
13904W        W30752  13.305  14.631   0.940 -0.1809  0.5463  0.0302
13905W        W30753   1.537  12.479   2.242 -0.4052  0.0670  0.3444
13906W        W30754   1.847  14.689   1.947  0.0933 -0.0607 -0.0800
13907W        W30755   9.994   5.494  16.026  0.0817 -0.0868 -0.0309
13908W        W30756   4.221   2.248  14.615 -0.0325  0.1084 -0.1859
13909W        W30757   0.229  14.159   0.318  0.1823 -0.0682 -0.2878
13910W        W30758  17.937   0.336  12.746  0.0589  0.4180 -0.1973
13911W        W30759   2.618   5.428   5.433  0.0060  0.4406 -0.1428
13912W        W30760   9.900  15.762  12.411 -0.1823  0.0538  0.3074
13913W        W30761   6.623  12.681   5.419  0.2196  0.0621 -0.1898
13914W        W30762  16.364  14.136   1.231 -0.0192 -0.0889  0.0046
13915W        W30763  10.269   8.278  15.751 -0.0276 -0.2900 -0.0185
13916W        W30764   2.143   9.989  12.594  0.0864  0.1335  0.1640
13917W        W30765   8.373  10.210   3.396 -0.2208  0.3065 -0.4518
13918W        W30766   2.634   9.227  14.433 -0.0248 -0.0188  0.1959
13919W        W30767   3.203   2.058  16.053 -0.1317  0.2834  0.0915
13920W        W30768  17.587   1.507   2.210  0.0519 -0.0743  0.3825
13921W        W30769   0.398   5.916  13.137 -0.0880 -0.1823  0.1179
13922W        W30770  14.012   2.283  14.346 -0.0667 -0.0544 -0.2568
13923W        W30771   8.994   3.574   2.974  0.0526  0.0334  0.2884
13924W        W30772  17.386  17.195  12.402  0.2613  0.1311 -0.0602
13925W        W30773   5.311   7.203   4.006 -0.0487  0.0601 -0.0480
13926W        W30774  13.092  15.224   0.160 -0.2798 -0.1473  0.1326
13927W        W30775  10.285   5.480   0.136  0.0250  0.1471 -0.1381
13928W        W30776  13.993   4.813  12.695 -0.1193  0.1264  0.1788
13929W        W30777  11.225   8.588  13.435  0.1735  0.1027  0.1540
13930W        W30778  10.863   6.934   1.166 -0.0554  0.1441  0.0789
13931W        W30779  14.197  13.811   4.238 -0.1859 -0.2725 -0.1561
13932W        W30780  10.539   1.322   2.314 -0.1881 -0.2485  0.2609
13933W        W30781   4.566   2.445  14.931  0.0361 -0.2318  0.2989
13934W        W30782  12.526   6.819   1.531  0.1739  0.1940  0.5688
13935W        W30783   2.588   3.536   0.404 -0.0352  0.2191 -0.2055
13936W        W30784   3.566  12.790  13.181 -0.0289 -0.1356 -0.1017
13937W        W30785   3.713   2.134   2.191  0.1232 -0.5069 -0.2062
13938W        W30786   2.207   6.701   1.806 -0.0830 -0.1674 -0.1960
13939W        W30787  16.390  17.787  11.747 -0.0356 -0.0865  0.2356
13940W        W30788  16.154  17.028   3.095 -0.5514 -0.2536 -0.1766
13941W        W30789  17.035   2.683   1.399 -0.0432 -0.0607  0.0615
13942W        W30790  14.623  16.535   1.568 -0.0745  0.2074 -0.0321
13943W        W30791  13.833   4.085  15.222 -0.1310  0.0624  0.2834
13944W        W30792   2.630  16.479  12.000  0.1086  0.1178 -0.0016
13945W        W30793  11.325  14.820   3.750  0.1541 -0.0578  0.1867
13946W        W30794   2.294  11.301  10.105  0.2730 -0.2170  0.1003
13947W        W30795   2.814  13.032  14.895  0.1473  0.2261  0.0003
13948W        W30796   8.213   6.102   2.585  0.0895  0.1923 -0.2957
13949W        W30797   5.819   8.898   3.936 -0.0007  0.0936 -0.0477
13950W        W30798   4.024  10.952   1.000 -0.0410  0.0018  0.2854
13951W        W30799   4.891   7.436  13.254 -0.2132  0.2691 -0.0269
13952W        W30800   5.454   1.980  13.528  0.1631 -0.0852 -0.0977
13953W        W30801  12.872   0.493  12.221 -0.1969 -0.0687  0.0802
13954W        W30802   2.472   5.610   2.183 -0.1254  0.1805  0.0259
13955W        W30803   2.594   7.174   4.464 -0.0821  0.0356  0.0580
13956W        W30804   0.678  12.830  12.683 -0.2655  0.2274  0.1189
13957W        W30805   9.138  11.885   1.266  0.2827  0.0929  0.2808
13958W        W30806   1.259   5.957   1.601 -0.0092 -0.0041 -0.1780
13959W        W30807   1.677   6.587   1.040  0.0136  0.0266  0.1368
13960W        W30808  10.241  15.324   2.297 -0.1636  0.1562  0.0156
13961W        W30809  16.326   1.055   1.954 -0.0352  0.0729 -0.0861
13962W        W30810   2.121   6.722   2.299  0.0129  0.0872 -0.2724
13963W        W30811   4.214   6.860  13.501  0.1067  0.1944 -0.1483
13964W        W30812   5.980   5.465   3.015  0.0562  0.4318  0.1146
13965W        W30813  11.409   9.824   1.743  0.0650 -0.2098  0.1345
13966W        W30814   0.668  10.639   2.993 -0.2278 -0.2535 -0.0049
13967W        W30815   4.950  12.778  11.713 -0.6500  0.2750 -0.0728
13968W        W30816  14.679   4.035   3.683  0.1840  0.1859 -0.1047
13969W        W30817  14.174  14.460  15.395 -0.3234 -0.0879  0.1122
13970W        W30818  13.339   3.159  16.202 -0.0644  0.2902 -0.1185
13971W        W30819   9.976   9.686  14.778 -0.1145 -0.1016 -0.2810
13972W        W30820  13.502  15.243  13.728 -0.0038  0.1038 -0.3370
13973W        W30821  16.551  16.418   5.858  0.0095  0.0553 -0.0823
13974W        W30822   0.883   7.178  14.064  0.3712  0.0403  0.1431
13975W        W30823   2.027  17.802  12.413 -0.1793  0.2372  0.2593
13976W        W30824   7.901   6.595  13.468  0.1623 -0.0422 -0.0291
13977W        W30825  17.011  16.034  14.070  0.1073  0.3300  0.0027
13978W        W30826   1.076   6.338   3.894  0.1150  0.1340 -0.1157
13979W        W30827  17.267   0.633   1.932  0.0855 -0.0246  0.1592
13980W        W30828  15.715   7.864   1.006 -0.3028 -0.4100  0.1925
13981W        W30829  16.906  17.927   2.435 -0.2080  0.0731  0.0649
13982W        W30830  11.185  12.085   2.234 -0.0296 -0.2432 -0.0816
13983W        W30831   1.866   8.823  11.088  0.0796 -0.0351  0.0454
13984W        W30832  14.457   8.278  11.382 -0.2106  0.2873  0.0608
13985W        W30833  10.718  15.717   2.887 -0.4352  0.0740 -0.0901
13986W        W30834  14.537   8.875   3.218  0.0371  0.2009  0.0701
13987W        W30835  13.370   5.083  13.566 -0.1716  0.2473 -0.0400
13988W        W30836   4.581   2.160  11.403 -0.2706 -0.1000  0.0005
13989W        W30837   0.313  13.309  11.139  0.1975  0.0001  0.0439
13990W        W30838   5.464  11.434   0.961 -0.0170 -0.3231 -0.1376
13991W        W30839   0.415   1.280   5.503 -0.2438  0.0420  0.1131
13992W        W30840  14.267  13.524  12.258  0.0849  0.1262 -0.1845
13993W        W30841   5.955  13.103   0.195 -0.1527 -0.0924  0.1583
13994W        W30842   8.209   2.480   0.800 -0.1585 -0.1917 -0.1027
13995W        W30843   9.138   4.991   3.716 -0.2041 -0.0177  0.0350
13996W        W30844  16.111   2.964  10.739 -0.3921  0.0286 -0.0044
13997W        W30845   1.971  16.483  12.546  0.0087  0.1462  0.1321
13998W        W30846  10.022   8.262  14.193 -0.0413  0.0183 -0.1450
13999W        W30847  12.480  11.901  13.296  0.0079 -0.0830  0.1259
14000W        W30848  13.281  15.238   4.205  0.1085 -0.1039  0.1761
14001W        W30849  16.154   1.334   0.091  0.2199  0.0086  0.1508
14002W        W30850  14.664   7.521  15.640 -0.3318 -0.0619  0.1442
14003W        W30851  17.749   4.315  15.523  0.1207  0.1882  0.1654
14004W        W30852   6.461  11.907  12.567  0.5204  0.0101  0.0114
14005W        W30853   8.179  17.416  12.994 -0.0953  0.0908 -0.5503
14006W        W30854  11.213  13.918   5.027 -0.2192 -0.0645  0.0640
14007W        W30855   8.493   2.625   3.866 -0.1568 -0.2334  0.0455
14008W        W30856   7.511   7.856   4.290 -0.4278 -0.3245 -0.1197
14009W        W30857   1.964   4.772  15.348 -0.1531  0.2339  0.0020
14010W        W30858  17.044  13.244  10.575  0.0059  0.1717 -0.2220
14011W        W30859   9.423  16.716  14.288  0.1741  0.0610  0.1498
14012W        W30860   7.841   6.120   0.538 -0.1135  0.2049 -0.2415
14013W        W30861   7.710  13.580  15.398 -0.2738  0.1698  0.0980
14014W        W30862  15.562  15.217  15.136  0.3336  0.1758  0.1853
14015W        W30863  14.154   5.642   2.188 -0.0283 -0.1295 -0.1258
14016W        W30864  15.162  13.903   4.033  0.4173  0.0219  0.1102
14017W        W30865  12.601  11.121   3.801  0.0838 -0.1337  0.0018
14018W        W30866  16.668  13.478   3.712 -0.3869 -0.2386  0.2371
14019W        W30867   8.172   2.402  10.442  0.1208  0.0555 -0.0246
14020W        W30868   0.704  16.615   4.386 -0.0846  0.0289  0.1416
14021W        W30869  14.025  17.911  12.722 -0.1145 -0.0297 -0.0802
14022W        W30870   2.572   9.168  11.520 -0.0982  0.2041  0.0289
14023W        W30871  17.994   4.983   0.779 -0.0452  0.0612 -0.3645
14024W        W30872   7.110  10.267  12.983  0.1263 -0.0651  0.0540
14025W        W30873   5.780  12.531   2.126  0.0741  0.0413  0.0983
14026W        W30874  12.192   0.129  14.720  0.2942  0.1268 -0.1585
14027W        W30875  11.508  15.650  11.634 -0.2153 -0.1261  0.1778
14028W        W30876  11.282  11.842  12.247  0.2807 -0.0640  0.1025
14029W        W30877  11.417   7.554   1.276 -0.3688 -0.0444 -0.1097
14030W        W30878  10.381  12.969  12.921 -0.1515  0.3685  0.0797
14031W        W30879   8.019   5.160  11.710  0.2969 -0.2556  0.0725
14032W        W30880   7.947   1.536   3.810  0.1240  0.1088  0.0395
14033W        W30881   6.828  15.337  15.422  0.1800 -0.1095  0.2104
14034W        W30882   6.287   7.556   2.323  0.2604  0.1803  0.0175
14035W        W30883  13.920  10.519   2.613 -0.1482 -0.1052 -0.0097
14036W        W30884   8.583   0.062  11.816 -0.0520  0.3629  0.3069
14037W        W30885  17.447  12.821  14.263  0.0560  0.1501  0.3048
14038W        W30886  10.853   7.017   1.682  0.1082  0.1454  0.2116
14039W        W30887   7.607  11.545   2.512  0.1833  0.2614 -0.2508
14040W        W30888   9.466   2.350  14.464  0.1174 -0.0142 -0.2616
14041W        W30889   8.677  16.943  11.304  0.1366 -0.1298  0.0153
14042W        W30890   2.538  14.196  15.918 -0.4428 -0.2093  0.0805
14043W        W30891   4.056   3.966  12.539 -0.1369 -0.0113  0.1485
14044W        W30892   3.341   6.468  12.742 -0.0729 -0.0644 -0.2638
14045W        W30893  16.171  11.942  12.011 -0.3271  0.0064  0.1611
14046W        W30894   0.856   0.162  13.301  0.0191 -0.1012  0.1482
14047W        W30895  12.158   2.831  11.521 -0.1488 -0.3819  0.0924
14048W        W30896   0.304   8.804   1.635 -0.3096 -0.0656  0.2027
14049W        W30897   9.147   2.458  10.814 -0.1518 -0.0405  0.1777
14050W        W30898   4.447   0.919   2.070  0.0470 -0.2478  0.2100
14051W        W30899   8.660  17.259   4.210  0.0242  0.2180 -0.1577
14052W        W30900  16.917  12.306  11.471  0.3111  0.1144  0.0205
14053W        W30901  16.732  11.610   9.966  0.0436  0.0158 -0.0809
14054W        W30902  14.414  10.078   0.223 -0.1350  0.1026 -0.2546
14055W        W30903   5.298   8.340   3.263 -0.1091 -0.0401 -0.1741
14056W        W30904  15.730  13.966  14.715 -0.2565 -0.0947 -0.1897
14057W        W30905  14.244  12.959   3.443 -0.0510  0.1422  0.0163
14058W        W30906  11.276   4.252  11.694 -0.1520 -0.1983 -0.1762
14059W        W30907  12.988   8.089  13.400  0.1506 -0.0599 -0.1117
14060W        W30908  15.224  13.337  12.055  0.2224  0.0165  0.4326
14061W        W30909   1.722   6.099   1.398  0.1541 -0.1503  0.1945
14062W        W30910   2.933  17.206   1.800  0.1933 -0.0522 -0.2499
14063W        W30911   7.946  16.284  12.177  0.2134  0.2978 -0.3265
14064W        W30912   5.110  12.094  10.561  0.2765 -0.1579 -0.3135
14065W        W30913  11.359   7.362  12.046  0.0650  0.0989  0.2238
14066W        W30914  15.337  17.909   4.950 -0.2204  0.0095  0.1105
14067W        W30915   1.521   5.600  13.985  0.1099 -0.1071  0.0811
14068W        W30916  12.757   9.195  12.191 -0.2926  0.0821 -0.1780
14069W        W30917   5.682   4.347  13.988 -0.3100 -0.3487  0.3255
14070W        W30918   7.431   3.748   4.557 -0.0534  0.4440  0.0035
14071W        W30919  15.866   3.143  11.526  0.2140  0.0733  0.0658
14072W        W30920   2.771   3.257  15.000 -0.2371 -0.2408  0.1008
14073W        W30921  16.570  16.220   3.279 -0.1134 -0.1635 -0.2207
14074W        W30922  16.679  11.836   2.593  0.0388 -0.2306 -0.0135
14075W        W30923   6.846   2.998  13.429 -0.0796 -0.4285  0.0423
14076W        W30924   6.913   2.319  14.292 -0.0946  0.0014  0.2251
14077W        W30925   8.425   6.793  11.313 -0.0094 -0.2787 -0.0457
14078W        W30926   0.080   8.295  15.774 -0.3381 -0.1729  0.1259
14079W        W30927  15.904   1.209  10.645 -0.1310 -0.0032 -0.1163
14080W        W30928   0.348  17.769   0.746 -0.1391  0.0353 -0.1711
14081W        W30929  11.787   2.680   5.598  0.0953 -0.0494  0.1510
14082W        W30930  15.384  14.278  14.022  0.1676 -0.0303  0.1085
14083W        W30931  10.273   7.560   4.983  0.0419 -0.1860 -0.0958
14084W        W30932   7.584   3.811   5.494 -0.2409 -0.0479  0.1758
14085W        W30933   7.563  16.957  13.312 -0.0567  0.1180  0.2467
14086W        W30934   8.120  11.233  15.066  0.0507 -0.1581 -0.2496
14087W        W30935   6.995   5.425   2.446  0.1386  0.2287  0.1052
14088W        W30936   2.584  12.346  15.624  0.0257  0.0061 -0.0406
14089W        W30937   0.747   9.158   1.791  0.0378  0.2218  0.0642
14090W        W30938  14.068   3.297   4.810 -0.0973 -0.0261  0.2761
14091W        W30939   1.204   7.809   0.529 -0.4615  0.2272 -0.1811
14092W        W30940   4.634  16.249  12.709  0.1142  0.0613 -0.0952
14093W        W30941  15.988   0.562   1.774 -0.1145 -0.2717 -0.2655
14094W        W30942   2.598  13.889  14.943 -0.1855 -0.1146 -0.0708
14095W        W30943  10.000   3.282   1.113 -0.0134  0.0293 -0.3447
14096W        W30944   0.949   0.492  16.125  0.2228  0.1991 -0.4955
14097W        W30945   1.386   5.562   6.072  0.0422 -0.0423 -0.0715
14098W        W30946  14.054   6.785   3.530 -0.1231 -0.0568 -0.1420
14099W        W30947  17.574  16.848  14.982 -0.1095 -0.1780  0.2842
14100W        W30948   0.199   9.910   2.674  0.3357 -0.0025 -0.0755
14101W        W30949  17.644  10.500  14.837  0.2035 -0.0420  0.2355
14102W        W30950  14.612  16.598  14.965  0.3040 -0.1824  0.3030
14103W        W30951   6.200   3.650   2.606 -0.1367  0.0830 -0.2657
14104W        W30952   0.799   6.000   1.403  0.0592  0.1559  0.0595
14105W        W30953   2.186   5.307  12.289  0.2377  0.2487  0.2171
14106W        W30954  17.946   1.312  11.344  0.1872 -0.1452  0.1818
14107W        W30955   0.033   4.565   4.084 -0.2223  0.0781  0.0259
14108W        W30956  10.341  15.389  13.265 -0.0544  0.2948  0.0707
14109W        W30957  14.338   4.994  12.386 -0.1906  0.0955 -0.0641
14110W        W30958   0.682   5.613  16.119 -0.2692  0.2058 -0.3024
14111W        W30959   6.061   7.012   2.991  0.1992  0.0165  0.2945
14112W        W30960  17.758  17.751  15.103  0.0408 -0.1896  0.0671
14113W        W30961  13.611   1.996  12.452  0.1856  0.0912  0.1607
14114W        W30962   6.459  15.749   0.216  0.0418 -0.0301  0.4246
14115W        W30963   2.535   1.865  12.202 -0.1663 -0.1210  0.1960
14116W        W30964   3.445  14.765  14.461 -0.2551  0.1515  0.0140
14117W        W30965  15.964   2.102  14.358  0.0046  0.0517  0.0303
14118W        W30966   1.793   2.288   0.602 -0.2209 -0.0459 -0.0962
14119W        W30967  15.439  10.854   3.612  0.2865 -0.0221  0.0679
14120W        W30968  14.017   3.052   0.291  0.1116  0.2701 -0.2528
14121W        W30969   2.127  14.187   2.567  0.0519  0.1866 -0.0729
14122W        W30970   7.145  12.549   3.240  0.1060 -0.3123  0.1430
14123W        W30971   8.074   1.625   2.387  0.0619 -0.0689  0.0405
14124W        W30972   8.641   3.031  12.388  0.1723  0.0746  0.0202
14125W        W30973   0.616   8.858  14.582  0.0823 -0.2818  0.1377
14126W        W30974  14.141   8.090  12.713  0.0900  0.1010 -0.2700
14127W        W30975   7.193  12.620   4.787  0.1064 -0.1650 -0.2175
14128W        W30976  16.688  16.116   0.621 -0.0347 -0.2388 -0.2437
14129W        W30977  14.184   8.943   4.984 -0.0294 -0.2248 -0.2687
14130W        W30978   3.357   2.191   3.039  0.1080 -0.1523  0.0308
14131W        W30979   9.582   8.095  11.354  0.2095  0.1192 -0.1185
14132W        W30980   0.530  13.713   4.014 -0.4285 -0.2772 -0.2285
14133W        W30981  15.364   6.355   4.738  0.0615 -0.1655 -0.0762
14134W        W30982  14.447   4.755  11.444 -0.1508  0.4311  0.4999
14135W        W30983  10.370   8.189  11.716  0.1876  0.1350  0.1370
14136W        W30984  15.662   5.770   1.038  0.1101 -0.2141 -0.3065
14137W        W30985   7.307   3.949   2.280  0.1471 -0.0422  0.3425
14138W        W30986   6.426   2.299  13.496  0.1506  0.2398  0.0359
14139W        W30987   9.552   4.155  11.902  0.0002 -0.0039 -0.3134
14140W        W30988  11.421  17.169   5.066 -0.1404  0.0366 -0.1297
14141W        W30989  17.575   0.719   0.059  0.1405  0.1116 -0.0403
14142W        W30990  11.842   5.833  13.079 -0.0327 -0.0952 -0.2351
14143W        W30991   5.955   0.728  15.385  0.2462 -0.2392  0.0888
14144W        W30992   9.991   8.039  13.651  0.0044  0.1650 -0.1750
14145W        W30993   1.021  16.014   1.061  0.2581 -0.0287  0.1255
14146W        W30994   6.395   1.345   2.224  0.0424 -0.0983  0.1882
14147W        W30995   5.339   9.869   4.571  0.3212 -0.0742 -0.0204
14148W        W30996  16.643  14.814   5.606  0.0457  0.0578 -0.0390
14149W        W30997  10.041   3.627   0.365 -0.2339  0.0528 -0.3073
14150W        W30998   0.349   3.014  15.263 -0.0562  0.0474 -0.0503
14151W        W30999  16.341   9.228  12.152 -0.2151  0.1242 -0.1320
14152W        W31000  11.581   7.402  14.798 -0.0563 -0.2071 -0.0927
14153W        W31001   7.776   3.086   3.283  0.1146 -0.2141  0.1629
14154W        W31002  10.344   0.188   0.918 -0.2705 -0.1981  0.3354
14155W        W31003  13.131  13.092  12.726 -0.0839  0.0775  0.2045
14156W        W31004  14.370  16.752  13.620  0.2064  0.1297  0.0734
14157W        W31005  10.009   9.478  15.647  0.2885 -0.0626  0.0366
14158W        W31006   4.832   1.140  15.389 -0.3251 -0.1885  0.1222
14159W        W31007   9.231   4.709  12.037  0.2670  0.0273 -0.1920
14160W        W31008  15.778  14.600   5.270  0.0987 -0.4214  0.0858
14161W        W31009   2.509  13.699   5.038 -0.1694 -0.2116  0.0281
14162W        W31010   0.554   0.577   3.696  0.0314  0.3857 -0.1065
14163W        W31011   0.205  11.451   2.821  0.1113  0.2031  0.0625
14164W        W31012   8.185   9.272  11.508  0.0386 -0.2305  0.2383
14165W        W31013   4.485  10.417  13.523  0.2188 -0.2417  0.0711
14166W        W31014  16.617  17.447   0.671 -0.1296  0.3204  0.1407
14167W        W31015   0.874  13.069  15.698 -0.1827 -0.0045 -0.3968
14168W        W31016   9.700   0.865   3.113 -0.0002  0.1178 -0.3190
14169W        W31017  16.119  14.206   0.716 -0.0794 -0.2930 -0.1113
14170W        W31018  10.985  12.207  14.786 -0.0147  0.0986  0.3012
14171W        W31019  13.007  17.042  12.007 -0.0719  0.1095  0.4715
14172W        W31020   5.455  12.365   6.597 -0.0980 -0.2218  0.1124
14173W        W31021   0.653   7.052   3.847 -0.1525  0.1533 -0.2031
14174W        W31022  13.760   9.622   2.329 -0.1070 -0.1646  0.1238
14175W        W31023  17.098   1.708  12.115 -0.0184  0.1489  0.4095
14176W        W31024  11.859  16.735  11.229  0.2468  0.0356  0.3157
14177W        W31025  13.309  14.169   1.895 -0.2819 -0.0127  0.0538
14178W        W31026  16.024   0.026   4.223  0.4649  0.2183  0.3503
14179W        W31027  11.184   4.309  13.897  0.1792 -0.1369  0.2423
14180W        W31028  17.799   2.136  11.018  0.3263 -0.1706  0.1309
14181W        W31029   4.457  11.409  12.152  0.1993 -0.2537 -0.1225
14182W        W31030  12.886   1.660  14.159  0.2761  0.1676  0.1734
14183W        W31031   0.031  13.042   3.613  0.0176 -0.2973  0.2352
14184W        W31032   2.272   2.370   1.794 -0.0542  0.1933 -0.0158
14185W        W31033  10.572  15.816  11.710 -0.1535 -0.3580  0.1408
14186W        W31034   2.312  11.492   1.711 -0.0972 -0.1089 -0.1168
14187W        W31035   5.530  15.178  11.150 -0.0408 -0.0475 -0.1638
14188W        W31036  14.734   6.857   4.220  0.0078 -0.2900 -0.1381
14189W        W31037   5.911  15.456   1.823 -0.3030  0.1804 -0.1016
14190W        W31038  14.893   0.199  13.602 -0.2901  0.0768 -0.0044
14191W        W31039  10.446   7.804  13.103  0.0151 -0.4156  0.1329
14192W        W31040   5.702   8.581  12.022 -0.2530  0.0199 -0.2112
14193W        W31041   4.276   2.014   2.237 -0.3466 -0.3874 -0.1301
14194W        W31042   2.628  10.539   0.594 -0.0271 -0.2784 -0.1306
14195W        W31043   2.661   6.492   1.882  0.3237  0.0421 -0.4249
14196W        W31044  14.584   5.861  13.895  0.0416  0.2942  0.1530
14197W        W31045  14.187  17.604   5.429 -0.1089 -0.0283 -0.0076
14198W        W31046  12.233   1.991   2.917  0.0334 -0.2246 -0.0739
14199W        W31047  11.000   0.130  11.291  0.2209 -0.0691  0.0729
14200W        W31048  12.054   7.414  12.489  0.1759 -0.0257 -0.3002
14201W        W31049  15.718   4.345  13.736  0.0588  0.2828 -0.0228
14202W        W31050   4.962  14.262  13.613 -0.1071 -0.1227 -0.2942
14203W        W31051   7.612   1.825   1.794 -0.3070  0.1252  0.1356
14204W        W31052   4.388  12.222  12.319 -0.0458 -0.1130  0.1089
14205W        W31053  17.634   7.551  14.348  0.1461 -0.0638 -0.3215
14206W        W31054  11.241   6.095  10.693  0.2787  0.1118 -0.0878
14207W        W31055   6.071   4.832  16.251  0.5030  0.2009  0.1717
14208W        W31056  17.670   1.469   0.780  0.1124  0.1030  0.0923
14209W        W31057   3.431  11.545   5.757 -0.0766  0.3184 -0.0214
14210W        W31058   6.645   6.157   1.017  0.1380  0.1572  0.1418
14211W        W31059  15.944  12.922   3.037 -0.0973  0.3471 -0.0697
14212W        W31060  16.987  16.202  15.494 -0.0195  0.0396 -0.0308
14213W        W31061   0.071  16.007  15.031 -0.1435 -0.0352 -0.0701
14214W        W31062   8.839   2.076  10.984  0.0623 -0.0478  0.2187
14215W        W31063  16.273   5.330  12.840 -0.3102  0.1757 -0.0929
14216W        W31064  16.922   5.612   1.507  0.0997  0.0290  0.2882
14217W        W31065   6.279   1.969  10.951  0.1660 -0.2009  0.0984
14218W        W31066  13.443   7.521   2.915  0.1643 -0.0900  0.0875
14219W        W31067   0.891   2.387  15.824 -0.0848 -0.1275  0.1184
14220W        W31068  10.010  12.247   2.101  0.0723  0.0542  0.1628
14221W        W31069   7.946  17.052  12.699  0.0202 -0.2692 -0.2299
14222W        W31070  13.811   2.170   1.895  0.0017  0.0726  0.0441
14223W        W31071  12.964  12.157   1.999  0.0682  0.2694 -0.0036
14224W        W31072   2.250  15.861  13.444  0.1233 -0.2729 -0.0140
14225W        W31073   6.325   3.532   1.825  0.0862  0.1091 -0.0407
14226W        W31074   7.863   9.521   1.684  0.0069 -0.0064  0.1541
14227W        W31075  17.343   2.335  12.131  0.0437  0.0166 -0.0559
14228W        W31076   3.045   4.427  11.091  0.0449  0.0036 -0.3404
14229W        W31077   1.023   2.654  15.375  0.0513  0.2463  0.0542
14230W        W31078  17.797   3.309   3.869 -0.3474 -0.0807 -0.2528
14231W        W31079   6.641   9.261   2.593  0.2885  0.0759  0.0616
14232W        W31080   4.082   6.437  12.702 -0.1711  0.2016 -0.0157
14233W        W31081  17.195   6.272   2.857  0.3536  0.0591 -0.0765
14234W        W31082   9.207  15.473   6.431 -0.0786 -0.0656 -0.3823
14235W        W31083  15.370   7.154   3.757  0.0023  0.0995 -0.1398
14236W        W31084   9.967  14.296  15.901 -0.2259  0.0630  0.1528
14237W        W31085  15.265   1.051  14.053  0.0483 -0.1661  0.1203
14238W        W31086  13.996   0.243   4.512  0.0246 -0.2892 -0.1797
14239W        W31087   5.579  13.776  11.700  0.0854  0.1397  0.2026
14240W        W31088   2.312   5.093  12.735 -0.1768 -0.2399 -0.0315
14241W        W31089   3.257   1.223  14.818 -0.2255  0.4521 -0.0362
14242W        W31090  18.000   2.441   5.263 -0.0564 -0.1215  0.4075
14243W        W31091   9.438   9.299  11.960 -0.0652  0.1770 -0.1319
14244W        W31092   7.172  11.594  13.212  0.0993 -0.0619 -0.0273
14245W        W31093  13.073  15.433  15.857  0.0417 -0.1091 -0.3707
14246W        W31094   6.763   1.887   0.681  0.0899 -0.2122  0.1147
14247W        W31095  16.471   4.910  15.905  0.0444 -0.0983  0.1695
14248W        W31096  17.163   9.867   1.038 -0.0313  0.3071  0.2078
14249W        W31097   9.868  10.752  12.166  0.0268 -0.0991  0.0255
14250W        W31098   3.325  16.443  11.490  0.0200  0.0019  0.0466
14251W        W31099   9.918   6.086   0.582  0.3659 -0.0260  0.1175
14252W        W31100  13.415   4.289  15.949  0.0445 -0.0362  0.0482
14253W        W31101  16.236   9.968   5.391 -0.0145 -0.1894 -0.0560
14254W        W31102  15.606  16.382   2.156 -0.0188  0.0502  0.1915
14255W        W31103  16.824   8.361  14.451  0.1510 -0.3246 -0.1952
14256W        W31104  13.975   6.118  14.598 -0.3030 -0.1428 -0.2691
14257W        W31105   8.556  11.946  12.126 -0.2620 -0.0745 -0.0675
14258W        W31106  13.276  12.364  11.970 -0.0592 -0.0029 -0.1972
14259W        W31107  16.113   2.522  14.594 -0.0211  0.2236 -0.2319
14260W        W31108   0.131   7.439  13.672 -0.2452  0.0699 -0.0127
14261W        W31109   8.477   3.685   4.666  0.0037 -0.0953 -0.2004
14262W        W31110   7.470   0.899  14.319  0.3727 -0.0903 -0.0355
14263W        W31111   7.509  17.764  12.718  0.2778 -0.0295 -0.0563
14264W        W31112  12.422   0.542   0.743  0.0635  0.4627 -0.3825
14265W        W31113   2.863   4.627  12.291  0.0157 -0.0267  0.1132
14266W        W31114   2.933   3.846   0.190  0.0631  0.2263 -0.0431
14267W        W31115   7.671  14.453   1.279 -0.3194 -0.0957  0.1669
14268W        W31116   0.646  10.647  14.505 -0.1160 -0.3970  0.2274
14269W        W31117   9.676   1.313  11.245 -0.2456 -0.1461 -0.2766
14270W        W31118   4.216  11.239   1.793 -0.1959 -0.1492 -0.1436
14271W        W31119  13.724   7.035  15.196  0.3322  0.1945  0.0690
14272W        W31120   7.253   7.525  15.115 -0.1632  0.1908  0.1836
14273W        W31121   6.505  12.066  14.670 -0.3967 -0.3218  0.0913
14274W        W31122   2.491   5.566   4.014 -0.0078  0.0997  0.3411
14275W        W31123  16.988  15.699  16.217  0.0273  0.0551 -0.0973
14276W        W31124   0.051   5.947   2.023 -0.0999  0.0774  0.0682
14277W        W31125  14.235   5.832   1.655 -0.4318 -0.1117 -0.0690
14278W        W31126  17.393  15.415  12.064  0.0172  0.0456 -0.1985
14279W        W31127   0.759  12.572   0.630 -0.1910  0.1212 -0.1537
14280W        W31128   6.240   5.800   4.354  0.2254  0.1297 -0.0989
14281W        W31129   6.200  13.819   2.764  0.1799 -0.5224  0.0045
14282W        W31130  11.457   5.809  11.169 -0.2237 -0.2109  0.1032
14283W        W31131  11.768   3.523   1.744  0.2135  0.1180 -0.3920
14284W        W31132   7.306  17.985   2.839  0.0189 -0.0880 -0.0629
14285W        W31133   8.955  15.479  14.454 -0.0790 -0.1368  0.2794
14286W        W31134  10.614  15.783   1.597 -0.0890 -0.0429  0.0369
14287W        W31135  10.412   0.290   2.229  0.0717  0.0541 -0.0555
14288W        W31136  15.096  16.939  16.057 -0.1633  0.0859  0.2564
14289W        W31137   7.232   9.561  15.847  0.0923 -0.1656 -0.0744
14290W        W31138   1.311   5.212  12.706  0.3186  0.0183 -0.1073
14291W        W31139  15.956   9.741  14.047  0.2675 -0.0049 -0.0715
14292W        W31140  10.327  16.540  15.765 -0.1409 -0.1423 -0.0320
14293W        W31141   9.833  14.025   0.902 -0.0990  0.1888 -0.1107
14294W        W31142   5.556   7.667   5.705 -0.0539 -0.1462  0.0795
14295W        W31143   9.499  16.222   1.364 -0.0928  0.0128 -0.0694
14296W        W31144   5.684   9.952  15.591 -0.0915  0.2107 -0.0259
14297W        W31145   5.085  15.180   2.995  0.1668  0.2181 -0.1087
14298W        W31146   3.949  13.228   4.089  0.1778 -0.2010 -0.0768
14299W        W31147   9.845   9.840  15.902  0.1324  0.3345 -0.1577
14300W        W31148   3.174   1.348   5.721 -0.0157  0.1812 -0.2629
14301W        W31149   5.718  16.864  15.381  0.0797 -0.2642  0.2074
14302W        W31150  10.523  10.492   0.570 -0.0188  0.3196  0.1508
14303W        W31151   7.500   9.087   1.938 -0.1891  0.1380  0.0490
14304W        W31152  15.826   0.108   3.123 -0.3350 -0.0085  0.3064
14305W        W31153  12.688   2.510  12.989 -0.0625  0.0235 -0.1200
14306W        W31154   4.815   1.045  11.893 -0.1938 -0.2447 -0.0301
14307W        W31155  13.083   8.211  11.103  0.2690  0.1389  0.0527
14308W        W31156   6.640  14.915   2.670 -0.1372  0.2987  0.2527
14309W        W31157   0.507   9.219  12.777  0.5286 -0.0224 -0.2897
14310W        W31158  17.322  16.521  15.259  0.3177  0.1955  0.2636
14311W        W31159   4.576   8.398   0.199 -0.0835  0.0726 -0.0995
14312W        W31160   9.084   4.383  13.661 -0.0231 -0.1795 -0.2301
14313W        W31161   4.387   0.403   0.907 -0.1794  0.2548 -0.0184
14314W        W31162   6.389  17.395  13.824 -0.3091  0.1730 -0.1635
14315W        W31163   4.592  15.531  14.977  0.0588 -0.2813 -0.0139
14316W        W31164  15.498  15.303  12.129 -0.2607  0.3500 -0.0924
14317W        W31165  13.828   9.224   3.723  0.0369 -0.0403  0.2302
14318W        W31166   8.346   7.360  12.513 -0.3623 -0.0997  0.1590
14319W        W31167  11.834  17.734   0.680  0.0165 -0.1322  0.0061
14320W        W31168  16.277   8.997   3.279 -0.0073 -0.2926  0.0531
14321W        W31169  17.696   6.902   0.517  0.1269 -0.0131  0.1326
14322W        W31170   3.327  10.022  11.663  0.2392 -0.1699  0.1018
14323W        W31171  17.316  12.864  14.827 -0.2393  0.1523 -0.0819
14324W        W31172   5.137   6.871  12.202 -0.0260 -0.2722  0.2231
14325W        W31173   1.248  10.461   1.364  0.0255 -0.1998 -0.0513
14326W        W31174  12.993   9.078  15.153  0.2635 -0.2095  0.2831
14327W        W31175   0.153   5.046   3.828  0.0407  0.1923  0.0451
14328W        W31176  13.300   0.513  13.022 -0.0763 -0.2945 -0.0576
14329W        W31177  10.669   7.447  11.214  0.1186  0.2083  0.1729
14330W        W31178   3.350  14.475   0.334 -0.0545  0.0466  0.1042
14331W        W31179  12.716   9.696   4.742 -0.2479  0.3981 -0.0654
14332W        W31180   3.828  11.038   3.548 -0.0092  0.1172 -0.0473
14333W        W31181  16.831  17.345   1.403  0.1933 -0.3751 -0.0475
14334W        W31182   9.697   3.593  14.330  0.1039  0.3261 -0.1209
14335W        W31183   8.998   5.712   4.051 -0.0544  0.4309  0.2667
14336W        W31184  12.297   8.708  12.741 -0.0445  0.1111  0.2793
14337W        W31185   3.576  10.426  12.365 -0.0270 -0.1455 -0.0604
14338W        W31186  15.834  15.069  11.294 -0.0211 -0.2759  0.0424
14339W        W31187  15.029   0.284   1.565  0.2532 -0.2169  0.0996
14340W        W31188  11.076  13.939   2.394  0.1739 -0.1910  0.0476
14341W        W31189  16.392  14.281  14.076 -0.0482 -0.2458 -0.4601
14342W        W31190  11.145  16.412  11.936  0.0920  0.5330 -0.1005
14343W        W31191   4.827  17.474   1.099 -0.2839 -0.0506  0.1962
14344W        W31192   9.539  13.379  14.348 -0.0391 -0.1377  0.2565
14345W        W31193   2.851   0.547  11.504  0.1516 -0.2196  0.0964
14346W        W31194   9.438   0.337   1.368  0.2129  0.0189 -0.3904
14347W        W31195  15.205  11.969  15.155 -0.0992 -0.1024  0.0091
14348W        W31196   8.581   5.045  13.140  0.0112 -0.0686 -0.0720
14349W        W31197  14.839   1.912  11.230  0.0299 -0.0385 -0.1493
14350W        W31198   0.798  12.702  12.193  0.1644  0.0211 -0.0129
14351W        W31199  16.790   6.659  15.189  0.0811 -0.0530  0.1014
14352W        W31200   7.614  16.420  11.231  0.3501  0.0216  0.0058
14353W        W31201   5.530  12.685   1.299 -0.1199  0.1281  0.1657
14354W        W31202  12.848  14.403   4.073  0.0787  0.2595  0.2761
14355W        W31203   1.808   0.283  10.889  0.0930  0.1389  0.0941
14356W        W31204  17.924  14.285  12.649  0.0245  0.1856 -0.0883
14357W        W31205   3.557   2.467   0.743 -0.0515 -0.1429 -0.0835
14358W        W31206   9.745  17.402  12.411 -0.1322 -0.2905  0.0604
14359W        W31207   9.453  16.380  12.951 -0.0270 -0.0734  0.1178
14360W        W31208  17.025   4.411  11.511 -0.0577  0.2207  0.1404
14361W        W31209   1.532  11.086   2.664  0.1786  0.1977  0.1420
14362W        W31210  10.735  11.903   2.461 -0.1203 -0.1605  0.0085
14363W        W31211  15.123   6.842   5.566  0.3436 -0.1920  0.0123
14364W        W31212   6.153  10.597  12.264  0.1547 -0.0691  0.3139
14365W        W31213  17.987   3.650   3.255 -0.2550  0.2187  0.1652
14366W        W31214  12.289  16.708   3.803 -0.0030 -0.0659 -0.0427
14367W        W31215  11.087   1.197   2.271 -0.0619 -0.3937  0.2640
14368W        W31216   8.144  11.077   2.888  0.0283  0.0679 -0.0717
14369W        W31217   1.705  13.053  14.524 -0.0214 -0.0038 -0.0820
14370W        W31218   3.727  12.931   0.757  0.1133  0.0348  0.3328
14371W        W31219  17.524   8.647  11.277  0.1065  0.1612  0.1531
14372W        W31220  18.046   3.786  13.865  0.0570  0.2184 -0.0548
14373W        W31221   7.735  11.946  12.804  0.1328 -0.0944 -0.1128
14374W        W31222   5.447  10.033  13.796  0.1046 -0.3799 -0.0299
14375W        W31223  16.930   2.081  16.031  0.0771  0.3220  0.2746
14376W        W31224   6.576   3.902   0.949 -0.1725 -0.0510 -0.1658
14377W        W31225  16.220   1.360   2.781 -0.1969 -0.1647 -0.0515
14378W        W31226   9.209   6.908   4.559  0.0038  0.0041 -0.1893
14379W        W31227  14.336  15.853   2.790  0.1167  0.1004 -0.1872
14380W        W31228   5.343   6.712   4.287 -0.0548  0.2138  0.1209
14381W        W31229  10.320  16.372   3.737 -0.0825  0.0605  0.1840
14382W        W31230   9.004  11.902   2.112 -0.0154 -0.1467  0.0586
14383W        W31231  15.812  11.281   1.960  0.4093 -0.4094 -0.1912
14384W        W31232  17.281   3.704  16.056 -0.0254  0.3226  0.0897
14385W        W31233   7.896  12.711  12.107 -0.2273  0.3369 -0.0274
14386W        W31234   1.428   9.764   1.409  0.1574  0.0278  0.2372
14387W        W31235  12.881   0.770  11.114  0.0355  0.0113  0.2925
14388W        W31236  17.195  10.464  11.834 -0.0993  0.0320  0.2848
14389W        W31237   9.551  11.683   4.309 -0.0298 -0.0514 -0.1560
14390W        W31238   0.601   0.632   4.277  0.0951  0.0909 -0.1399
14391W        W31239   8.338   6.106  14.634 -0.0694 -0.2023  0.4139
14392W        W31240  13.002   9.022   9.993 -0.1957 -0.1561  0.0395
14393W        W31241   9.992   6.180   4.899  0.0584  0.1878 -0.1067
14394W        W31242  15.868   5.838  11.819 -0.0973 -0.2061  0.0229
14395W        W31243   4.595   5.463  13.271 -0.1896  0.0183 -0.3597
14396W        W31244   5.636  13.541  14.393 -0.3112 -0.2796 -0.2124
14397W        W31245   9.669   0.766   1.248  0.1217  0.4019  0.0873
14398W        W31246   0.813  14.915   1.873  0.1165 -0.0793 -0.0053
14399W        W31247   6.081   2.657   5.062 -0.3435  0.1509  0.1349
14400W        W31248   7.458   1.652   1.210  0.0793  0.0830  0.0279
14401W        W31249  18.025  17.665  13.001  0.4557  0.3051  0.2710
14402W        W31250   5.303  10.200  13.362  0.0897  0.0207 -0.0886
14403W        W31251  17.836   4.507   0.560  0.0823 -0.0001 -0.1564
14404W        W31252   2.558  16.511   1.748 -0.0355  0.0603  0.0947
14405W        W31253   1.661   5.861  12.421  0.0006 -0.1122  0.0610
14406W        W31254  13.698  11.337   3.975  0.0859  0.0457  0.1449
14407W        W31255  12.460  13.725   0.616 -0.0611  0.2841  0.3787
14408W        W31256  15.096   4.801   3.909 -0.0269  0.1730 -0.1181
14409W        W31257  11.305   9.767  14.631 -0.2068  0.0467 -0.2347
14410W        W31258   4.950  13.459   3.340  0.0693  0.1642 -0.4883
14411W        W31259  11.110   3.304   0.088 -0.0769  0.0233  0.1407
14412W        W31260   8.918  14.481   0.338  0.2103 -0.2503  0.0168
14413W        W31261  13.063  17.820   3.566 -0.0670 -0.0235  0.3596
14414W        W31262  17.213  15.706  15.653  0.2400 -0.1570 -0.1033
14415W        W31263   2.321  13.907  11.070  0.1624 -0.1137 -0.0022
14416W        W31264  11.103  18.041   1.191 -0.1686 -0.0040 -0.1991
14417W        W31265  13.425  16.394  11.590 -0.0656 -0.2291 -0.0530
14418W        W31266  14.517   2.086  13.772  0.0730  0.1728  0.4322
14419W        W31267   2.019  12.782  11.357 -0.2586  0.2133  0.0569
14420W        W31268   4.653   3.982   0.922  0.0325  0.0572  0.1736
14421W        W31269   0.148   8.937   2.193  0.2105 -0.1499 -0.2103
14422W        W31270   6.413   1.675  12.627 -0.1041  0.3104 -0.4287
14423W        W31271   4.758  12.358   5.111  0.1091  0.0060 -0.0530
14424W        W31272   3.156  12.646  10.459 -0.5240 -0.1071 -0.0857
14425W        W31273   6.045  14.566   1.756  0.0056  0.2394  0.2845
14426W        W31274   2.092   2.685   2.301  0.0156  0.3053  0.2123
14427W        W31275   3.089  10.090  14.267 -0.0575  0.1669 -0.1428
14428W        W31276  13.555  12.840  11.992 -0.3788 -0.1547  0.2233
14429W        W31277  12.036   4.649  15.226 -0.2043 -0.5588  0.0091
14430W        W31278  11.462   8.638  14.302 -0.0578  0.4066 -0.1908
14431W        W31279   7.037  18.007  13.916 -0.1456  0.4739 -0.0638
14432W        W31280  10.713   9.209   1.579  0.0753 -0.1118  0.0594
14433W        W31281   2.457   1.013  15.636 -0.1290 -0.0401  0.3018
14434W        W31282  10.309   2.344  14.797  0.1051  0.0453 -0.1005
14435W        W31283   2.019   7.152   3.085  0.1880  0.2479  0.0966
14436W        W31284  15.617  15.879  15.710 -0.0071 -0.3116  0.3448
14437W        W31285  15.961   8.546  15.280 -0.4501  0.1909  0.1985
14438W        W31286   7.134  16.103   2.318 -0.0177 -0.0674  0.0771
14439W        W31287  11.687   3.797  16.124  0.3198  0.1565  0.0281
14440W        W31288   8.725   6.398   3.845 -0.3091  0.2134 -0.0444
14441W        W31289   3.399  10.377   2.892 -0.0984  0.1020  0.2694
14442W        W31290   9.276  15.933   3.681 -0.0096  0.1102  0.1067
14443W        W31291   5.912   5.895  13.983 -0.1570 -0.1234  0.0673
14444W        W31292  10.516  17.888  12.410 -0.1141  0.3031 -0.1687
14445W        W31293   5.447  12.153   2.168 -0.1185 -0.0941  0.2441
14446W        W31294  10.421   9.462  13.584 -0.3169  0.4504 -0.2752
14447W        W31295   4.128  15.765   2.532  0.1729  0.0026  0.1350
14448W        W31296   4.961   6.008   1.551 -0.2586 -0.0126  0.1578
14449W        W31297   8.044  17.318   2.469 -0.1493  0.2379 -0.0318
14450W        W31298  13.630  16.645   1.287 -0.0192  0.4588  0.3339
14451W        W31299   5.717  14.243  12.322  0.1436  0.0452 -0.1087
14452W        W31300   6.741   5.886   4.484 -0.3894 -0.1594 -0.0971
14453W        W31301   6.096  14.400   4.033  0.1918  0.0478 -0.2259
14454W        W31302  12.840   6.781  15.159  0.3443  0.0877  0.0737
14455W        W31303   3.483   6.124  14.358  0.1040 -0.0793 -0.1323
14456W        W31304  12.934  10.875   3.417 -0.1084 -0.1054  0.2589
14457W        W31305   0.850  10.679   1.072 -0.1263  0.4360 -0.1756
14458W        W31306   1.733  13.813   1.618  0.0747 -0.2148 -0.0121
14459W        W31307  17.441   3.310  13.712  0.1827 -0.2440  0.1958
14460W        W31308   3.596  14.118  13.621 -0.2013 -0.1979  0.3531
14461W        W31309  17.908  15.416  16.183  0.1609 -0.3242  0.2458
14462W        W31310   7.827   7.863  14.113 -0.1649 -0.0907 -0.0122
14463W        W31311   0.144   8.023   4.240 -0.0913  0.1388 -0.3034
14464W        W31312   7.670  17.210   5.054 -0.1330 -0.0480  0.0251
14465W        W31313   6.960   8.719   1.407 -0.0883  0.0366  0.2060
14466W        W31314   8.384   2.373  15.860  0.2081 -0.2799  0.2943
14467W        W31315  15.735   1.586  10.261  0.0341 -0.0561  0.0086
14468W        W31316   4.522  15.570   1.201 -0.0682 -0.0358  0.0654
14469W        W31317  11.297   3.953  14.291 -0.0641  0.1908  0.0790
14470W        W31318  16.720   0.883  11.434  0.0643  0.0444 -0.2350
14471W        W31319  11.644   7.759  11.170 -0.3424 -0.0236  0.1572
14472W        W31320   5.802   3.423  15.296 -0.0747 -0.1051 -0.3099
14473W        W31321  15.669   9.618   4.865 -0.1900  0.0162 -0.2234
14474W        W31322   5.812  16.306   3.870  0.3216 -0.0908 -0.1470
14475W        W31323   8.278   8.108  12.269 -0.0651  0.1882 -0.1653
14476W        W31324  15.697   2.198  11.588 -0.0356 -0.1327  0.2182
14477W        W31325  16.401  13.863   4.223 -0.0151  0.0114  0.0210
14478W        W31326  10.809   9.774  14.580  0.0603 -0.2319 -0.1874
14479W        W31327  11.233   1.925   3.074 -0.2728  0.0901  0.2609
14480W        W31328   5.956   4.073  12.950 -0.3171 -0.1688 -0.0539
14481W        W31329   4.471  14.810  15.724 -0.3242 -0.0558 -0.3405
14482W        W31330   3.865   0.523  13.457  0.0044 -0.0180  0.0694
14483W        W31331  13.230   6.551   4.629 -0.2427 -0.1349  0.0700
14484W        W31332   5.564  10.342  14.566 -0.0490 -0.2385  0.1720
14485W        W31333   2.208  15.640   0.794 -0.6248  0.2312 -0.0070
14486W        W31334  17.083   9.617   0.374  0.2843 -0.0315  0.0156
14487W        W31335   2.895   4.007  15.922  0.2979  0.5209 -0.0249
14488W        W31336   9.721   1.424  16.034 -0.2506  0.0590 -0.1304
14489W        W31337  11.600  10.332   1.962 -0.1445 -0.1391  0.0167
14490W        W31338  13.156   5.821  15.975  0.0429 -0.2352  0.1852
14491W        W31339  10.502   1.792   0.150  0.0498 -0.2156  0.4521
14492W        W31340  14.229   6.567   1.550 -0.0608  0.0693 -0.4054
14493W        W31341  13.691   8.367  14.411  0.0835  0.3015 -0.3269
14494W        W31342  13.338   7.380  14.199  0.2700 -0.2454  0.0616
14495W        W31343   9.794   5.660  12.611 -0.0081  0.2022 -0.0734
14496W        W31344   5.267   7.740   4.724  0.1089 -0.0631 -0.2992
14497W        W31345  17.847  14.143   3.971  0.1446  0.2814  0.0181
14498W        W31346   0.437   6.494   1.821 -0.1197 -0.0095  0.3134
14499W        W31347   7.223   9.295   3.447  0.2789 -0.3019  0.0218
14500W        W31348  16.805   5.630  11.624  0.0771 -0.0429 -0.4826
14501W        W31349  12.765   9.134   0.910 -0.0233  0.2453 -0.0903
14502W        W31350   3.237   5.267   4.239 -0.2239 -0.1059 -0.2365
14503W        W31351  11.431   2.686  11.281  0.0827 -0.0218  0.3841
14504W        W31352   9.403   4.226  10.792 -0.0718 -0.4053  0.0080
14505W        W31353   5.557  13.248   3.283 -0.0041 -0.1045  0.1080
14506W        W31354  17.266   2.199   0.098  0.3109 -0.0825 -0.0403
14507W        W31355   9.336   7.867  15.329 -0.1909 -0.0304  0.0318
14508W        W31356  16.898   5.356  14.562 -0.1137  0.0738 -0.2137
14509W        W31357   4.904   8.638   4.934  0.3880 -0.1245  0.1174
14510W        W31358   1.499  18.010  14.182  0.0001 -0.1871 -0.2495
14511W        W31359   5.859   6.650   3.328  0.5224  0.1769  0.0477
14512W        W31360   7.524   2.932   0.582  0.4541 -0.0402 -0.2445
14513W        W31361   9.080   1.311  13.478 -0.1001 -0.0271 -0.0656
14514W        W31362   9.273  10.295   4.854 -0.0523 -0.0814  0.0072
14515W        W31363   0.296  17.718  13.979  0.1830  0.1167 -0.1145
14516W        W31364  13.329   1.536   4.297 -0.0783  0.3149  0.0196
14517W        W31365   4.116  10.504   0.342 -0.4870 -0.1063 -0.0019
14518W        W31366  15.894  12.423  11.150 -0.0266  0.1189 -0.0255
14519W        W31367  10.118  15.191  14.104 -0.2385  0.0082  0.0558
14520W        W31368  13.283  14.369  13.547  0.1166 -0.1487 -0.2515
14521W        W31369  10.500  11.421  13.966  0.1358  0.2497  0.0491
14522W        W31370   2.976  14.616   3.433  0.0253  0.0999 -0.0687
14523W        W31371   1.971  16.550   4.480  0.0788 -0.1881  0.4378
14524W        W31372   6.288   5.176   1.168  0.2313 -0.1427  0.2466
14525W        W31373   0.893  17.296  12.250 -0.3524  0.1166  0.0674
14526W        W31374   0.645  10.811   2.464 -0.2399  0.1848 -0.4779
14527W        W31375   3.228   2.512   4.726  0.5043 -0.2276  0.0420
14528W        W31376  13.981  11.676   3.213 -0.1633  0.2189 -0.0108
14529W        W31377  17.687  10.799   3.489  0.2263 -0.0944 -0.0551
14530W        W31378  10.709  15.833   3.976 -0.2233 -0.1196  0.0259
14531W        W31379   6.390  13.400  11.694 -0.2571  0.2704  0.2532
14532W        W31380  12.420   7.892   3.031 -0.6243 -0.2701  0.0106
14533W        W31381   8.185   1.871  11.765  0.4306 -0.0619 -0.0645
14534W        W31382   8.589   7.022   1.576 -0.1745 -0.0754 -0.1738
14535W        W31383   4.613   2.636   5.185  0.0660  0.1769  0.1308
14536W        W31384   2.401   7.798   4.261 -0.3736  0.1632 -0.0374
14537W        W31385  16.161  14.584   2.961 -0.0940 -0.2208  0.0653
14538W        W31386   5.438  12.327   4.335 -0.2363 -0.2570  0.2908
14539W        W31387  15.010  15.225  14.384  0.1171  0.1484  0.0723
14540W        W31388   6.089   4.376  14.811 -0.0989  0.0716  0.0194
14541W        W31389   7.108   3.349   0.695  0.0756  0.1608 -0.2172
14542W        W31390   6.253   9.520  14.811  0.1532  0.1411 -0.1708
14543W        W31391   9.345   1.115   1.113 -0.3192  0.1758  0.0309
14544W        W31392  10.887   7.139   3.528 -0.4257 -0.2698 -0.2269
14545W        W31393  13.915  11.458   0.443  0.0180 -0.0804 -0.2775
14546W        W31394  11.042  11.788   4.743 -0.0489 -0.0470 -0.2285
14547W        W31395   1.375  16.103   0.186 -0.4188 -0.1701 -0.2492
14548W        W31396  11.552   7.867  15.451 -0.3680  0.0541 -0.0373
14549W        W31397  14.888   0.633   4.737 -0.1495  0.1078  0.1392
14550W        W31398   6.804   8.450   2.790  0.0214 -0.0777  0.2641
14551W        W31399  13.892   7.583  12.679  0.3087  0.2193  0.0156
14552W        W31400  12.875  11.786  13.702 -0.3165 -0.2040  0.0833
14553W        W31401  16.482  14.986  14.448 -0.0996  0.0842 -0.2172
14554W        W31402   5.410   9.117   3.060  0.2004 -0.0710  0.0875
14555W        W31403   7.168  12.507   2.329 -0.2522  0.0632  0.0145
14556W        W31404  11.944   3.910  12.093 -0.0153  0.1292 -0.1864
14557W        W31405   8.091   4.952  15.091  0.0934 -0.3748  0.2045
14558W        W31406   9.730  13.947  12.443 -0.3209  0.1663  0.1160
14559W        W31407   1.069  17.699   5.546  0.0087 -0.2393  0.1055
14560W        W31408   6.849  14.917   1.062 -0.0604  0.2620 -0.1726
14561W        W31409   6.867   5.164  11.959  0.1318 -0.3135 -0.0338
14562W        W31410  12.690  10.272  15.309 -0.2947  0.0740  0.0730
14563W        W31411   8.822  17.731  13.535  0.1233  0.2888  0.2051
14564W        W31412  15.393   7.389   4.230  0.0685 -0.0365 -0.2774
14565W        W31413   9.202  12.832  13.744  0.0789  0.2313  0.0384
14566W        W31414   6.129  16.697  11.991 -0.0845 -0.1463  0.0324
14567W        W31415   2.607   2.647  14.761  0.1413  0.0111  0.2707
14568W        W31416  17.367  11.928  12.681  0.2830 -0.0468 -0.2611
14569W        W31417   3.787   4.714   4.566  0.2308  0.2722  0.0809
14570W        W31418   2.379   8.319   2.550 -0.2909  0.1586  0.1274
14571W        W31419   4.549   0.878   6.333 -0.1821  0.3051 -0.0556
14572W        W31420   3.187   4.704  14.051  0.1409 -0.0858 -0.2749
14573W        W31421  12.522   9.359  15.214  0.0010  0.2535 -0.2219
14574W        W31422   6.586  14.923  14.465  0.0080 -0.3495 -0.3151
14575W        W31423   6.036   5.990   2.746 -0.1308 -0.1552  0.0430
14576W        W31424  12.367  10.022   0.175 -0.0258  0.1751 -0.0053
14577W        W31425  14.611  17.405  14.010  0.1611 -0.2579 -0.1104
14578W        W31426   4.916  14.705   3.084 -0.4067  0.0166  0.1019
14579W        W31427   7.898  11.725  14.851 -0.2243 -0.0060  0.1710
14580W        W31428   7.049   4.665  14.791  0.1948 -0.0422 -0.2274
14581W        W31429  15.226   1.637  12.735 -0.0622 -0.0092 -0.1555
14582W        W31430   6.957   4.567   2.859  0.2042  0.0046  0.1062
14583W        W31431   1.369   2.724   5.104 -0.0789 -0.1002 -0.1610
14584W        W31432  16.732  10.273   1.531 -0.0783 -0.2590 -0.2024
14585W        W31433  13.580   2.941   1.374 -0.4834 -0.2098 -0.0387
14586W        W31434   9.964   5.477   3.901  0.1583  0.0440 -0.1580
14587W        W31435  13.315  16.631  13.317  0.2032 -0.2006  0.1912
14588W        W31436  15.681  13.214   1.252  0.6246 -0.2953  0.1133
14589W        W31437  17.438  10.498  12.281 -0.0417  0.1598  0.0185
14590W        W31438  17.261   6.178   4.530  0.1166 -0.4640  0.1755
14591W        W31439  10.850  14.786   4.661  0.0304 -0.0740  0.3461
14592W        W31440  17.143  12.834   1.589 -0.1453 -0.4795  0.1231
14593W        W31441   8.923   3.970   5.074  0.1218 -0.2604  0.3064
14594W        W31442  10.666   4.224  11.539 -0.2662 -0.1806  0.2084
14595W        W31443  17.011   0.982   0.932 -0.1170  0.2210  0.3310
14596W        W31444   5.832   5.795   1.884  0.2799  0.0970 -0.1178
14597W        W31445  10.278  12.914   3.227 -0.1421 -0.0804 -0.0912
14598W        W31446   9.385  12.728   0.356  0.1494 -0.4164  0.4740
14599W        W31447   5.381  15.391   2.552 -0.2300 -0.0044 -0.2041
14600W        W31448  17.196  16.308   4.198  0.0184  0.0134 -0.0409
14601W        W31449  14.778  10.782  10.101 -0.0012 -0.0738  0.0897
14602W        W31450   0.866   7.491  15.006  0.2192 -0.0253  0.2804
14603W        W31451   2.896   0.747  15.475  0.2840 -0.0945 -0.1930
14604W        W31452   1.844   5.438  15.854 -0.1907 -0.3212  0.0867
14605W        W31453   8.597   0.113  15.649  0.3374 -0.2127 -0.0384
14606W        W31454  17.335   7.492  13.331 -0.1767  0.0755  0.1038
14607W        W31455  10.600   4.768   1.134  0.0228  0.1136 -0.1258
14608W        W31456  14.440   1.814   2.298  0.1609  0.0326  0.3366
14609W        W31457  12.060   1.749  12.332  0.2277 -0.1737 -0.0615
14610W        W31458  12.960   1.193   1.337 -0.2441  0.2265  0.1433
14611W        W31459   6.020   0.511   5.321 -0.2458 -0.0979  0.0139
14612W        W31460   0.165  14.857   4.505  0.2436 -0.3986  0.1985
14613W        W31461   7.659   1.688  14.434 -0.2311  0.1123  0.0456
14614W        W31462   7.442  17.375   3.140  0.4473 -0.2585 -0.3048
14615W        W31463   9.844   6.724   4.411 -0.0260 -0.3112  0.2856
14616W        W31464   9.980   8.705  11.024  0.3205 -0.1104  0.3639
14617W        W31465   6.468  10.735  11.918 -0.0917  0.0429 -0.0772
14618W        W31466  14.684  15.231   3.233 -0.1336  0.0971  0.1253
14619W        W31467  17.996  15.119   1.879 -0.1190 -0.2274 -0.1167
14620W        W31468  17.182   1.057   1.413  0.1204  0.1094 -0.0806
14621W        W31469   6.937   7.028   2.035  0.3611 -0.4057  0.0374
14622W        W31470  17.484  14.385   1.379  0.0783  0.0051 -0.0139
14623W        W31471   3.487  14.009  14.910  0.0449 -0.0998 -0.0142
14624W        W31472   5.948  17.851   4.621 -0.1507  0.0194  0.2338
14625W        W31473  11.802   1.321  12.378 -0.0266 -0.0667 -0.2863
14626W        W31474   1.935   0.303  12.478  0.1637 -0.3163 -0.0114
14627W        W31475   3.199  13.667  12.852  0.0868  0.0634 -0.1836
14628W        W31476  13.013   1.257  14.638  0.1434 -0.1639  0.1099
14629W        W31477   2.363   3.224   0.719  0.0296 -0.0463  0.2794
14630W        W31478  13.489   6.465  11.610 -0.2578  0.2608  0.1705
14631W        W31479  16.300   4.722   3.719  0.0234  0.0980 -0.0467
14632W        W31480   3.546   1.792   3.672 -0.1341  0.1543  0.0253
14633W        W31481  16.289   8.057   1.785 -0.0499 -0.0106  0.0111
14634W        W31482   0.188   8.838   3.402  0.0860  0.0417  0.1006
14635W        W31483  10.840   7.601  12.153 -0.2442 -0.0122 -0.1008
14636W        W31484   6.173   3.900  14.424 -0.0306  0.0835  0.2965
14637W        W31485   7.481  12.701  11.831  0.0109 -0.1687  0.1593
14638W        W31486  12.893  12.015  14.844  0.0302 -0.0054 -0.1008
14639W        W31487   9.349   4.701  15.925  0.1307  0.2288  0.2527
14640W        W31488  17.601   2.194   0.472  0.1695  0.0281 -0.0219
14641W        W31489  17.520  17.801  14.604 -0.1374  0.0918 -0.0269
14642W        W31490  16.618   6.866   3.245 -0.0098 -0.0265 -0.2259
14643W        W31491  17.705  17.659  11.928 -0.2778 -0.0212 -0.0018
14644W        W31492   4.860   1.941  13.761 -0.0780 -0.0859  0.1131
14645W        W31493   2.264   8.992  12.589  0.1704 -0.1150 -0.2190
14646W        W31494   6.190  12.597   0.834 -0.0629  0.0303 -0.0489
14647W        W31495   6.487  11.479   5.362 -0.0807  0.0960 -0.0720
14648W        W31496   6.900   1.872   0.181  0.3278 -0.0624  0.0469
14649W        W31497  14.183   3.070   1.181 -0.0918  0.2368 -0.0207
14650W        W31498   2.039   1.565  15.544 -0.3046 -0.1386  0.0015
14651W        W31499  13.640   7.246   0.737 -0.0003 -0.1081 -0.1638
14652W        W31500   9.437  11.596  11.314 -0.1811 -0.0286  0.0542
14653W        W31501  14.390   1.796  12.934 -0.2125 -0.2944 -0.2068
14654W        W31502   1.981   2.552  15.460 -0.1360 -0.3019  0.3855
14655W        W31503  14.004  12.345   1.568 -0.1024  0.3519 -0.3234
14656W        W31504  13.117  14.075  13.968 -0.0049  0.0571  0.1423
14657W        W31505   3.451   7.343  13.188 -0.1180 -0.1197 -0.0357
14658W        W31506  15.665  11.007   4.095 -0.0478  0.1618  0.4230
14659W        W31507  16.962  10.182   3.913  0.1135 -0.0508  0.0452
14660W        W31508  14.931   5.327   1.493 -0.1585 -0.0967  0.0558
14661W        W31509  16.192  10.101   1.246  0.0487  0.2287  0.0892
14662W        W31510  13.792   2.417   1.434 -0.3611 -0.0071  0.2472
14663W        W31511   8.382   9.248   4.418 -0.0501  0.2525  0.1224
14664W        W31512  17.766   3.265   4.378 -0.1429  0.1283  0.0517
14665W        W31513  17.652  14.493   2.627  0.2822  0.0909  0.0181
14666W        W31514   6.665   5.580  12.824 -0.2180 -0.1696 -0.0272
14667W        W31515   0.263   8.036  11.134 -0.1416 -0.1684 -0.0380
14668W        W31516  13.907   5.144   3.414  0.1341 -0.2777 -0.0708
14669W        W31517   2.668   6.734  16.266  0.2240 -0.0511  0.3545
14670W        W31518   5.218  15.164   3.913 -0.1491  0.1885 -0.1248
14671W        W31519  13.463  10.404   3.194  0.1768 -0.0197  0.0036
14672W        W31520   0.437   2.609   0.917  0.3390  0.2712  0.0809
14673W        W31521   4.849   6.963  14.563  0.1551 -0.1830 -0.0064
14674W        W31522   2.244   0.115  12.884  0.3289 -0.1699 -0.4643
14675W        W31523  13.514   2.767   0.248 -0.1772 -0.2321  0.2742
14676W        W31524   1.865   2.378   3.876  0.0519 -0.0360 -0.0898
14677W        W31525   7.236  17.354   4.181  0.4102  0.0637 -0.3853
14678W        W31526  11.743   1.517   0.582 -0.0330 -0.5348  0.0235
14679W        W31527   5.978  16.479  15.195 -0.0794 -0.3236 -0.0152
14680W        W31528   0.688  15.673  13.528  0.0778 -0.1165  0.2108
14681W        W31529  14.071   7.399   3.999  0.1951  0.1839  0.0979
14682W        W31530   3.376  12.218  10.093  0.1085  0.0731  0.1217
14683W        W31531   8.169   4.227  15.373  0.1025  0.1719  0.0375
14684W        W31532   5.522   0.515   2.800  0.2024  0.1289 -0.0438
14685W        W31533   7.488  17.713  15.277 -0.2673  0.0707  0.1137
14686W        W31534  14.525   1.251   4.038  0.0956 -0.3772 -0.2530
14687W        W31535   2.574   2.969   4.102  0.1788  0.1361  0.0994
14688W        W31536   0.424  13.511   0.429  0.3217 -0.0830 -0.1581
14689W        W31537   2.933   7.291  13.046 -0.1271  0.0774  0.0858
14690W        W31538   1.143  12.557   0.297  0.2595 -0.0518 -0.3115
14691W        W31539  12.629  16.105   0.506 -0.0012  0.0390  0.1710
14692W        W31540   1.766   8.926   2.930  0.2462 -0.3496 -0.0426
14693W        W31541   7.164   2.763  15.212  0.1188  0.2616  0.2337
14694W        W31542  14.719  16.260   4.882  0.2125 -0.2254 -0.0012
14695W        W31543   0.401   1.816  15.407 -0.1036  0.0257 -0.1734
14696W        W31544   7.271   5.261   2.821 -0.1026 -0.0156 -0.1315
14697W        W31545  10.950   9.981  15.052  0.0383 -0.1478 -0.4453
14698W        W31546  10.853   9.470   3.495  0.0727  0.1498  0.3994
14699W        W31547   7.811  11.306  14.620 -0.0783 -0.1041  0.0857
14700W        W31548   8.269  13.389  14.165  0.0145 -0.0908 -0.0918
14701W        W31549   0.609   5.552   2.675 -0.2037 -0.0071  0.4171
14702W        W31550  16.186  10.229   4.561  0.1208  0.2642  0.1881
14703W        W31551  12.567  11.841  14.365  0.2310 -0.0277 -0.3442
14704W        W31552   3.829   2.366   1.695  0.2890 -0.1192 -0.2237
14705W        W31553  17.888   7.992  11.708 -0.1745 -0.1682 -0.2372
14706W        W31554  13.757  12.600   1.167  0.0066 -0.2382 -0.0599
14707W        W31555   8.484  11.814  15.706 -0.1889  0.1983  0.0320
14708W        W31556  17.549  15.979  15.883  0.0286  0.1029  0.2012
14709W        W31557  11.339   7.387  13.219 -0.3177  0.4585  0.1447
14710W        W31558  17.574   0.738   1.533 -0.1246 -0.0403 -0.1629
14711W        W31559  13.820   4.802  13.596 -0.1785  0.2685 -0.0785
14712W        W31560  10.098  17.049   0.107  0.0532 -0.1552  0.2733
14713W        W31561  10.644  15.630   2.088  0.1753  0.1300 -0.0599
14714W        W31562   6.153   5.049  10.853 -0.1885  0.3648  0.0527
14715W        W31563   9.708   0.487  14.821  0.0055 -0.3306  0.1630
14716W        W31564  11.865  16.213   1.013 -0.1774  0.2129 -0.0088
14717W        W31565  13.611   3.449   4.539 -0.5010  0.0614  0.1802
14718W        W31566  12.294   2.095   4.499  0.1087  0.0599 -0.1337
14719W        W31567   6.973   6.151  11.749  0.2058 -0.1408  0.0120
14720W        W31568  11.835   4.227   2.050 -0.2121  0.1662  0.2092
14721W        W31569  17.438  13.837  11.954  0.1073 -0.3093 -0.1971
14722W        W31570  14.207  13.087   2.908  0.2570  0.0098  0.0965
14723W        W31571   7.083  14.138   3.923  0.1398 -0.1571 -0.0157
14724W        W31572  16.864   6.169   0.299 -0.0240  0.0071  0.1999
14725W        W31573   0.235   0.027   1.576 -0.3409  0.0256 -0.0539
14726W        W31574   7.705   1.558  12.053  0.3641  0.1625 -0.0368
14727W        W31575  14.476  12.466  12.286 -0.0925  0.2479 -0.0430
14728W        W31576   0.460  15.762   3.431 -0.1347 -0.1763 -0.0320
14729W        W31577  13.155  12.536  11.445  0.1406  0.1867 -0.0497
14730W        W31578  17.881   7.235   3.549  0.1997  0.2215 -0.0585
14731W        W31579   7.412  16.786  11.627  0.5538 -0.0375  0.5489
14732W        W31580  11.052  11.616  15.937 -0.0694  0.0353  0.2668
14733W        W31581   7.460  11.446   1.691  0.0845 -0.1705 -0.0160
14734W        W31582   5.660   5.168  14.396  0.4167 -0.0259  0.2620
14735W        W31583  15.713   3.489  16.166  0.0711 -0.3064  0.1602
14736W        W31584  14.442  13.150  13.992 -0.1697 -0.1613 -0.1162
14737W        W31585  16.228   2.160   4.637 -0.1098  0.0959  0.0165
14738W        W31586   9.977   8.326  11.345 -0.1688 -0.0199 -0.1047
14739W        W31587   5.745   3.668  13.161  0.2102  0.1281 -0.3443
14740W        W31588  14.690   6.581   5.814  0.3819  0.2268  0.2320
14741W        W31589   3.616  17.950  14.340 -0.0754 -0.1344 -0.0466
14742W        W31590   0.595   0.958   2.341  0.2582 -0.2765  0.0939
14743W        W31591  16.137   2.085  12.544 -0.0859  0.4065  0.4351
14744W        W31592  12.165  15.369   0.067  0.3731 -0.0468  0.1205
14745W        W31593   1.437   7.987  12.167  0.3594  0.0130 -0.1630
14746W        W31594   3.644   3.490   3.732  0.1297  0.0719 -0.1455
14747W        W31595  17.127   0.721  16.091  0.0369  0.3072 -0.0314
14748W        W31596   6.308  12.549  11.205 -0.0872 -0.0475 -0.0335
14749W        W31597  14.518   5.282  14.738 -0.2090  0.0447  0.1332
14750W        W31598  14.304  12.311  14.596 -0.0590 -0.3908 -0.1904
14751W        W31599   5.430  16.838  12.767  0.0909  0.1602 -0.0903
14752W        W31600  13.064   6.003  11.646  0.0102  0.1234 -0.0331
14753W        W31601  12.932  12.176   5.140  0.2399  0.2809  0.0020
14754W        W31602  16.857   2.315  13.895  0.1216  0.0885 -0.0292
14755W        W31603  10.615  11.329  11.713  0.4278  0.1835  0.0252
14756W        W31604  13.509  16.609   0.795 -0.1657 -0.1927 -0.1971
14757W        W31605   5.704   6.887  15.577  0.0516  0.1098 -0.3216
14758W        W31606  14.735  14.979   4.118 -0.3534  0.5717 -0.1478
14759W        W31607   7.619   6.249  13.930  0.0086 -0.4394 -0.0845
14760W        W31608  10.521   3.935   4.582 -0.2152  0.0809  0.0350
14761W        W31609   3.023  14.026   3.535 -0.0433  0.0351 -0.1397
14762W        W31610  11.048   8.594   0.555 -0.2485 -0.0375  0.5483
14763W        W31611  13.296   1.944  15.443  0.2387 -0.1606 -0.0763
14764W        W31612  17.700  15.770  13.904  0.0312 -0.0104 -0.0659
14765W        W31613   5.330   3.756  14.352  0.0104  0.0384  0.1203
14766W        W31614   3.694  16.119  13.801  0.4340 -0.1247 -0.1899
14767W        W31615   3.827  14.272  12.310 -0.0317 -0.0719 -0.0096
14768W        W31616   4.432   8.668   2.855 -0.0242  0.0365  0.0113
14769W        W31617  13.654  11.346   2.478 -0.2738 -0.0924 -0.1804
14770W        W31618   8.965  10.148  12.330 -0.1570 -0.1396 -0.1250
14771W        W31619   3.752  17.990   4.725  0.0381  0.4533  0.1781
14772W        W31620   0.072   8.153  14.478  0.0309 -0.1054 -0.1203
14773W        W31621   9.252  14.800  15.839 -0.1627  0.5865  0.4182
14774W        W31622  15.483  13.469   3.994  0.1688 -0.3471 -0.0264
14775W        W31623   2.911  14.499   5.069 -0.2163 -0.1568 -0.0100
14776W        W31624  17.820  17.787   1.381 -0.0084  0.1831  0.2197
14777W        W31625  11.495  16.693  13.578 -0.1861  0.0785 -0.3740
14778W        W31626   6.628  16.315   3.614  0.1112 -0.2742  0.4438
14779W        W31627   1.327  17.435  11.884 -0.1067  0.2122 -0.0454
14780W        W31628   8.028   0.544   1.549  0.0142  0.1503 -0.0482
14781W        W31629   3.854   4.825  14.109 -0.0059 -0.0592 -0.2834
14782W        W31630  15.119  18.026   5.408  0.0456 -0.2148  0.3194
14783W        W31631  14.111   8.582  12.849  0.1551  0.2066 -0.2972
14784W        W31632   6.252   0.625  15.012 -0.2286 -0.2278 -0.2431
14785W        W31633   2.075  17.572   4.973  0.0483 -0.3399 -0.0737
14786W        W31634   6.971  12.360  11.603 -0.2136  0.0561 -0.0421
14787W        W31635   8.083   9.861   2.966 -0.0210 -0.0758 -0.0850
14788W        W31636  14.803   2.512  11.586 -0.1658 -0.0012 -0.0278
14789W        W31637  16.200  10.495  11.821 -0.1147  0.3769  0.2712
14790W        W31638  17.330  11.448  11.804  0.3390  0.2386 -0.2898
14791W        W31639   3.300  12.635   0.666  0.1259  0.2074  0.2567
14792W        W31640  16.102   0.595  13.841  0.0921 -0.0963 -0.4211
14793W        W31641  11.080   6.191   1.881 -0.1995 -0.0013  0.1699
14794W        W31642  14.254  17.608  15.423 -0.0554  0.2060  0.1552
14795W        W31643   0.344  13.976  11.536 -0.2375  0.2802 -0.3423
14796W        W31644   5.422   2.055   4.325 -0.0274  0.3804 -0.3317
14797W        W31645   5.756   5.154   1.227 -0.3388  0.0653  0.0367
14798W        W31646  15.721   8.993   2.559  0.2602  0.0791  0.2230
14799W        W31647  16.808   7.615   4.111  0.0142 -0.1361  0.5201
14800W        W31648   5.097   3.484  16.020 -0.0724 -0.4685 -0.1411
14801W        W31649   3.027  16.423   0.751  0.1561  0.1710  0.1059
14802W        W31650  17.578  12.760   4.919 -0.0743  0.1675 -0.0818
14803W        W31651   6.890  11.077   3.762 -0.0254 -0.1073 -0.2444
14804W        W31652   5.637   4.302   3.912 -0.2089  0.0129 -0.2293
14805W        W31653  15.387  10.120  15.975  0.0628  0.2199 -0.1004
14806W        W31654  11.389  13.939   4.202 -0.1951  0.0402 -0.1538
14807W        W31655   6.812   5.424  11.083  0.0883  0.1387 -0.1478
14808W        W31656   3.328   6.651  12.016  0.2065 -0.1074  0.0801
14809W        W31657   1.134   8.699  13.341  0.1226  0.1497  0.3373
14810W        W31658  14.977   4.867   1.720 -0.0571  0.1792 -0.0318
14811W        W31659  16.902   9.810   4.509 -0.0688  0.0303 -0.1607
14812W        W31660   5.211   6.109  13.392  0.2112  0.0503  0.2239
14813W        W31661   9.903   9.987   4.015  0.0001  0.1288  0.4603
14814W        W31662  10.443  13.904   1.041 -0.1453 -0.0147 -0.0509
14815W        W31663   5.038  15.387   3.460 -0.0247 -0.0240 -0.0725
14816W        W31664  17.272  13.075   0.272  0.1438 -0.0097 -0.0002
14817W        W31665   4.842   0.238   1.056  0.1505 -0.1074 -0.1728
14818W        W31666   4.041  17.655   6.284 -0.0301 -0.2933  0.0388
14819W        W31667   2.780  13.146  16.024  0.4344  0.0492 -0.0212
14820W        W31668   8.014  11.042  14.252  0.0565  0.2260 -0.3616
14821W        W31669  16.886   0.586  13.618 -0.0706  0.3903 -0.0896
14822W        W31670  17.129   2.837  15.983  0.0843  0.1315 -0.0874
14823W        W31671   4.639  17.016   1.328  0.0551 -0.0190  0.1536
14824W        W31672   0.342   7.678  13.284 -0.1577  0.0382 -0.0397
14825W        W31673   7.330  15.564   1.434 -0.0560 -0.1897 -0.0152
14826W        W31674  12.374  14.492   5.766 -0.1657  0.0421  0.0330
14827W        W31675   8.405  16.604  10.954  0.0574 -0.0670  0.1643
14828W        W31676  16.625  15.984  10.595  0.0481 -0.0409 -0.0006
14829W        W31677   3.653   2.533   5.625  0.1688  0.3248 -0.0450
14830W        W31678   8.176  17.755  14.683 -0.2589 -0.4828  0.1428
14831W        W31679   9.534   3.415  15.201 -0.0274  0.0456 -0.2841
14832W        W31680   8.105   5.082  15.590 -0.0674  0.0562  0.1450
14833W        W31681   8.435   5.804   2.112  0.2148  0.2259 -0.1061
14834W        W31682  10.179  11.317   4.107  0.2949 -0.0298 -0.0582
14835W        W31683   7.578   1.857   2.846 -0.0874  0.4461 -0.2224
14836W        W31684  17.210  16.744   2.747 -0.0129  0.3577  0.0133
14837W        W31685   2.319  12.129   4.099  0.2412 -0.0057  0.0461
14838W        W31686   7.319  12.937  15.945  0.1493  0.1953 -0.2877
14839W        W31687  14.201   1.974  11.086  0.0306 -0.0002 -0.0436
14840W        W31688   0.661   9.627  12.529 -0.0556  0.3635  0.1343
14841W        W31689   1.161  11.851  11.853  0.1184 -0.1274 -0.0091
14842W        W31690   0.160  14.487   3.442 -0.0756 -0.1294 -0.0083
14843W        W31691   7.538   9.427  13.807 -0.1900  0.0239  0.0179
14844W        W31692   1.367  17.940  15.550  0.1489 -0.1216 -0.1628
14845W        W31693   1.375  12.330   3.068 -0.1738  0.0851  0.0786
14846W        W31694   0.315  10.488   0.197 -0.2313 -0.0165 -0.0785
14847W        W31695  11.862   3.933  14.805  0.1282  0.1004 -0.0452
14848W        W31696  11.784  16.593  13.132  0.2756 -0.2869 -0.0032
14849W        W31697  10.321   6.004  13.799 -0.0762  0.1700  0.0457
14850W        W31698  10.735   4.684  15.818 -0.3578 -0.1128  0.0328
14851W        W31699   5.000  16.924   0.329 -0.0920  0.2356  0.1355
14852W        W31700   1.981   8.574  12.904  0.0115 -0.0434 -0.2801
14853W        W31701  13.646  14.179   0.617  0.1473  0.2176  0.1717
14854W        W31702  16.324   7.892   0.416 -0.0415  0.3975 -0.0619
14855W        W31703   2.372  15.843  12.929 -0.0333 -0.0798  0.0587
14856W        W31704  16.666  16.253  12.412  0.0371 -0.4701 -0.0060
14857W        W31705   7.556  16.710   0.881  0.2750  0.2155  0.1685
14858W        W31706   9.951   3.935  10.086 -0.1421  0.3023  0.3283
14859W        W31707  15.154   5.214   2.369  0.0255  0.0677 -0.1140
14860W        W31708  17.468   0.501   2.405 -0.0927  0.1056 -0.3767
14861W        W31709   7.523   1.320   5.571  0.2883  0.2455 -0.1825
14862W        W31710   6.646   8.318   0.888 -0.1805 -0.1711  0.1135
14863W        W31711   7.081  14.592  14.019 -0.1526 -0.2092  0.1192
14864W        W31712   9.417   0.521   0.637 -0.1421  0.0556  0.0685
14865W        W31713  11.590   7.266   4.089  0.1479  0.0668 -0.1136
14866W        W31714   3.634   6.415   1.854  0.2682 -0.1847  0.1428
14867W        W31715   1.090   5.097   2.139 -0.0528  0.0830 -0.0422
14868W        W31716  17.650  12.914   2.973  0.1995 -0.1035 -0.1771
14869W        W31717   5.995  13.952  12.625 -0.0792 -0.0768 -0.2145
14870W        W31718   7.498   2.731  14.554  0.0602  0.1540 -0.0189
14871W        W31719   0.647   0.405   2.470 -0.2981 -0.3390  0.1521
14872W        W31720  10.026   5.020  16.273  0.0404 -0.0008 -0.1793
14873W        W31721   4.116   1.043   0.246 -0.0942 -0.2715 -0.2551
14874W        W31722  17.164  11.620  15.473 -0.0585  0.1185 -0.0511
14875W        W31723  17.648   2.776   0.582 -0.2621 -0.4221 -0.0541
14876W        W31724  10.062   7.902   2.719  0.1079 -0.1053 -0.2291
14877W        W31725  11.211  13.847  16.091 -0.3382  0.0304 -0.2864
14878W        W31726  11.730   0.267  15.681  0.0811 -0.0220  0.0694
14879W        W31727  14.399   7.838  11.751  0.1404  0.1807 -0.2775
14880W        W31728  12.495  12.822   4.572  0.1336  0.1852  0.1385
14881W        W31729   1.449   7.794   4.423  0.0681 -0.1815  0.0260
14882W        W31730  10.717  12.251   5.159  0.2854  0.1578  0.1366
14883W        W31731   8.193  16.953   3.314  0.1834  0.1461  0.0179
14884W        W31732  14.006  12.835  12.111  0.2286  0.1088  0.1259
14885W        W31733  11.868  10.457   3.815  0.0358 -0.1555  0.2096
14886W        W31734  16.557   2.593   2.316  0.3133 -0.0209 -0.1597
14887W        W31735  12.189   9.867  15.132 -0.1402 -0.1154 -0.0297
14888W        W31736  17.496   6.421   0.205  0.0212 -0.0824 -0.2337
14889W        W31737   5.253  17.313  14.626 -0.2052 -0.1447 -0.1883
14890W        W31738  13.937  11.664  12.928  0.1459 -0.0384 -0.1923
14891W        W31739   1.998   5.366   2.594 -0.0695  0.0153 -0.1670
14892W        W31740  13.873   0.394  13.494 -0.0908  0.1456 -0.0697
14893W        W31741   1.921   7.469   5.200  0.0355  0.0665 -0.3098
14894W        W31742  13.287   2.637  14.285 -0.0404  0.0773  0.0657
14895W        W31743  15.634   7.157   1.441  0.1277 -0.1984  0.0168
14896W        W31744   0.834  15.662   4.924  0.2289 -0.4026  0.2922
14897W        W31745  16.144   4.174   3.575  0.0803  0.0003  0.2136
14898W        W31746   6.674  15.408  12.236 -0.1117  0.2405  0.3291
14899W        W31747  11.223   0.808  13.879 -0.4664  0.2698  0.1326
14900W        W31748  10.152  14.611   1.610 -0.3272  0.1309 -0.1763
14901W        W31749   0.266   6.661   6.191  0.0986  0.0839  0.1133
14902W        W31750   7.511   8.067   0.615  0.4282  0.0401  0.1380
14903W        W31751   1.232  13.405   2.374 -0.0428 -0.2241  0.3226
14904W        W31752  17.892   0.103  15.804 -0.0691 -0.2262 -0.1926
14905W        W31753   6.416   6.904   0.135  0.1122 -0.0590 -0.1093
14906W        W31754   8.394  12.341  12.570 -0.0674  0.0304  0.1024
14907W        W31755  14.387   8.984  12.566 -0.4821 -0.1527  0.1805
14908W        W31756  16.178  10.645   3.992 -0.0905 -0.1047  0.0288
14909W        W31757  14.148   9.873   0.676 -0.0512  0.1133  0.2016
14910W        W31758   8.342   0.120   4.773 -0.1461 -0.0862  0.0502
14911W        W31759   3.209  17.418   4.454 -0.0996  0.0898  0.1564
14912W        W31760  14.668  15.017  14.689  0.1540 -0.0936 -0.3218
14913W        W31761  13.846   0.471  12.078 -0.0629 -0.1272  0.3184
14914W        W31762   4.418   1.667   5.668 -0.1424  0.1389  0.0130
14915W        W31763   7.182   1.189   1.097  0.1803  0.0126  0.0082
14916W        W31764   0.812   7.186   1.190 -0.3102 -0.1768 -0.0463
14917W        W31765  13.007   8.898  14.673 -0.1012 -0.1450 -0.2795
14918W        W31766  12.240   4.991  11.448 -0.0827  0.1335 -0.4373
14919W        W31767   0.525   7.176   4.444  0.3371 -0.2614  0.1155
14920W        W31768   7.887   2.491  14.258  0.0536  0.0105  0.1617
14921W        W31769   6.768   5.199   2.813  0.2471 -0.1017 -0.1563
14922W        W31770  13.437   1.017  12.925  0.2357 -0.1082  0.1883
14923W        W31771   5.465  11.917  13.148 -0.1854  0.2609  0.2856
14924W        W31772   1.463   1.464   1.430  0.3319  0.1916 -0.0525
14925W        W31773   8.327   3.172  12.812 -0.0231 -0.1086  0.3093
14926W        W31774  12.778  12.854   0.792 -0.1788 -0.0008 -0.1579
14927W        W31775   7.539   2.252   2.098  0.0689 -0.0986 -0.2691
14928W        W31776   2.209  15.855   1.294 -0.1038 -0.0027 -0.1112
14929W        W31777  15.479   2.648  13.992 -0.0384  0.1711 -0.2217
14930W        W31778  16.694   2.677   1.074 -0.4062 -0.0741 -0.1021
14931W        W31779  15.317   5.259  15.150  0.1007  0.3613  0.0181
14932W        W31780   9.737   5.398  12.179  0.1277  0.1924 -0.0324
14933W        W31781  16.038   5.158   0.468  0.0302 -0.2015 -0.1064
14934W        W31782  13.379   6.622   2.509 -0.0364 -0.0644  0.2228
14935W        W31783   7.738   2.811   0.004 -0.1573 -0.0255  0.0250
14936W        W31784  16.822  14.154   2.184 -0.1015  0.2242 -0.0676
14937W        W31785   4.097   9.904  11.963  0.0052  0.1934  0.0142
14938W        W31786   7.467  16.778  12.810  0.0050  0.1466 -0.1345
14939W        W31787   0.861  13.404  11.334 -0.0821 -0.0349 -0.0501
14940W        W31788  15.105   4.068   4.613 -0.1629  0.0893  0.0943
14941W        W31789  11.174   6.558  11.474 -0.1490  0.0836 -0.0567
14942W        W31790   6.750  16.785  11.094  0.1366  0.1230 -0.0150
14943W        W31791  11.842  14.659   6.017  0.0520 -0.1964 -0.3358
14944W        W31792  12.622   8.548   2.211  0.1329  0.1089  0.0850
14945W        W31793  16.599   7.325   4.513 -0.3765  0.0668 -0.0747
14946W        W31794  16.908   4.884   4.120 -0.2314  0.0995  0.2781
14947W        W31795  17.170  15.634   2.162 -0.1582 -0.0454 -0.0300
14948W        W31796   1.063   9.853   2.728 -0.3364  0.3175  0.2409
14949W        W31797  16.329   6.216   1.997  0.1209  0.0429  0.0143
14950W        W31798  15.287   0.986   0.471 -0.2578  0.2027 -0.1439
14951W        W31799  16.441   6.939  12.415  0.2194 -0.0058 -0.2594
14952W        W31800  10.755  17.882   5.042 -0.2028 -0.1527 -0.0661
14953W        W31801   6.282   8.077   3.374  0.1821  0.2160 -0.2687
14954W        W31802  15.548  14.212   3.942 -0.1839 -0.0627  0.3388
14955W        W31803   8.245   1.393   0.645  0.1726 -0.0714 -0.2656
14956W        W31804  17.323   6.085   3.308 -0.0658  0.0354 -0.0024
14957W        W31805   8.735   1.575   0.595 -0.0303 -0.0544  0.1880
14958W        W31806  17.551   9.517  11.425  0.1113 -0.1834 -0.0143
14959W        W31807   7.765   6.878   3.913 -0.2107 -0.0006 -0.2607
14960W        W31808   5.261  10.147   0.107 -0.0286 -0.1776 -0.0429
14961W        W31809   9.460   3.684  13.895 -0.1396 -0.0790 -0.1472
14962W        W31810  12.340   8.833   4.428  0.3776  0.2389 -0.0284
14963W        W31811  11.975  14.318  16.039  0.2072 -0.0154 -0.0245
14964W        W31812   2.198  13.926   4.212 -0.2554  0.0954 -0.1773
14965W        W31813   7.538   2.469   0.778 -0.1729 -0.0713  0.0323
14966W        W31814   6.238   9.880  14.293 -0.0992  0.0293  0.2658
14967W        W31815   4.698   0.019  14.554 -0.1526 -0.3686 -0.0474
14968W        W31816  17.524   0.822  14.212  0.3168  0.1000  0.2699
14969W        W31817  17.170   9.501  11.750 -0.2610 -0.1114 -0.0824
14970W        W31818   5.531   7.219  15.949  0.0010  0.0570  0.0260
14971W        W31819   4.726   6.949  16.268  0.1798 -0.4727  0.0251
14972W        W31820  13.290   8.212  12.485  0.0728  0.0004 -0.2528
14973W        W31821  15.483  14.767   4.877 -0.0334  0.2409  0.1301
14974W        W31822  13.406  12.786   0.728 -0.1773  0.0280 -0.1725
14975W        W31823   1.541   0.738  10.803  0.0868 -0.2764 -0.3911
14976W        W31824   4.581  12.110   3.871  0.0320 -0.2230 -0.2335
14977W        W31825   1.987  12.776  10.301  0.1944 -0.0978 -0.2419
14978W        W31826   6.618   7.165  13.362  0.5291  0.0091  0.1449
14979W        W31827  17.084  17.928  11.103 -0.3106 -0.1649 -0.2342
14980W        W31828  14.589  10.438  16.162  0.0039 -0.2385 -0.2088
14981W        W31829  11.850   0.777  12.864 -0.3209  0.0805  0.0696
14982W        W31830   0.146   5.972   5.925  0.1004  0.0610  0.2904
14983W        W31831  13.017   2.526   1.354  0.2512  0.2110 -0.2242
14984W        W31832   0.582   4.668   1.493 -0.0286 -0.2045  0.1202
14985W        W31833  10.001  16.556   4.059 -0.0058  0.1090 -0.2926
14986W        W31834  13.244   3.036  12.799  0.2690 -0.0841 -0.0485
14987W        W31835   3.142   9.156  15.202  0.1434  0.1043  0.0581
14988W        W31836  17.189  10.309  15.886 -0.0601  0.2268 -0.0745
14989W        W31837  10.512  11.756   1.001  0.3100  0.3006  0.0121
14990W        W31838   5.121  16.507  12.523  0.0302 -0.2086 -0.2621
14991W        W31839   9.229   1.103   4.422 -0.0357 -0.1693 -0.0641
14992W        W31840  11.832  12.710  15.179 -0.0076  0.1875  0.3222
14993W        W31841   0.451  10.126  11.218 -0.0746 -0.1252  0.2255
14994W        W31842   4.370   9.571  13.856 -0.3856  0.2878  0.0183
14995W        W31843  14.210   2.113   1.303 -0.0125  0.1110  0.2414
14996W        W31844   5.103   7.265   1.580  0.2962 -0.0137  0.5105
14997W        W31845  13.347  12.353   5.584  0.0513  0.4306  0.1809
14998W        W31846   6.442  17.143   3.556  0.1196 -0.2070  0.1124
14999W        W31847   8.298  12.570  13.695 -0.2050  0.0211  0.0100
15000W        W31848   2.815   2.867   2.742 -0.1485  0.0044  0.2750
15001W        W31849  14.031   6.928   4.976 -0.2350 -0.1399 -0.0776
15002W        W31850   8.023   8.291   5.835 -0.2273  0.0370 -0.0808
15003W        W31851  16.213   2.351   1.844 -0.0055 -0.1597 -0.0011
15004W        W31852  17.799   6.417  15.062 -0.0099  0.0827  0.0511
15005W        W31853  14.666   6.347   2.519 -0.0736 -0.5223 -0.1044
15006W        W31854   8.203  12.106   1.508  0.0062  0.0437  0.0340
15007W        W31855  17.684   4.962   0.366 -0.3744 -0.0437  0.1357
15008W        W31856   3.542  17.657  12.630  0.0022  0.2684 -0.1495
15009W        W31857   0.410   2.674   3.930  0.0536 -0.0087 -0.0071
15010W        W31858   2.834   9.536   1.945 -0.3288  0.3087 -0.0110
15011W        W31859   4.546   1.910  15.123 -0.2788 -0.0775  0.2085
15012W        W31860   1.831  13.381  15.172  0.0718 -0.3347 -0.1072
15013W        W31861   4.703  17.590   4.707 -0.2971  0.0659  0.2968
15014W        W31862  14.394  10.342  13.386 -0.0933  0.1430  0.1442
15015W        W31863  11.560   1.563   4.687  0.1364  0.0932  0.0835
15016W        W31864   5.811  16.232   5.620 -0.1199  0.0884 -0.3072
15017W        W31865   7.838  16.267   4.389  0.1996  0.3536 -0.3089
15018W        W31866  11.671  13.915  11.690 -0.0006 -0.1218 -0.2064
15019W        W31867   9.986  13.496  15.176 -0.0747  0.3196 -0.2588
15020W        W31868  13.618  15.403   3.211  0.0461 -0.2615 -0.2043
15021W        W31869   4.791  14.073   1.440 -0.3317 -0.0174  0.1030
15022W        W31870  13.739   7.944  15.350 -0.4129 -0.0981  0.3117
15023W        W31871  15.074   7.332  12.358 -0.0939 -0.1959 -0.1641
15024W        W31872   9.702  12.636  16.203  0.0328  0.0220  0.4429
15025W        W31873  10.093  16.487  14.328  0.1632 -0.0990 -0.1989
15026W        W31874   6.361  15.372  14.623 -0.1293  0.1063  0.2130
15027W        W31875   2.830   3.810   2.270  0.1995  0.3340 -0.2663
15028W        W31876  15.399   1.104  15.549 -0.0469 -0.1890 -0.0442
15029W        W31877   2.102   3.444  15.823 -0.0222  0.3701  0.1349
15030W        W31878   2.431   1.303  14.312 -0.3711  0.1826 -0.1647
15031W        W31879   0.478  13.398   2.944 -0.0904 -0.3742  0.2477
15032W        W31880  13.577  11.941   0.373  0.0049  0.2939 -0.1039
15033W        W31881   6.253   3.069  11.083  0.1083 -0.0788 -0.0417
15034W        W31882   5.307   4.723   1.237 -0.0470 -0.2235 -0.0828
15035W        W31883  12.164  17.911   5.005 -0.2373 -0.1142  0.0355
15036W        W31884  13.711  10.560  11.974  0.1496 -0.1155 -0.0344
15037W        W31885   7.868   2.634   0.459  0.2033  0.0808  0.3214
15038W        W31886   0.508  16.978   0.295 -0.0735  0.0106  0.0749
15039W        W31887  10.117  11.374   0.721 -0.2639 -0.0085 -0.1343
15040W        W31888  13.795   9.496   1.730  0.1136 -0.2714  0.0258
15041W        W31889  10.588   6.182   2.603 -0.0210 -0.0224 -0.2311
15042W        W31890   5.822  17.333   0.091  0.1656 -0.0297  0.2357
15043W        W31891   4.609   2.029  13.185 -0.1380  0.1079  0.1378
15044W        W31892   0.738   8.269   0.245  0.1036 -0.2715  0.2072
15045W        W31893   0.868  14.806  15.020 -0.0579  0.0317  0.0278
15046W        W31894   4.342  14.172   5.218 -0.1902 -0.1734  0.1454
15047W        W31895  15.660  10.926   4.744  0.0851  0.3077 -0.0879
15048W        W31896   1.577  13.041   4.593 -0.1396  0.0323 -0.0486
15049W        W31897   9.905   2.072   0.830 -0.0555  0.2555  0.1642
15050W        W31898  16.900   9.702   4.062 -0.2171  0.1449  0.0695
15051W        W31899  12.678  15.772  12.039 -0.0941 -0.3230 -0.3042
15052W        W31900  13.360  16.164   4.934 -0.2072 -0.1380 -0.1909
15053W        W31901   1.566  10.849   0.222  0.1147 -0.1204 -0.0150
15054W        W31902  12.558   0.374   2.497  0.1016  0.0288 -0.2206
15055W        W31903   2.698  16.259   4.543  0.2149  0.3312 -0.0752
15056W        W31904  17.717  14.113   2.936 -0.0175 -0.1069 -0.1964
15057W        W31905  14.204   6.279   1.951  0.0150  0.1292 -0.0126
15058W        W31906   1.488   5.715  11.933 -0.0023 -0.1502 -0.2633
15059W        W31907   7.408   2.003   4.891 -0.0061 -0.0615 -0.0667
15060W        W31908   2.725   1.564   4.069 -0.0958 -0.0524  0.3332
15061W        W31909  13.047  17.816  12.645  0.0278 -0.1808 -0.2158
15062W        W31910   6.371  17.946  11.562  0.2066 -0.0770 -0.1147
15063W        W31911   5.168   7.958   2.344 -0.3686 -0.1358 -0.1498
15064W        W31912   7.067  12.130   2.987 -0.1943 -0.2226 -0.1758
15065W        W31913   1.523   3.352  11.716  0.0051  0.2394  0.0220
15066W        W31914  16.846   0.964  12.165  0.4258 -0.1273  0.1404
15067W        W31915  14.928   9.847  11.609 -0.3834  0.0091 -0.2017
15068W        W31916  14.267   6.011  12.205 -0.3961  0.4629 -0.3103
15069W        W31917   3.457   6.457   2.412  0.2738  0.1217  0.1344
15070W        W31918  17.513   2.159   2.182  0.2542 -0.0263  0.6697
15071W        W31919  11.523   2.059  16.106  0.0859 -0.1675  0.1576
15072W        W31920   3.306  17.880   4.083  0.2705 -0.1533  0.1337
15073W        W31921   6.480   2.936   2.403 -0.0725 -0.1391 -0.1952
15074W        W31922   7.861  13.488  12.317 -0.1945  0.1211  0.0557
15075W        W31923   7.716   8.910   4.161 -0.0900 -0.2582 -0.1170
15076W        W31924  15.762  15.243  13.211 -0.0303 -0.0720 -0.1687
15077W        W31925  18.019   6.504   0.314 -0.2612 -0.1696  0.1015
15078W        W31926  15.151  14.181  12.023 -0.1595  0.0532 -0.1609
15079W        W31927  12.280  17.374  12.996  0.0988 -0.1454  0.2939
15080W        W31928   1.315  15.535   4.578 -0.1481 -0.0567  0.2223
15081W        W31929  11.397   8.904  13.804 -0.4393 -0.0471  0.3224
15082W        W31930  14.361   9.084   0.792  0.1260 -0.1044  0.1575
15083W        W31931  17.477  12.102  12.167  0.1286  0.0627 -0.0914
15084W        W31932  14.262   2.186   0.775  0.2235  0.1605  0.0538
15085W        W31933   2.863   5.606   4.912 -0.1142 -0.3338 -0.1761
15086W        W31934  10.752   3.419  13.274  0.1765 -0.1232 -0.1109
15087W        W31935   9.989   9.336  16.148  0.1330 -0.0337 -0.0494
15088W        W31936   6.160   7.457  14.886 -0.2317 -0.2144 -0.0690
15089W        W31937  17.042  17.417   5.671  0.1042  0.0032 -0.0395
15090W        W31938  17.636   9.324  12.962  0.2213 -0.0195 -0.0593
15091W        W31939   4.864   3.959  13.307 -0.1640  0.1322 -0.3127
15092W        W31940   4.678   7.761  15.867 -0.1391  0.3997 -0.3418
15093W        W31941  16.469  10.583  10.994  0.2791  0.1949  0.0177
15094W        W31942   1.173  15.256   3.757  0.0587  0.0700  0.1658
15095W        W31943   5.133   5.243  12.973 -0.1402  0.0200 -0.0115
15096W        W31944   1.271   2.482  11.705  0.2440  0.2499  0.1943
15097W        W31945   5.423  16.140   2.993 -0.0341  0.1977 -0.0195
15098W        W31946  13.636   4.649   1.285  0.2164 -0.0902  0.2228
15099W        W31947   4.940  15.901   3.797 -0.1050 -0.2423 -0.0136
15100W        W31948  10.926  12.977   1.145 -0.0729  0.0533 -0.0375
15101W        W31949   7.014  10.500   0.805  0.4045  0.4920 -0.2203
15102W        W31950  17.199  11.107   2.886  0.0072 -0.1068 -0.0977
15103W        W31951  15.853   5.729   4.381 -0.5638  0.1365  0.2128
15104W        W31952   7.974   9.244  14.698  0.0754 -0.1674  0.0724
15105W        W31953   1.781  11.697   0.146 -0.0160 -0.0354 -0.1713
15106W        W31954   8.508   8.637   5.098 -0.1771  0.1453 -0.0999
15107W        W31955   3.584   1.575  11.399  0.1507 -0.0841 -0.0455
15108W        W31956  12.811   0.323   5.545  0.0611  0.2747  0.1562
15109W        W31957  17.812  16.193  14.193 -0.0595  0.1280 -0.0512
15110W        W31958  12.455   0.850   2.317 -0.0253  0.1710  0.0721
15111W        W31959   0.573   2.945  12.249  0.1740  0.2029  0.1152
15112W        W31960  11.423   5.271   0.159 -0.0796  0.0482 -0.1199
15113W        W31961   2.896  12.175  12.699 -0.1888  0.0511  0.0944
15114W        W31962  10.242   1.820   3.992 -0.3158  0.0153 -0.0423
15115W        W31963  13.274  16.792   4.895  0.0836  0.1073  0.1846
15116W        W31964   7.181   9.215   1.234  0.2610 -0.0703 -0.2216
15117W        W31965   5.172  13.380  14.169 -0.5161 -0.1124  0.0383
15118W        W31966   1.253   6.395   2.469 -0.2778  0.2055 -0.1315
15119W        W31967  12.249   6.757   0.186 -0.0240  0.3355  0.1466
15120W        W31968   4.343  13.889   2.280  0.2740  0.0802 -0.1591
15121W        W31969  13.605   1.811   0.090 -0.0476  0.1061  0.1716
15122W        W31970  12.231   7.945   3.886 -0.0450 -0.1891  0.0184
15123W        W31971  11.883   4.920   4.407  0.0677 -0.1498 -0.2508
15124W        W31972  10.555  15.786   0.923  0.0197 -0.0016 -0.0511
15125W        W31973  13.659   2.907   2.117 -0.1478 -0.1019  0.1210
15126W        W31974   8.152   6.150  13.664  0.1218 -0.3489 -0.0317
15127W        W31975  17.575  10.587   1.642 -0.1132 -0.3707  0.1870
15128W        W31976   2.416  10.838   3.762  0.0446 -0.0045 -0.2238
15129W        W31977  13.656   2.558  10.627 -0.0284 -0.2078 -0.1336
15130W        W31978  14.660  14.795  15.994  0.0063 -0.2159 -0.0269
15131W        W31979   4.528   3.124   4.039 -0.2047 -0.2568 -0.1663
15132W        W31980  13.389  10.855   4.880  0.2275  0.0079  0.3844
15133W        W31981   5.496  13.537   4.066  0.2593  0.0235  0.0331
15134W        W31982   6.896   1.592   1.073  0.1594  0.3232  0.0593
15135W        W31983   8.396   2.724   6.338  0.1369 -0.2846 -0.0052
15136W        W31984   9.627   0.991   0.725 -0.1401 -0.3193 -0.1526
15137W        W31985   0.303  17.318  14.583 -0.1380  0.0738 -0.1720
15138W        W31986   4.117   9.032   5.146  0.0781  0.1550 -0.1494
15139W        W31987  12.188  17.609   1.553  0.0991  0.2302 -0.0524
15140W        W31988  13.760   4.437  13.306  0.0380  0.1483  0.0157
15141W        W31989  13.040  12.541   1.621 -0.0520  0.4399 -0.0820
15142W        W31990  14.515  10.029   1.827 -0.0014 -0.0574 -0.0348
15143W        W31991  13.731   7.801  13.713 -0.0584 -0.1849  0.2103
15144W        W31992   3.317   9.629   3.360 -0.1049  0.0863  0.1574
15145W        W31993   2.957   1.841   2.733 -0.1298 -0.2066 -0.1488
15146W        W31994   4.717   2.617   4.267  0.2310 -0.1131  0.1036
15147W        W31995  13.894   9.351  14.703 -0.1616  0.0625 -0.3391
15148W        W31996   5.796   9.772  13.479  0.0117 -0.0156  0.1456
15149W        W31997   2.590   5.986   2.605  0.3165 -0.0951 -0.2172
15150W        W31998   0.866   1.834  14.433 -0.1083  0.2458 -0.1037
15151W        W31999   1.207  14.487  11.887 -0.1281  0.0015  0.0051
15152W        W32000   1.692  16.619  13.662 -0.0581  0.1389 -0.4091
15153W        W32001   6.960  11.894  14.394  0.0056 -0.0081 -0.0594
15154W        W32002   6.247  12.546  12.955  0.1186 -0.1865 -0.3119
15155W        W32003  13.341  15.048   5.121 -0.0964 -0.0265 -0.1138
15156W        W32004   4.272   9.061  15.370  0.1150  0.2392 -0.1403
15157W        W32005  13.865   4.216   3.024 -0.1190  0.0682  0.1473
15158W        W32006   0.207   2.863  11.934  0.2265  0.4315 -0.0037
15159W        W32007   5.257  17.711   4.602  0.0160  0.2800 -0.2799
15160W        W32008   3.249  13.817   5.314  0.0970  0.1146  0.0616
15161W        W32009  17.260  16.186  12.278  0.0040  0.1095 -0.0913
15162W        W32010   8.888   2.677  14.973  0.1875  0.0819  0.1311
15163W        W32011   5.518  16.166   4.812 -0.1576  0.0534  0.0226
15164W        W32012   3.952   1.187   1.055 -0.0759 -0.2636 -0.2441
15165W        W32013  11.723  14.678  15.618  0.2943 -0.4299 -0.0349
15166W        W32014  12.718   4.220  13.208  0.0829  0.1208 -0.2146
15167W        W32015   5.825   7.769  15.281  0.3038 -0.0930  0.1704
15168W        W32016   1.493   0.467   0.606 -0.2166  0.0182 -0.0560
15169W        W32017   8.535   6.343  14.115 -0.2254 -0.0278 -0.1141
15170W        W32018   9.106  11.618  14.284 -0.1086  0.0854 -0.0864
15171W        W32019   4.602   6.699   5.940 -0.0025 -0.3320  0.0024
15172W        W32020   9.510   6.541   3.451 -0.0651 -0.0489 -0.0769
15173W        W32021  11.657   4.277   6.305  0.3726  0.0057  0.1849
15174W        W32022  14.176  14.034   3.712 -0.3665  0.1233 -0.2157
15175W        W32023   4.144   7.988   3.550 -0.4591 -0.0442  0.1222
15176W        W32024   4.611   7.006  11.451 -0.0366 -0.1151 -0.3900
15177W        W32025   5.847  16.561  12.785 -0.0026  0.0859  0.0690
15178W        W32026  14.265   0.013   3.972  0.0625  0.0762  0.2843
15179W        W32027  13.807  16.365   5.683  0.0738 -0.2952 -0.0699
15180W        W32028  17.252  16.151   2.159  0.2747 -0.2277  0.0407
15181W        W32029   4.883  15.349   2.548  0.0135  0.1298  0.0487
15182W        W32030  16.470   0.905  13.654  0.2789  0.0554 -0.0807
15183W        W32031   7.477  15.703   3.524  0.0708 -0.2844 -0.1488
15184W        W32032   9.514   3.925   3.097 -0.2644  0.2846  0.0035
15185W        W32033   3.290   9.884   1.167 -0.1376 -0.0273  0.0537
15186W        W32034   5.438   3.256   3.793 -0.1732  0.2461 -0.1303
15187W        W32035  11.272   5.678   2.241 -0.0769 -0.1761 -0.0662
15188W        W32036  17.306   8.744  15.683  0.0385 -0.3032 -0.3802
15189W        W32037   7.372  10.361  11.787 -0.2488 -0.2685  0.1167
15190W        W32038   6.917   4.374  12.683  0.1380 -0.3750  0.0187
15191W        W32039  14.914  14.332  16.029 -0.4948  0.0870  0.0053
15192W        W32040   1.872   5.291  11.738  0.0251 -0.1404  0.1050
15193W        W32041  12.042  11.285  14.969  0.2200 -0.1283  0.0098
15194W        W32042   2.218   7.841  13.337 -0.1396  0.2484 -0.0457
15195W        W32043   4.587   9.947   1.554  0.3700 -0.2529 -0.0058
15196W        W32044   6.246   3.869   2.143  0.0276 -0.0235 -0.0298
15197W        W32045   3.774   2.790   2.545  0.0554  0.0714 -0.3926
15198W        W32046   6.896  13.291   0.997 -0.1892  0.1232  0.0446
15199W        W32047   6.918   1.874  13.899 -0.0288 -0.1085 -0.2403
15200W        W32048   8.571  17.010   5.472 -0.1521  0.2612 -0.1592
15201W        W32049  15.519  15.497  13.561 -0.0601 -0.1670 -0.0406
15202W        W32050   1.942   6.737   2.838  0.2121  0.0265 -0.1823
15203W        W32051  14.872   6.719   0.843  0.2239  0.0666  0.1960
15204W        W32052  16.349  17.007  11.541 -0.4822 -0.0165 -0.3511
15205W        W32053   0.250   5.412  16.133 -0.0856 -0.4231 -0.1329
15206W        W32054  17.933   5.584   4.618 -0.3309 -0.0260  0.0138
15207W        W32055  16.223  14.773   4.234 -0.2657  0.2063  0.1222
15208W        W32056  14.606  14.041   1.400  0.0167  0.4072  0.3369
15209W        W32057  16.419   8.660  13.936 -0.1298  0.0784  0.0804
15210W        W32058   2.264  16.121   0.859  0.1345 -0.2101  0.0398
15211W        W32059   9.848   9.559  12.124 -0.0551 -0.0205 -0.1184
15212W        W32060   1.505  10.517  14.238  0.2233  0.0919 -0.2847
15213W        W32061  10.708   1.239   3.702  0.2325  0.1585  0.0569
15214W        W32062  16.819  15.412   1.931 -0.3727  0.0346  0.3518
15215W        W32063   6.380   2.899  13.451  0.0119  0.0028 -0.1247
15216W        W32064   4.745  14.569   4.515 -0.2617 -0.0127  0.2181
15217W        W32065   3.008   9.310   0.775 -0.2125 -0.1376  0.1315
15218W        W32066   7.381   0.641  14.801  0.0287  0.0981 -0.2777
15219W        W32067  10.341  10.197  15.313  0.1500  0.1765  0.2460
15220W        W32068   3.783   5.567   1.963  0.0917  0.0089 -0.0721
15221W        W32069  15.180  15.728   5.521 -0.0867  0.1407  0.0493
15222W        W32070  15.894   3.017   3.035 -0.2284  0.2049  0.0711
15223W        W32071   7.006   1.064   4.542 -0.1775 -0.0339 -0.0653
15224W        W32072   1.460   3.188   5.084 -0.0336  0.3557  0.0077
15225W        W32073   9.801   7.126  16.037 -0.1078 -0.0970 -0.1450
15226W        W32074   0.652   7.926   5.067 -0.0150  0.1184  0.2643
15227W        W32075   9.360   9.297  13.405  0.1012 -0.0413 -0.0184
15228W        W32076   4.783  17.010  13.335  0.3151  0.4443  0.0565
15229W        W32077   1.665   6.720   2.078 -0.0129  0.1254 -0.1861
15230W        W32078  14.575   5.845   2.568  0.0776  0.3489 -0.0448
15231W        W32079   0.432   0.182  14.748  0.1930  0.3110 -0.1153
15232W        W32080  12.060   0.495  14.367 -0.2232  0.1435 -0.3927
15233W        W32081   2.630  10.210  14.534 -0.4032 -0.0320  0.2666
15234W        W32082  12.347   3.944   4.259  0.0310 -0.0404  0.1474
15235W        W32083   8.677  15.359   0.033 -0.5638 -0.0542  0.0022
15236W        W32084  17.243  10.324   1.420  0.2275 -0.2714  0.1344
15237W        W32085   4.914  15.628  14.048  0.2609  0.2124 -0.0898
15238W        W32086   8.884   5.819  16.149  0.1630  0.1206 -0.3886
15239W        W32087   7.653  13.424   5.456  0.0705 -0.0628  0.3711
15240W        W32088   6.628   2.748  11.027 -0.0556  0.1163 -0.1571
15241W        W32089  11.505  11.572   5.548  0.1373 -0.2389 -0.0663
15242W        W32090   6.650   3.982  12.482  0.1051  0.0842 -0.0202
15243W        W32091  14.703  14.815   1.142  0.1369  0.2217 -0.0007
15244W        W32092   2.357   4.866  13.147 -0.2760  0.0219  0.0605
15245W        W32093  11.614  10.596  13.751  0.1292 -0.2201  0.1106
15246W        W32094  16.408  17.174   4.411  0.1263 -0.0993  0.0777
15247W        W32095  12.866  12.086  12.187  0.2455 -0.2288  0.2401
15248W        W32096  14.043   3.149  13.796 -0.1971 -0.0088  0.0661
15249W        W32097  12.419  12.705   3.654  0.2595 -0.0401  0.0768
15250W        W32098  16.892   8.467   4.318 -0.1292 -0.1100  0.0403
15251W        W32099  11.268   7.024  13.522 -0.1333  0.0916 -0.2756
15252W        W32100  17.064   2.328   2.240  0.0250  0.0865  0.1109
15253W        W32101   7.853  13.312  13.245  0.0672  0.1623  0.3641
15254W        W32102   6.340   3.173   4.270 -0.0575  0.0202  0.2047
15255W        W32103   9.459  15.474   2.253  0.0788 -0.0585  0.2670
15256W        W32104  13.275  17.657   2.045 -0.2030  0.2272  0.1899
15257W        W32105   7.552   0.385  11.000 -0.0643 -0.3593  0.2518
15258W        W32106  14.604   3.717   1.490 -0.0206  0.0725  0.2272
15259W        W32107  15.594   4.416  15.953 -0.2029  0.0776  0.0030
15260W        W32108   9.128   9.461   2.925 -0.0141 -0.0625  0.2411
15261W        W32109   6.568   5.545  15.277 -0.2594  0.2482  0.0645
15262W        W32110  14.857   8.197   2.411  0.3210 -0.3728 -0.0123
15263W        W32111   0.984  13.231  15.266 -0.0189  0.1009  0.0484
15264W        W32112   4.017  11.886  12.049  0.0876  0.1489 -0.2025
15265W        W32113  10.110  13.843  16.075  0.0163 -0.1620  0.0814
15266W        W32114  14.925  12.423  13.020  0.2588 -0.1536  0.1479
15267W        W32115  14.312  16.217  11.628 -0.3335 -0.1319  0.0561
15268W        W32116   5.923   9.482  15.608 -0.2207 -0.3516  0.2144
15269W        W32117   6.659  17.425   2.585  0.1985  0.4370  0.0666
15270W        W32118  17.585  13.300  12.696  0.3657  0.0720 -0.0214
15271W        W32119   3.999   1.218  12.328 -0.1252 -0.0410  0.1531
15272W        W32120   2.107  16.664   2.115 -0.1514 -0.0846  0.0486
15273W        W32121   6.332  16.588   1.144 -0.2465  0.2405  0.0297
15274W        W32122  10.800   2.993  12.947 -0.1320 -0.1835  0.0624
15275W        W32123   1.233   9.499   0.591 -0.2385 -0.1299  0.0267
15276W        W32124  17.745  11.508  13.233 -0.0214 -0.2525  0.1171
15277W        W32125   9.314   6.419  10.865 -0.2891  0.2137 -0.0210
15278W        W32126   3.981   4.137  13.227 -0.0514 -0.1781  0.0454
15279W        W32127   6.467   6.076  12.059  0.1271  0.1052 -0.0617
15280W        W32128   0.749  14.064   1.501 -0.0638 -0.0613 -0.1916
15281W        W32129   7.511   9.505  14.687 -0.3492 -0.1669 -0.6216
15282W        W32130  13.208   7.565   0.681  0.1968 -0.0234  0.0202
15283W        W32131   0.644   8.103   2.726 -0.0695  0.1569  0.0939
15284W        W32132  15.904  10.803   0.097 -0.4021  0.0254 -0.1137
15285W        W32133  11.126   4.699  10.087 -0.1157  0.0148 -0.0031
15286W        W32134  14.181   1.880   4.379 -0.2162  0.0184  0.0960
15287W        W32135   8.249   4.110   4.497  0.0540  0.1400  0.0488
15288W        W32136   4.721  10.801   0.010  0.0680  0.1056 -0.1512
15289W        W32137  10.311   7.207   5.712  0.1806 -0.1015 -0.0328
15290W        W32138   4.105  15.545   5.123 -0.2330 -0.1586  0.3151
15291W        W32139  16.669   9.196   2.297  0.2968 -0.1220 -0.1910
15292W        W32140   8.391   2.024   3.972 -0.3543 -0.2007 -0.0244
15293W        W32141  16.939   4.937   2.158 -0.0418  0.1275  0.0491
15294W        W32142  15.308  17.165   0.246 -0.0009 -0.0631  0.1170
15295W        W32143   1.522   1.639  15.688  0.1678 -0.0414 -0.3094
15296W        W32144   8.597   5.117   0.994  0.3250  0.1049 -0.2452
15297W        W32145   5.829  14.896   5.640 -0.4249  0.2789  0.0527
15298W        W32146  14.725   7.473   2.840 -0.0826  0.3544 -0.1464
15299W        W32147   5.896  14.983   1.441  0.0612 -0.1327 -0.3967
15300W        W32148  15.777   8.515  13.503  0.2880 -0.1778  0.0130
15301W        W32149   8.035  16.082   3.981 -0.1328 -0.1278  0.0855
15302W        W32150   8.589  10.310  13.198  0.1363  0.1092  0.0124
15303W        W32151   3.571   2.108   0.145 -0.3399 -0.3482  0.4388
15304W        W32152   3.828  14.130  15.883  0.1371 -0.0569 -0.0568
15305W        W32153  17.777   0.166   0.075 -0.1624 -0.2566  0.3244
15306W        W32154  15.164  16.338   1.566  0.4013  0.0974  0.1411
15307W        W32155   1.574  12.196   4.397 -0.1039 -0.1814 -0.0564
15308W        W32156   0.913  13.517  14.852 -0.0373 -0.0285 -0.0038
15309W        W32157  15.996  14.824   0.533  0.3701 -0.1212 -0.2343
15310W        W32158   2.555   7.209   0.643  0.1261  0.0159  0.0189
15311W        W32159   9.765  12.065  11.287 -0.1986  0.0820  0.2040
15312W        W32160  14.647   4.827  13.566 -0.0365  0.1947 -0.0857
15313W        W32161  17.585  17.478   4.723 -0.1057  0.6683 -0.2693
15314W        W32162  12.074   7.320   4.637  0.3384 -0.1699 -0.2475
15315W        W32163   4.798  14.335   2.768  0.0858 -0.0596  0.2301
15316W        W32164  17.864  13.517   1.655  0.2572 -0.2203  0.1632
15317W        W32165   6.068   7.311  12.694  0.2019 -0.0227  0.0890
15318W        W32166  11.625   3.333   0.104  0.1505  0.0172 -0.0877
15319W        W32167   4.373   7.805   3.031 -0.2745 -0.0148 -0.1957
15320W        W32168  14.161  10.395  13.948 -0.0640 -0.2170  0.1027
15321W        W32169  14.504  17.104  14.663 -0.0292 -0.2280 -0.0987
15322W        W32170   3.921  10.609   3.813 -0.0345  0.1848  0.0222
15323W        W32171  15.700  16.465   3.574 -0.2897  0.0256 -0.3186
15324W        W32172  17.435   8.740   0.292  0.4949  0.1293  0.1382
15325W        W32173  16.382   9.544  13.186 -0.1385  0.1501 -0.1494
15326W        W32174   4.967  15.796   1.421 -0.2698 -0.1895  0.1809
15327W        W32175  11.297  17.745   4.128 -0.0827  0.0423  0.0925
15328W        W32176   4.803   6.212  10.294  0.0336  0.0871  0.2406
15329W        W32177   0.156  10.093   1.239  0.1844 -0.1151 -0.0613
15330W        W32178   2.257   5.009  14.881  0.0364 -0.0072  0.1980
15331W        W32179   1.666  14.485  11.612  0.0535  0.0490 -0.0052
15332W        W32180   1.072  16.238  12.891  0.0355  0.1270  0.0940
15333W        W32181   2.841  12.320  11.389 -0.0788  0.1167 -0.0475
15334W        W32182  15.508   1.327   4.462  0.1214 -0.3530  0.0283
15335W        W32183  10.045  12.130   0.280 -0.1169 -0.1687 -0.0211
15336W        W32184  16.122  15.856   2.347 -0.1605  0.0982 -0.1925
15337W        W32185   3.864  12.079   0.208  0.1582  0.1140  0.2497
15338W        W32186   7.249   4.858   4.496  0.1224 -0.1950  0.2030
15339W        W32187   8.083  14.701   3.126  0.0260 -0.0200  0.0622
15340W        W32188  12.817   5.787  11.232  0.4155 -0.3646  0.0208
15341W        W32189   1.192  15.325  15.987 -0.0804  0.1343 -0.3612
15342W        W32190  10.792  15.363  14.477  0.0150  0.3062 -0.2512
15343W        W32191  14.537   3.048  12.500 -0.1481 -0.0139 -0.0526
15344W        W32192   3.662  12.883  15.305 -0.1079  0.1807  0.1116
15345W        W32193   2.146   1.115   0.140 -0.0638  0.1275  0.1534
15346W        W32194  15.642  12.771  10.739  0.1673  0.2062 -0.2706
15347W        W32195   0.574  16.208  13.087  0.1528 -0.0965  0.1116
15348W        W32196   0.007   0.204   4.693 -0.0125  0.0089 -0.0984
15349W        W32197   1.502   4.280  13.271  0.1688  0.1479 -0.0356
15350W        W32198   3.637  11.872  16.006 -0.2527 -0.0567 -0.0427
15351W        W32199  10.714   7.551  14.680 -0.2067 -0.1859 -0.0812
15352W        W32200  15.846   8.198   0.152 -0.2882  0.0980  0.1468
15353W        W32201   1.530  17.459   0.814  0.0549  0.1099  0.0930
15354W        W32202  14.577  11.211   1.859  0.0939 -0.1354 -0.3184
15355W        W32203   6.367  17.506   4.744  0.0286  0.0903 -0.1631
15356W        W32204   8.929   0.204   1.238 -0.2784 -0.2600 -0.0249
15357W        W32205  17.228   2.919   0.364  0.1829  0.0162 -0.1153
15358W        W32206   4.273  10.211   1.212  0.3118  0.1306  0.0970
15359W        W32207  16.221   1.877   1.614  0.2551 -0.2786 -0.0865
15360W        W32208   7.450  11.610  14.200  0.1321 -0.2522  0.0978
15361W        W32209  10.706   7.116  14.888  0.0915 -0.1591 -0.1430
15362W        W32210  12.484   9.370  10.728 -0.1685  0.1012  0.0631
15363W        W32211   4.499  14.119  13.011  0.0838  0.1030 -0.1432
15364W        W32212  12.394  12.291   0.564  0.4113  0.0841  0.4123
15365W        W32213   8.519  12.289   4.941 -0.0312  0.3290  0.1582
15366W        W32214   6.557   6.262   4.260 -0.0649  0.1822  0.0715
15367W        W32215   2.025   5.130   3.516 -0.0933 -0.5549  0.0396
15368W        W32216   5.947   2.154  13.693 -0.3322 -0.0507  0.0389
15369W        W32217  10.863   3.345   5.062 -0.3317  0.3787 -0.1749
15370W        W32218  12.603  16.912   0.362 -0.0374  0.0871 -0.0850
15371W        W32219   1.814   8.969   4.751  0.2020  0.0145 -0.2570
15372W        W32220  14.878   1.950  14.213  0.1411  0.2815 -0.1867
15373W        W32221  13.736   0.837   1.670 -0.1280 -0.1171 -0.1515
15374W        W32222  15.597  13.403   0.400  0.0321 -0.0862  0.3512
15375W        W32223   4.602   3.212   2.308  0.0299  0.2419 -0.0473
15376W        W32224  12.077   9.890   2.261  0.0282  0.2235 -0.1445
15377W        W32225   7.666   7.894   0.041 -0.0749  0.0139  0.0419
15378W        W32226  12.877   8.933   1.834 -0.2357 -0.0233  0.1004
15379W        W32227   1.702   0.012  16.114  0.2197  0.0018  0.0177
15380W        W32228  12.998   0.287  15.422  0.3006 -0.1498  0.1699
15381W        W32229  12.205   9.191   0.094  0.0251  0.0266 -0.0103
15382W        W32230   2.491  12.584  14.808  0.0749  0.2607 -0.1566
15383W        W32231  10.455   1.287  13.798  0.0696 -0.5729  0.1490
15384W        W32232  16.000   6.630   4.864  0.1517  0.1148  0.3528
15385W        W32233  12.754  17.593  16.038 -0.2222  0.0935 -0.0014
15386W        W32234   1.702   7.282   3.502  0.1820  0.0305  0.0214
15387W        W32235   7.657  14.977   4.838  0.1205  0.1057 -0.2289
15388W        W32236   7.932  15.290  14.436  0.2478  0.3198  0.2344
15389W        W32237  10.813  10.813  14.726  0.1185 -0.1595 -0.1018
15390W        W32238  17.012  10.076   0.605 -0.2245 -0.3533  0.0471
15391W        W32239  16.057   9.839  12.974  0.0120  0.0110  0.0113
15392W        W32240   1.817   5.934  16.069  0.0748 -0.0060  0.0094
15393W        W32241   8.161  14.106   5.589  0.1006 -0.1527  0.0927
15394W        W32242  12.073  10.925   2.473 -0.0758  0.0636  0.1155
15395W        W32243   6.014  13.333   3.418  0.1374  0.1148 -0.0845
15396W        W32244  12.782  16.867   1.672 -0.0575  0.1994 -0.0494
15397W        W32245  17.212   5.930  11.676 -0.0653  0.1480  0.0195
15398W        W32246   0.584   5.218   0.187 -0.1669 -0.2111 -0.0842
15399W        W32247   3.771   0.433   3.403 -0.1293 -0.4227 -0.1875
15400W        W32248   2.948   8.241   2.965  0.1055  0.0892  0.3867
15401W        W32249  13.025  17.114  13.439 -0.0878 -0.1930  0.1204
15402W        W32250   6.186  15.173   0.508  0.2688  0.2441  0.3928
15403W        W32251  16.080  10.761  13.999  0.2419  0.0550  0.0858
15404W        W32252  15.658   6.038  15.318  0.1252  0.3835  0.0054
15405W        W32253  14.353  15.285  12.937  0.1580  0.1849  0.0556
15406W        W32254  17.021   3.270   4.435  0.0326 -0.1814 -0.1018
15407W        W32255  14.682   2.958   3.455  0.1614  0.2823  0.0062
15408W        W32256  11.406  16.537  11.498  0.0544 -0.0631  0.2939
15409W        W32257   0.519   0.039   2.050 -0.0173  0.2910  0.4446
15410W        W32258  17.499  16.002   3.409 -0.0238 -0.0608  0.1040
15411W        W32259  16.796   9.350   2.769  0.1267 -0.2152  0.1640
15412W        W32260   4.847   9.013  15.928 -0.1718  0.1387 -0.0677
15413W        W32261  15.442  15.995   1.854 -0.2592 -0.0533  0.0791
15414W        W32262  10.191  13.442  11.803  0.1722 -0.1219 -0.3498
15415W        W32263   8.352   2.693  13.051 -0.2274  0.0574  0.3704
15416W        W32264   2.562   0.917  13.335 -0.1464 -0.0137  0.0593
15417W        W32265  14.347  10.600   0.261 -0.3404  0.2324 -0.1655
15418W        W32266   0.721   1.415   2.622 -0.0614  0.1095  0.1351
15419W        W32267  14.401  15.186   1.426 -0.0784 -0.1635 -0.2533
15420W        W32268   5.765   3.742  12.164  0.2514 -0.2826 -0.0197
15421W        W32269   9.916   5.837   0.077  0.0327  0.0272 -0.0837
15422W        W32270  13.829  11.905  13.889  0.1851  0.3794 -0.1062
15423W        W32271  10.280  15.788  12.095  0.3646  0.2297  0.0061
15424W        W32272   1.239   7.138   3.613  0.2138  0.3334 -0.3880
15425W        W32273   1.989  16.051   4.238 -0.1024 -0.1150 -0.3627
15426W        W32274   5.405  17.206  16.079  0.3101  0.2460 -0.0925
15427W        W32275   1.050   3.004   0.272 -0.1505  0.0353  0.1187
15428W        W32276   0.154  11.276  15.673 -0.0200  0.1701  0.0792
15429W        W32277   8.046   5.692  12.330 -0.0610  0.2505  0.0443
15430W        W32278  15.104   3.935   2.707  0.2666 -0.0531  0.0467
15431W        W32279   1.774   1.117   4.736  0.0638 -0.2120 -0.1577
15432W        W32280  14.405  11.602   4.605 -0.0399 -0.2136 -0.1396
15433W        W32281   5.123  17.637   5.617  0.0537 -0.0446  0.2122
15434W        W32282  13.838  18.021   3.238  0.2569 -0.6268  0.2212
15435W        W32283  17.298   0.324   0.035 -0.0130  0.2786  0.1254
15436W        W32284   4.129   6.970   3.516  0.1437  0.0317  0.1118
15437W        W32285   0.357  10.076   0.486 -0.2156  0.1201 -0.0301
15438W        W32286  10.081   4.704  12.687 -0.0075  0.0469  0.1976
15439W        W32287   4.500   8.083   1.692  0.1366 -0.0555  0.3643
15440W        W32288   6.636  15.872  15.948  0.0388  0.0645  0.4540
15441W        W32289   9.087  16.696   3.298  0.1324  0.1004 -0.3453
15442W        W32290   9.943  12.585   0.311 -0.0662  0.1084 -0.0040
15443W        W32291   3.745  10.320  15.504 -0.0964  0.1154  0.1796
15444W        W32292   9.032   7.717  12.089 -0.3144 -0.2038 -0.4193
15445W        W32293  11.777   4.855  14.143 -0.3629  0.0196 -0.0295
15446W        W32294   8.548  14.210   0.081 -0.0936  0.1504  0.1889
15447W        W32295   7.213  15.916  12.768  0.0128 -0.0485 -0.0068
15448W        W32296  11.593  10.610   3.302  0.0861 -0.2172  0.1360
15449W        W32297  13.753  10.197   2.224  0.0424 -0.1903  0.0369
15450W        W32298   8.166   2.641  11.049 -0.0541  0.1276  0.0810
15451W        W32299   5.642   9.666  12.132 -0.0422 -0.0945 -0.2372
15452W        W32300  17.478  13.244   1.531  0.0213  0.3249 -0.2870
15453W        W32301   5.301  11.189  14.209  0.1985  0.0536  0.1061
15454W        W32302  17.800  12.628  14.568  0.1006 -0.0514  0.1481
15455W        W32303   8.823  14.355  12.539 -0.0940 -0.1788 -0.0588
15456W        W32304   9.898  16.395  15.199 -0.1138 -0.1202 -0.0283
15457W        W32305   1.638   4.233   5.570  0.1596  0.0064  0.0583
15458W        W32306   9.261   2.741  12.951  0.3051  0.2696  0.1346
15459W        W32307  17.203  10.131  12.520 -0.1628 -0.1159  0.0294
15460W        W32308  12.936  12.732  11.893  0.2780 -0.2159  0.0037
15461W        W32309  16.762   6.582  11.603  0.3244  0.0656  0.1919
15462W        W32310   7.357   3.177   1.594  0.1327 -0.1615  0.1431
15463W        W32311   3.866  10.987   1.535 -0.2456 -0.2406 -0.2395
15464W        W32312  10.469  16.449   2.250  0.1575  0.1465 -0.0526
15465W        W32313  13.923  16.505  12.572 -0.3207 -0.0804 -0.0451
15466W        W32314   4.501   7.339  14.733  0.1354 -0.3799 -0.0555
15467W        W32315  14.844   1.078  12.799  0.0301 -0.0643 -0.2499
15468W        W32316   8.785   1.445   0.110 -0.0962 -0.2847 -0.0171
15469W        W32317  14.358   8.285   1.066  0.1680  0.0724 -0.0740
15470W        W32318   9.809   7.557   2.343  0.0178 -0.3397  0.1221
15471W        W32319   9.379   4.138   1.462  0.0532  0.0663 -0.0970
15472W        W32320   5.367  16.884  11.226  0.1591  0.0828 -0.1619
15473W        W32321   8.736  10.594  11.394  0.1663 -0.0747 -0.1952
15474W        W32322   0.316   2.229   5.066 -0.0415  0.2920 -0.0214
15475W        W32323  13.675  17.065  14.483 -0.0484  0.1058  0.2794
15476W        W32324   2.075   0.238  15.973 -0.1243  0.1550 -0.1605
15477W        W32325  15.161   6.219   2.413 -0.0672 -0.1049 -0.1639
15478W        W32326   9.335   0.693  11.890  0.0055  0.0335  0.2909
15479W        W32327   4.688  10.437   1.736  0.0516 -0.0745 -0.0064
15480W        W32328   7.579  12.422  12.918 -0.0132 -0.0223 -0.2842
15481W        W32329   3.653  15.396  14.467 -0.3001 -0.1552  0.1196
15482W        W32330  17.965   9.766  12.836 -0.0018  0.1186  0.4257
15483W        W32331  11.387  14.630   2.700  0.0569 -0.1949 -0.0644
15484W        W32332   1.777  13.091   4.093  0.1095  0.1053  0.0479
15485W        W32333   0.400   6.127  15.602  0.0136 -0.1415 -0.2254
15486W        W32334   1.116   2.509  13.828 -0.0173 -0.1071  0.0393
15487W        W32335  10.443  17.032   4.814  0.0757 -0.3975 -0.0895
15488W        W32336   6.559   7.402  12.927 -0.3144  0.1529  0.0057
15489W        W32337   5.933   0.366  10.998  0.1608  0.2258 -0.2982
15490W        W32338  17.393  10.223   1.897 -0.0054 -0.1238  0.0510
15491W        W32339  11.709   2.969  14.132 -0.1301 -0.2067 -0.1596
15492W        W32340   6.904   0.708   4.931  0.1491 -0.0905 -0.0806
15493W        W32341  11.271   5.824  14.803 -0.0394  0.0483 -0.1415
15494W        W32342   2.837   8.875  12.486  0.0030  0.0650 -0.0026
15495W        W32343   6.868   4.560  11.355 -0.4241 -0.0487 -0.0853
15496W        W32344   2.279   8.748   4.528 -0.1303  0.1447  0.1176
15497W        W32345   9.809   2.434   1.705  0.2606 -0.1584  0.2581
15498W        W32346   2.518  16.463   3.701  0.1824 -0.2061  0.1399
15499W        W32347   9.780   1.744  10.963  0.1506  0.2380 -0.2969
15500W        W32348   2.719   2.836  15.571  0.3330  0.1284  0.0284
15501W        W32349  15.367   2.091   5.609 -0.1764  0.1604 -0.2210
15502W        W32350  14.458   0.438   4.375 -0.2354 -0.2171  0.0206
15503W        W32351  14.303  11.087   0.353 -0.4382 -0.0454  0.3129
15504W        W32352   1.104   5.054  15.456 -0.0550 -0.0070  0.1097
15505W        W32353   0.939   0.381  14.935 -0.0049 -0.0814  0.2891
15506W        W32354  13.616   5.495  13.042  0.1594 -0.0012  0.1598
15507W        W32355  11.404   9.753   4.460 -0.0725 -0.2289 -0.1990
15508W        W32356   9.173  13.301  13.635  0.1432  0.0677  0.0166
15509W        W32357  15.214   1.303  11.841  0.1069  0.3319 -0.2634
15510W        W32358  12.937   5.481   3.576  0.1853 -0.2849  0.1203
15511W        W32359   6.971  16.532   4.634 -0.1180  0.0251  0.0727
15512W        W32360   1.381   3.055  13.999  0.1728  0.0010  0.1822
15513W        W32361  11.875  14.129   3.412  0.1806 -0.0638  0.1201
15514W        W32362  17.389   8.612   5.703 -0.0088 -0.0191 -0.0579
15515W        W32363  14.242  10.423   2.027  0.0728 -0.4174  0.1090
15516W        W32364   6.083  15.636  15.073 -0.2882  0.3330  0.2011
15517W        W32365   4.395  15.302  12.376  0.1339 -0.0936 -0.1849
15518W        W32366   0.085   1.560   3.328  0.1376 -0.1191 -0.1664
15519W        W32367   4.152  16.311   2.847  0.0550  0.0504  0.3131
15520W        W32368   6.737   9.964  10.269 -0.1568  0.2935  0.0121
15521W        W32369  15.230   0.700  12.813  0.0132 -0.0510 -0.0814
15522W        W32370   9.454  11.864  13.312  0.1237 -0.1496 -0.0836
15523W        W32371   1.646   1.795   2.795  0.1395 -0.1541 -0.2907
15524W        W32372   8.391   9.540   0.423 -0.1787 -0.0534 -0.0389
15525W        W32373  15.974   5.085  14.887 -0.0344 -0.0684  0.1070
15526W        W32374   5.317  14.507  14.365  0.1903  0.0767  0.3041
15527W        W32375  13.272  10.272  12.776  0.1079 -0.3545 -0.0274
15528W        W32376  11.429  17.373   3.864 -0.0213  0.1101  0.1190
15529W        W32377  13.578   3.671  11.618 -0.1762 -0.0417  0.0378
15530W        W32378  11.329   8.390   4.859 -0.2380  0.1925  0.1121
15531W        W32379   2.839  15.563   2.563  0.0665  0.0117 -0.4202
15532W        W32380  10.306  14.889   3.870  0.0853  0.1878 -0.2152
15533W        W32381  10.050   3.864  14.540  0.0858  0.0558  0.3372
15534W        W32382   2.142   3.630  12.406 -0.0312 -0.0085  0.2636
15535W        W32383  16.118   7.677   5.034 -0.2698 -0.1016 -0.2603
15536W        W32384  13.132   1.231  10.855  0.1232  0.0467  0.0462
15537W        W32385   2.408   5.605  12.777  0.4488 -0.1686  0.0206
15538W        W32386   4.212   4.761   1.957 -0.1184 -0.0141 -0.1168
15539W        W32387  17.714  16.877  11.191 -0.2480  0.3389  0.2029
15540W        W32388   0.338  11.569   3.965  0.1108 -0.3708  0.0003
15541W        W32389   0.657   7.538  11.536 -0.0509 -0.2109  0.0109
15542W        W32390   7.694  14.926   5.402  0.0983  0.0048  0.1845
15543W        W32391  11.561   4.936  11.739  0.1080 -0.0229  0.3465
15544W        W32392  13.087  14.568   2.111  0.0702 -0.0394  0.1057
15545W        W32393  17.893  12.166  15.960  0.0083  0.0097  0.1157
15546W        W32394  15.751  17.818  13.871 -0.2955 -0.1572  0.2514
15547W        W32395   8.105   9.984  14.055  0.3587 -0.2041  0.1019
15548W        W32396  11.797   2.456  13.285 -0.1960  0.0978  0.4161
15549W        W32397   8.009   9.929  13.423 -0.3549  0.3329 -0.2662
15550W        W32398   2.818   1.353  15.351 -0.1637  0.3892 -0.0241
15551W        W32399   3.589  14.589  13.126 -0.0727 -0.2461 -0.2471
15552W        W32400  12.295  15.620  14.936 -0.0580 -0.0401 -0.3281
15553W        W32401   7.682   0.912  15.152 -0.1517  0.6083  0.0057
15554W        W32402  16.125   5.991   1.013  0.0743 -0.1754  0.0630
15555W        W32403  13.519   8.380   3.865  0.0484  0.0267 -0.0280
15556W        W32404   2.815  15.668  13.624 -0.1110 -0.1895 -0.2612
15557W        W32405   7.388   8.222   2.033 -0.0689  0.2775  0.4531
15558W        W32406   9.552   2.098  15.032 -0.1660 -0.1698  0.2436
15559W        W32407  16.337  16.129  11.520 -0.2531 -0.0187  0.1842
15560W        W32408   6.891  12.851   6.283  0.1258  0.1783  0.1719
15561W        W32409   5.620   2.549  12.780 -0.0063  0.1529 -0.0310
15562W        W32410  14.786   0.099  16.028 -0.0144  0.0951  0.0847
15563W        W32411  16.792   3.095   0.139  0.1609  0.2749 -0.2651
15564W        W32412  11.295   8.175  15.137  0.3012  0.1120 -0.0978
15565W        W32413  15.412   5.397   4.901 -0.2553  0.0374  0.1851
15566W        W32414   5.176   8.993  15.581 -0.0113  0.0511  0.2735
15567W        W32415  17.119   0.552   1.359 -0.0674  0.2885 -0.3315
15568W        W32416   1.237  11.698   0.080 -0.1555  0.0433  0.0233
15569W        W32417  11.242   2.606   2.288 -0.2391 -0.1017  0.1251
15570W        W32418  16.643  15.567   4.409 -0.1745  0.2464  0.0535
15571W        W32419   2.174   8.522   4.982 -0.1380 -0.0353  0.0402
15572W        W32420   6.703   2.016   2.731 -0.0314  0.2009  0.1774
15573W        W32421  12.439   3.301   4.715 -0.0900  0.2248 -0.3373
15574W        W32422   7.863   6.242  15.343  0.0071  0.0359 -0.2193
15575W        W32423   3.612  14.992  14.852 -0.2245 -0.1521  0.2468
15576W        W32424  16.763  16.290   2.009  0.0179  0.0667  0.0376
15577W        W32425   3.925  11.270  16.117  0.1599 -0.0576  0.2195
15578W        W32426   5.664  14.253   2.725 -0.1355 -0.1235  0.1128
15579W        W32427  11.391   1.885  12.351 -0.3482  0.1227  0.3867
15580W        W32428   6.817   7.190   1.602 -0.0350  0.2882  0.3028
15581W        W32429  16.657   0.791   1.239 -0.0532  0.1988 -0.2085
15582W        W32430   0.688  10.849  11.234 -0.1383  0.2843  0.1824
15583W        W32431  13.320  13.654   1.574  0.1543  0.0805 -0.1773
15584W        W32432  15.018  11.191   2.471 -0.1741  0.1314  0.0323
15585W        W32433   4.235   3.297  13.646 -0.0592 -0.0588 -0.0490
15586W        W32434   4.302  11.303   0.748  0.0228  0.0638 -0.5277
15587W        W32435   6.002  13.158  14.107  0.1140 -0.1771 -0.0362
15588W        W32436   5.557   6.707  16.001  0.1155  0.0755  0.0141
15589W        W32437  13.494   1.699  11.472  0.1390 -0.0366  0.0242
15590W        W32438  15.299  12.412   1.771  0.0773 -0.3376 -0.2850
15591W        W32439  12.013  13.840   2.980 -0.0848 -0.0757 -0.0119
15592W        W32440  16.331   6.749   1.334 -0.1170 -0.3198 -0.3893
15593W        W32441   0.660   4.042  15.159 -0.3310 -0.1755 -0.0343
15594W        W32442  17.909  17.969   3.832  0.2058  0.0385 -0.0291
15595W        W32443   7.793   7.012   1.792  0.0034  0.0194 -0.0313
15596W        W32444  11.062  11.785  13.127 -0.0049  0.0112 -0.3244
15597W        W32445   6.843  11.759   2.757  0.0714 -0.1594  0.0026
15598W        W32446   7.910   7.694   3.042 -0.3055 -0.2648 -0.0068
15599W        W32447  14.785  10.884  15.971 -0.1164  0.2002 -0.1942
15600W        W32448  15.939  11.968  11.068 -0.3303 -0.4249 -0.3436
15601W        W32449   4.242  11.433   3.268  0.0863 -0.0161 -0.0725
15602W        W32450   7.827  16.070   3.509  0.2236 -0.0849 -0.2295
15603W        W32451   1.886   3.543   0.758  0.0231 -0.2354 -0.2234
15604W        W32452   1.514  11.701  15.840  0.0556 -0.1681  0.1571
15605W        W32453  16.803  14.712  12.177  0.1616  0.0381  0.0023
15606W        W32454  13.210   4.445  11.872 -0.0153 -0.2253 -0.0103
15607W        W32455   7.727   4.503   0.466 -0.2027 -0.0215  0.0287
15608W        W32456   5.273   2.355  10.789  0.4759  0.2226 -0.0652
15609W        W32457  17.771  13.682  13.925 -0.0211 -0.1765  0.0440
15610W        W32458   7.014   7.944   1.095  0.2488 -0.0478  0.2462
15611W        W32459   7.502  17.266   6.319  0.1000 -0.0666 -0.0549
15612W        W32460   5.231   9.174  13.798 -0.1790 -0.1548  0.1851
15613W        W32461   8.760   0.403  13.780  0.0967 -0.1483  0.3020
15614W        W32462   2.733   4.508  16.040 -0.0721  0.1174 -0.1882
15615W        W32463  17.767  12.484  10.929 -0.2502  0.0361 -0.1296
15616W        W32464   0.402  12.114   4.129  0.0781 -0.0044  0.1911
15617W        W32465   6.050   2.830  13.018  0.1773 -0.1214  0.0221
15618W        W32466   7.496   8.922  13.930 -0.1892 -0.0984  0.2350
15619W        W32467  14.726   9.166  10.508 -0.1097  0.0157 -0.0023
15620W        W32468   0.986   2.810   1.537 -0.2120  0.2885  0.1567
15621W        W32469   2.898  10.046   4.802 -0.1569 -0.5021  0.3153
15622W        W32470   4.522   5.593   5.083 -0.0575  0.1775 -0.2650
15623W        W32471   4.165   9.587   3.891 -0.2248 -0.0385  0.1546
15624W        W32472   5.465   2.912   0.849  0.3128  0.1884  0.2188
15625W        W32473  14.656  14.070  10.974 -0.2161 -0.0123 -0.0162
15626W        W32474  12.930  17.305   1.552  0.3528  0.0391 -0.0124
15627W        W32475   6.510  10.710  13.420  0.2850  0.1062 -0.0820
15628W        W32476   0.636   5.771   4.115 -0.0518 -0.2995 -0.0434
15629W        W32477   9.479   2.420   3.641 -0.0767  0.3268 -0.1170
15630W        W32478   0.455   4.638  15.052  0.0725  0.0883 -0.0874
15631W        W32479   5.205   0.875  10.550  0.4081  0.0169  0.1770
15632W        W32480  16.355   1.063   0.995  0.2313 -0.1898 -0.0455
15633W        W32481   5.127  16.844  14.885 -0.0958  0.3287 -0.1047
15634W        W32482  15.811  15.934   1.457  0.3551  0.1755 -0.2245
15635W        W32483   4.156   8.526   3.673 -0.4607 -0.2648 -0.0101
15636W        W32484   1.311  17.938   4.566  0.0307  0.3785  0.4855
15637W        W32485   3.704  14.549   4.028 -0.0528 -0.0681  0.1564
15638W        W32486   0.112   6.855   5.019  0.1443 -0.0247 -0.2000
15639W        W32487   7.344   2.187   3.252 -0.1839 -0.3082  0.1349
15640W        W32488   9.162  13.331   1.347 -0.0649 -0.1267  0.0815
15641W        W32489   4.464  17.040  10.788 -0.1337 -0.0280  0.1140
15642W        W32490  13.948   2.740  13.541 -0.0308 -0.1272  0.0080
15643W        W32491   2.505  10.861  12.298  0.0725 -0.1792  0.0913
15644W        W32492   9.515   5.854  15.286 -0.2433 -0.3236 -0.5243
15645W        W32493   5.691  12.267  14.707  0.0757  0.0511  0.0364
15646W        W32494  11.144   7.346   2.656  0.3022  0.2397 -0.0146
15647W        W32495   0.431  13.804  12.125  0.0413 -0.0795 -0.1435
15648W        W32496  15.453  12.496  12.650 -0.0005 -0.1225  0.3794
15649W        W32497   4.207   8.261   4.566 -0.4210 -0.1950 -0.2473
15650W        W32498  13.021  13.805  13.427  0.3049  0.0969 -0.1850
15651W        W32499   7.469   5.735   4.726  0.1985  0.3687  0.0877
15652W        W32500   5.227  10.629   2.468 -0.0363 -0.0130  0.0201
15653W        W32501   9.949  12.658  15.373 -0.3167 -0.0334  0.0751
15654W        W32502  12.148   9.192   1.461 -0.0158  0.1121  0.0625
15655W        W32503   6.485  14.294   2.494 -0.2349  0.1798  0.2663
15656W        W32504   9.350   3.440   4.551  0.1624  0.0923  0.3634
15657W        W32505   4.033  12.528   2.363 -0.2123  0.1325 -0.1054
15658W        W32506   0.080   1.594   0.570 -0.0564 -0.0952  0.1676
15659W        W32507  12.944   6.757  13.835  0.1257  0.1169  0.1171
15660W        W32508  17.070   7.967  15.519  0.0394 -0.1250  0.2977
15661W        W32509  16.157  11.235   0.040  0.3132  0.1049 -0.0194
15662W        W32510  16.109   8.245   1.208 -0.0253  0.2134 -0.0136
15663W        W32511   2.434  17.168   4.934 -0.1834 -0.1925  0.0576
15664W        W32512   6.122  12.948   1.247  0.0144 -0.2431  0.1850
15665W        W32513  15.610  12.408   0.841  0.2010 -0.0079 -0.3837
15666W        W32514   7.379   6.435  11.586  0.0749 -0.1613  0.0985
15667W        W32515   7.624   9.065   1.441  0.2021  0.2069 -0.2174
15668W        W32516  13.329   3.833   4.295  0.1486 -0.0798 -0.1135
15669W        W32517  12.431   3.136   2.367  0.1429 -0.0312  0.0750
15670W        W32518  15.446  14.243   1.746 -0.0628  0.0593  0.1838
15671W        W32519  15.629  16.012   3.749  0.3146  0.1166  0.1497
15672W        W32520   4.860   3.217   3.708  0.0608 -0.0590 -0.1220
15673W        W32521   2.380   1.935  15.858 -0.1838 -0.0840  0.1207
15674W        W32522  17.830   8.084   3.921 -0.0186 -0.1451  0.2387
15675W        W32523   6.980  17.191   2.866 -0.2731  0.2028 -0.1057
15676W        W32524   3.218  13.102  13.485  0.1560 -0.2382  0.1484
15677W        W32525  12.561   5.783   3.356 -0.1054 -0.1852  0.1055
15678W        W32526  16.820   7.881   2.850  0.1507 -0.0774 -0.1089
15679W        W32527   9.603   9.345   3.831  0.1102  0.0434 -0.0415
15680W        W32528   9.136  14.314  14.321 -0.1730 -0.1810  0.0227
15681W        W32529  15.173   2.164   3.010 -0.1020  0.4954  0.3076
15682W        W32530   6.867   3.237  14.303 -0.0891  0.0103  0.0010
15683W        W32531  10.651  11.569   1.445  0.1068  0.1967  0.0978
15684W        W32532   3.883  16.745   4.705  0.0636  0.0289  0.0644
15685W        W32533   7.197  12.087  12.980  0.1562  0.2382  0.2509
15686W        W32534  17.856   2.995   0.058 -0.1448 -0.1892  0.0648
15687W        W32535   3.503   0.096  14.800  0.0828 -0.0063 -0.1376
15688W        W32536   9.042   9.531   0.956 -0.0511  0.1441 -0.1715
15689W        W32537   3.098   0.910   0.049  0.1253  0.2217  0.1413
15690W        W32538  12.476   2.159   3.385 -0.4317  0.1046  0.1858
15691W        W32539   2.497   5.232   3.583 -0.0633 -0.1107 -0.1408
15692W        W32540   7.365   0.490  15.962 -0.0559  0.2473 -0.0991
15693W        W32541   2.594  11.948   1.868  0.3472  0.0043 -0.0060
15694W        W32542  11.305   4.111   4.483  0.4574 -0.2039  0.1570
15695W        W32543  15.810  14.652  15.357 -0.2038  0.3819 -0.0212
15696W        W32544   2.441   0.456   3.039  0.0345 -0.1000 -0.0474
15697W        W32545   0.603   1.007   5.144 -0.0602 -0.2099 -0.0095
15698W        W32546  17.988  10.226   5.167 -0.0082 -0.1163 -0.2115
15699W        W32547  17.278   3.690  14.393 -0.4040  0.1391  0.1115
15700W        W32548   3.874  10.501  15.953 -0.1275 -0.2138 -0.0047
15701W        W32549  12.808   9.944   3.376  0.2528  0.2150  0.0349
15702W        W32550   5.509   3.591  14.800  0.0596  0.0956  0.1952
15703W        W32551  12.234  10.108  12.532  0.1379  0.2038  0.0312
15704W        W32552   5.492   7.700   2.752 -0.1789 -0.1132 -0.1296
15705W        W32553  10.686   6.481   1.040 -0.0242  0.0953  0.0033
15706W        W32554  10.368  16.019   4.785 -0.0231 -0.2781 -0.1082
15707W        W32555   2.040   8.069   3.402  0.1660 -0.0459  0.1333
15708W        W32556   5.337  11.388   4.560 -0.2016 -0.3148 -0.4542
15709W        W32557  14.914   3.331  14.540  0.1362 -0.1799  0.1544
15710W        W32558   3.790   6.525  13.606 -0.0095  0.0189  0.0851
15711W        W32559  14.960   4.393  11.423 -0.0184  0.3639 -0.2034
15712W        W32560  11.543  17.800   2.093  0.0494 -0.0600  0.0562
15713W        W32561  11.086   8.730  16.151  0.0211  0.0234  0.1492
15714W        W32562   6.962  16.745  15.971  0.1100  0.2882  0.1504
15715W        W32563  13.542   1.586   4.757 -0.0013  0.0047  0.1507
15716W        W32564  13.035  11.919  11.739  0.0953  0.3704  0.0432
15717W        W32565   2.636  15.254   4.056 -0.0071  0.3647  0.1036
15718W        W32566  11.335   5.127  14.335 -0.1147  0.2099  0.2564
15719W        W32567  17.909  11.836   2.743 -0.1464 -0.1857  0.1600
15720W        W32568  12.878   5.381   5.131 -0.1927 -0.3435  0.2169
15721W        W32569  13.495  16.020  13.606  0.1776 -0.3503  0.1649
15722W        W32570  11.617   2.772  14.857 -0.0960  0.5551  0.0784
15723W        W32571   6.732   2.367   4.824 -0.2116 -0.1426  0.1214
15724W        W32572  15.565   7.763  15.697  0.3262  0.1292  0.1342
15725W        W32573  16.637  15.262   3.135 -0.1040  0.2504 -0.3638
15726W        W32574   4.834  15.619  12.269  0.1342 -0.0443 -0.4290
15727W        W32575   2.506   4.752  14.056 -0.3038  0.2580  0.0236
15728W        W32576  14.533   5.841   0.145 -0.1550 -0.2616  0.0545
15729W        W32577   6.613   4.229   1.783 -0.0843 -0.2479  0.1586
15730W        W32578   1.414   8.943   1.816 -0.0241  0.3312  0.0118
15731W        W32579  13.235   4.422  10.541 -0.0074 -0.1960 -0.0651
15732W        W32580   6.703   9.878   0.595  0.0730  0.0227 -0.1978
15733W        W32581   2.762   6.271   0.144  0.0909  0.1295  0.0478
15734W        W32582   7.631   4.174   1.931  0.0381  0.1589  0.0775
15735W        W32583   2.078   1.871  13.729  0.1421  0.3632  0.0598
15736W        W32584  10.144   2.098  11.716 -0.2322  0.2527 -0.1610
15737W        W32585  11.538  16.636   4.563  0.1446 -0.1887 -0.2393
15738W        W32586   1.987  12.909  15.455  0.2263 -0.1620 -0.1418
15739W        W32587  17.876  14.617   1.743 -0.0761 -0.0871 -0.0649
15740W        W32588  10.477   3.962  12.714  0.0053 -0.0835  0.1121
15741W        W32589   4.825  13.833  10.947 -0.0130 -0.2223  0.0519
15742W        W32590  14.725  17.353   1.795 -0.1417 -0.0750 -0.0487
15743W        W32591  11.760  16.144  15.288 -0.1649  0.0172 -0.0626
15744W        W32592   7.237   9.060   0.396 -0.1737 -0.1251 -0.0105
15745W        W32593   1.912   1.803   0.201 -0.1153 -0.0401  0.0786
15746W        W32594   4.077   0.111  13.310 -0.0402  0.0043  0.4558
15747W        W32595  17.186   3.766   0.413  0.3651 -0.4736 -0.3957
15748W        W32596   9.759   7.448   1.514  0.1281 -0.0244 -0.2610
15749W        W32597   3.381   0.611  12.569 -0.2831  0.1502  0.0359
15750W        W32598   9.116  12.682  10.463 -0.4911  0.2217  0.0752
15751W        W32599   3.551   4.351  13.563 -0.0397 -0.0323  0.2701
15752W        W32600  17.340  13.643  11.530 -0.2366 -0.2474 -0.3884
15753W        W32601  12.980  15.963   5.232 -0.0946  0.1764  0.1238
15754W        W32602  13.568  15.210   0.339  0.0278 -0.0191 -0.0181
15755W        W32603   9.629   3.622  12.017  0.1549  0.2944 -0.2302
15756W        W32604  17.331   4.246   1.228  0.1305  0.0561 -0.0465
15757W        W32605  17.995   8.974   3.026 -0.3507  0.0100  0.6988
15758W        W32606   7.552   8.711  10.549  0.0833  0.1528  0.1301
15759W        W32607   1.108  10.570   3.850  0.0914  0.0904 -0.0050
15760W        W32608   1.071   0.730   0.963 -0.0915 -0.0955  0.1659
15761W        W32609   9.359   5.340  15.245 -0.1665 -0.2942  0.0247
15762W        W32610  10.477  12.386  15.230  0.1003 -0.1458 -0.3618
15763W        W32611  10.810   4.472   3.308  0.1249 -0.1007  0.1428
15764W        W32612   1.167  10.083   1.782  0.0895  0.1114  0.0036
15765W        W32613  15.897  10.932   2.312  0.1874 -0.2065  0.0529
15766W        W32614   5.897   2.096   1.975 -0.0083  0.3203 -0.1293
15767W        W32615  15.014  16.493  14.084 -0.1311  0.1609  0.1434
15768W        W32616  11.528  14.357  12.180  0.1221 -0.3157 -0.0435
15769W        W32617  17.806   9.143  12.374  0.2734 -0.0241  0.3986
15770W        W32618  10.180  16.804  15.011  0.3230  0.1533 -0.0689
15771W        W32619  13.641   0.598  12.639 -0.1225 -0.0477 -0.7064
15772W        W32620  10.158   4.998  14.846  0.2034  0.0749 -0.2287
15773W        W32621   7.353   4.467  15.626  0.1264 -0.0867  0.0538
15774W        W32622   1.000  14.883   3.987 -0.1072 -0.1812 -0.1492
15775W        W32623  13.183   0.709   1.263  0.2432 -0.0842 -0.0576
15776W        W32624  14.509  17.987   2.345 -0.0504 -0.0343 -0.1001
15777W        W32625  10.438  13.861   5.555  0.0364 -0.0003  0.2600
15778W        W32626   1.231   1.072   1.732 -0.1052  0.2442 -0.2009
15779W        W32627   0.633   4.330   0.397 -0.1999 -0.2263  0.5618
15780W        W32628   5.874  12.324   1.264 -0.2491  0.0363 -0.4763
15781W        W32629   3.312   1.694  13.488  0.0984 -0.4313 -0.1362
15782W        W32630   4.207   2.630  15.379 -0.1171 -0.0180 -0.1190
15783W        W32631   3.367   0.564   5.512 -0.0325  0.1993  0.3329
15784W        W32632   1.203  12.357  13.400  0.1289  0.1499  0.0536
15785W        W32633   7.096  14.159   5.685  0.2374 -0.1399 -0.1011
15786W        W32634   9.136  15.176  15.372  0.0921 -0.1359  0.0670
15787W        W32635   3.729  12.392   4.279 -0.0743  0.0329  0.0031
15788W        W32636   3.026   3.289   3.064  0.1519  0.0253 -0.1340
15789W        W32637   9.444  12.818  11.748  0.0685 -0.3854 -0.1280
15790W        W32638   8.768   5.854  10.329  0.1238  0.0467  0.1722
15791W        W32639  16.271   6.750  15.214  0.0280  0.2107  0.3706
15792W        W32640  16.357  10.725  14.913  0.0339  0.0639  0.2266
15793W        W32641   7.538  10.407   0.670 -0.3358  0.1588 -0.1640
15794W        W32642   1.757   1.937  14.134  0.0960 -0.0527 -0.2594
15795W        W32643  10.219  18.047  15.397  0.0070 -0.2221  0.1617
15796W        W32644   6.753   7.892  11.178  0.1290 -0.3209 -0.1052
15797W        W32645   3.539   3.532  12.475  0.1852 -0.0790  0.1240
15798W        W32646   4.136  11.301   5.269  0.0014 -0.0927 -0.1617
15799W        W32647   9.362  16.610  12.465  0.2004  0.1292 -0.1932
15800W        W32648   7.082   1.724   1.529 -0.1616 -0.0057 -0.2637
15801W        W32649  17.822  11.163  16.117  0.2277 -0.1639 -0.0935
15802W        W32650   4.983  16.008   0.900 -0.2134 -0.0215 -0.1625
15803W        W32651   1.165  17.485   0.418  0.1954  0.1085 -0.1706
15804W        W32652   7.709  14.790  11.632  0.0282 -0.1733 -0.1294
15805W        W32653  16.418   7.811   1.302  0.0741 -0.1453 -0.1201
15806W        W32654   4.765   9.820  15.233 -0.1073 -0.0289 -0.1515
15807W        W32655   1.998   5.805   2.382 -0.0416  0.0894 -0.0296
15808W        W32656  14.507  14.714   1.612 -0.0451 -0.0058  0.3187
15809W        W32657   5.644   0.517  14.195 -0.0748 -0.0414 -0.2620
15810W        W32658  10.182   3.692  13.270  0.2877 -0.3074  0.2921
15811W        W32659  14.318  13.431   1.472  0.1369  0.1083  0.0824
15812W        W32660   8.383   0.024   5.329 -0.1950 -0.3403 -0.2810
15813W        W32661   6.294   6.061  13.547 -0.1330 -0.1574 -0.1916
15814W        W32662  13.582   3.848  14.334  0.3275  0.1577 -0.1215
15815W        W32663   6.043   0.613  14.567  0.0977  0.1852  0.0889
15816W        W32664   9.641   9.228   1.723  0.2266 -0.0547  0.0593
15817W        W32665   6.093  14.610  15.212  0.1086  0.1497  0.0767
15818W        W32666   6.561  12.301   3.025 -0.1350 -0.2075 -0.0410
15819W        W32667  14.884  13.131  15.671  0.1502  0.0575 -0.0257
15820W        W32668   0.584   0.177  12.552 -0.1571  0.0755 -0.2842
15821W        W32669  15.189   5.662   3.392 -0.1288  0.1450  0.1317
15822W        W32670   4.563   5.865   1.145 -0.1373  0.1239  0.1039
15823W        W32671  12.161   3.967  15.537  0.1002 -0.0314  0.0551
15824W        W32672   5.216  11.074   0.607 -0.1229  0.3935  0.1388
15825W        W32673  12.801   5.142  15.358  0.0484  0.1221 -0.0590
15826W        W32674  12.080  14.927  13.441 -0.3418 -0.1900  0.0738
15827W        W32675  10.667  13.134   2.856  0.1092  0.0099 -0.0393
15828W        W32676  10.514   2.288  12.219 -0.0500  0.1127 -0.1501
15829W        W32677   5.840  14.976   5.130 -0.1712 -0.1062  0.1417
15830W        W32678   7.105  14.931   2.401  0.1920  0.2056  0.0670
15831W        W32679   7.775  11.443   1.296  0.1104 -0.0807 -0.0232
15832W        W32680   6.229   6.285  14.960 -0.1418 -0.1558 -0.2300
15833W        W32681  14.326   2.624  14.600  0.0135 -0.0028 -0.3456
15834W        W32682   6.616   3.426  15.116 -0.0813  0.0877  0.0252
15835W        W32683  11.131  14.197  11.821 -0.0480 -0.2760  0.0734
15836W        W32684   3.845   5.059   3.872 -0.0834 -0.2346 -0.0547
15837W        W32685  10.773   8.599  13.201 -0.3720 -0.2493  0.0232
15838W        W32686  10.477  12.855  13.396  0.1548 -0.1654 -0.1190
15839W        W32687  15.680  14.743  14.022  0.0792 -0.0485 -0.3823
15840W        W32688  18.016   7.210   0.282  0.0803  0.0072  0.0420
15841W        W32689  17.393  14.160  12.992  0.2375  0.1585  0.0640
15842W        W32690  12.832   7.504   1.021 -0.0534 -0.1630 -0.0136
15843W        W32691   8.364   5.341   1.925 -0.0497 -0.4445 -0.2779
15844W        W32692   3.875  17.692   1.346 -0.0721 -0.0625 -0.1356
15845W        W32693  14.129   7.818  15.590  0.0124  0.1159  0.1214
15846W        W32694  17.212  10.153  13.388  0.0651 -0.0600 -0.0831
15847W        W32695  12.989  10.465   4.673  0.0798  0.1071  0.1874
15848W        W32696  11.643  11.792   2.380 -0.1582  0.3349  0.1872
15849W        W32697   8.798   7.126   2.051  0.2053 -0.2675  0.3101
15850W        W32698  12.897  16.456   0.245 -0.0950  0.0801  0.4067
15851W        W32699   1.999   7.567  11.258 -0.2564 -0.3147  0.3850
15852W        W32700  11.964  15.480  10.973  0.1502 -0.2321  0.2141
15853W        W32701   0.110   7.997  12.162 -0.1757 -0.1031  0.3602
15854W        W32702  17.535  14.050  12.420  0.0198  0.0701 -0.3030
15855W        W32703   8.893   8.067   1.265 -0.1383  0.0098 -0.1896
15856W        W32704   6.943   8.997   0.781 -0.0745  0.0801 -0.0874
15857W        W32705   7.876   6.266   5.253  0.2258 -0.1872 -0.0539
15858W        W32706  16.048   9.792   2.290 -0.0400 -0.0715 -0.0580
15859W        W32707  17.179  14.853   1.233 -0.0621  0.1850 -0.2497
15860W        W32708   4.945  11.317   2.467 -0.2848  0.1595  0.0197
15861W        W32709  17.887   0.164  14.720  0.1394 -0.1088  0.0382
15862W        W32710  15.703   6.975   4.108 -0.3412  0.1018  0.0368
15863W        W32711   8.979  12.408   3.479  0.0079  0.1722 -0.1537
15864W        W32712  15.878   3.566  13.045 -0.1003 -0.0584 -0.0525
15865W        W32713   8.074   1.684   2.872  0.0264  0.0061  0.3193
15866W        W32714   2.219  11.042   4.698 -0.1652 -0.5497  0.0281
15867W        W32715   3.377   9.543   4.457  0.0861  0.2133  0.0923
15868W        W32716   2.679   6.862  14.383  0.0171 -0.2409  0.1304
15869W        W32717  10.704   3.078   0.789 -0.4567  0.0335 -0.3556
15870W        W32718   7.781  11.647  12.191  0.0154 -0.0294 -0.1407
15871W        W32719   7.181  13.024   1.492 -0.0415 -0.1966  0.2381
15872W        W32720   9.288  12.129  12.521  0.1190 -0.2532  0.0145
15873W        W32721   1.541  11.587  13.723 -0.0995 -0.0440 -0.2182
15874W        W32722  11.065   1.221   2.818  0.2019 -0.0952 -0.2341
15875W        W32723   0.672  16.714  14.484 -0.3285  0.1614 -0.4238
15876W        W32724  15.093  15.241   1.136  0.0211  0.1906 -0.0521
15877W        W32725  17.839  14.816   0.592 -0.0439 -0.0983 -0.1164
15878W        W32726   3.956   1.416   3.668  0.0304  0.0735 -0.1531
15879W        W32727   2.767  12.787  12.555 -0.1550  0.0691 -0.2020
15880W        W32728   8.366   9.566   2.608 -0.1424 -0.0082 -0.1051
15881W        W32729   0.974   1.846  16.088  0.3047  0.3382  0.1474
15882W        W32730  15.668   7.210   2.459  0.3442  0.1375 -0.0780
15883W        W32731   3.034   5.133   3.591 -0.1794 -0.0642 -0.4227
15884W        W32732   9.423  15.692   4.061 -0.0285 -0.1416  0.2335
15885W        W32733  13.036   6.447   3.670  0.0776  0.1875 -0.2976
15886W        W32734  16.644   3.972  13.822  0.3712 -0.4599  0.0446
15887W        W32735   0.025   1.241   3.725 -0.1168 -0.1535  0.0047
15888W        W32736   7.793   1.735   4.674  0.2962  0.0115  0.0319
15889W        W32737   3.475   7.298  12.582 -0.2446  0.0089 -0.1008
15890W        W32738   5.669   0.403  10.073  0.0960  0.1346  0.2387
15891W        W32739  10.872  17.023  12.253 -0.0263  0.4273  0.0543
15892W        W32740   6.406  12.861  11.711  0.0493  0.2243  0.1806
15893W        W32741   4.008  10.057   0.038 -0.0537 -0.0603  0.2373
15894W        W32742   1.993  11.811  12.496  0.0844 -0.1754  0.3152
15895W        W32743  10.214  12.073  12.913  0.2919 -0.2258  0.3976
15896W        W32744  10.527   8.564   0.144 -0.0178  0.0758  0.0567
15897W        W32745  15.855   5.208  15.836  0.2494  0.0791  0.0141
15898W        W32746  13.505   9.104   0.910  0.2889  0.1674 -0.2597
15899W        W32747  10.510   4.540  13.382 -0.0807  0.1449  0.0976
15900W        W32748  10.087  15.014   4.756 -0.0252 -0.0776 -0.2476
15901W        W32749   9.702   4.829  11.353 -0.0610  0.3378 -0.2696
15902W        W32750   1.439   6.510   4.969  0.0457  0.0461 -0.0259
15903W        W32751   9.227  12.178   2.471  0.1187 -0.0026  0.1687
15904W        W32752   8.561   0.508   4.513  0.1640 -0.1648 -0.1405
15905W        W32753  17.690   8.536  10.796  0.1547  0.0565  0.2420
15906W        W32754   6.621  13.634  14.526 -0.2701 -0.0990  0.0877
15907W        W32755   7.484   8.921   3.636  0.1572 -0.1516 -0.4073
15908W        W32756   8.136   7.066  15.454 -0.0469  0.0496 -0.2142
15909W        W32757  16.832   0.848   3.241  0.0679  0.1004 -0.1306
15910W        W32758   7.505   8.070  10.685  0.2072  0.0760 -0.0187
15911W        W32759   8.954   6.572  15.137 -0.2584 -0.0142  0.1038
15912W        W32760   4.497   5.120   2.221 -0.2103  0.1034  0.3863
15913W        W32761  10.578   3.387   2.379  0.1981 -0.0801 -0.0894
15914W        W32762  13.784   4.888   1.721  0.1468 -0.2858 -0.0582
15915W        W32763   3.578   2.062  13.619  0.1109  0.0277  0.3046
15916W        W32764   5.634  15.982   3.512 -0.1178 -0.2905 -0.1547
15917W        W32765  10.804  15.949  14.889 -0.0879  0.0492 -0.0402
15918W        W32766  17.446  14.279   3.471 -0.1121  0.2977  0.0153
15919W        W32767  13.057   9.478  14.820  0.2279 -0.0314 -0.0705
15920W        W32768  14.595  15.374   1.857  0.0150 -0.1849  0.3878
15921W        W32769  16.628   0.001   5.597 -0.0799  0.1261 -0.3845
15922W        W32770  15.860   2.318  13.894 -0.1932 -0.0111 -0.0429
15923W        W32771   3.293   8.286   3.699  0.3049 -0.1383 -0.1585
15924W        W32772   3.881  10.029  12.808 -0.1279  0.0330 -0.0898
15925W        W32773  10.438   5.464  15.868 -0.0250 -0.0106  0.1547
15926W        W32774  12.702  12.973   0.014  0.1962  0.0544 -0.0752
15927W        W32775  10.886   4.434  11.922 -0.1629 -0.3104 -0.4010
15928W        W32776  10.162   2.803  14.531 -0.2167 -0.2549  0.0820
15929W        W32777   4.153   6.249   5.390 -0.1646 -0.2718  0.0584
15930W        W32778  11.292   6.070  13.305 -0.2173 -0.2174  0.1518
15931W        W32779  17.610  14.724  14.603 -0.1033  0.1036 -0.2094
15932W        W32780   6.852   5.270  12.451 -0.0142 -0.2805 -0.1997
15933W        W32781   2.311   1.494   0.460  0.1452  0.0635 -0.0752
15934W        W32782   4.058   6.500   3.789  0.2363 -0.0847  0.2790
15935W        W32783   3.899  12.848   3.776 -0.0306 -0.1634  0.0970
15936W        W32784   7.706   3.149   4.682  0.1471  0.2654  0.0588
15937W        W32785  10.061   9.897  11.553 -0.1717  0.0397  0.0580
15938W        W32786   8.188  16.224   5.105 -0.0156  0.3200  0.2025
15939W        W32787  14.155   9.678  15.055 -0.0682  0.0066 -0.1939
15940W        W32788   3.054   8.567  15.933 -0.0574  0.1918  0.0077
15941W        W32789  11.157  16.539   4.941  0.0327  0.0932  0.0756
15942W        W32790  16.416   3.817  15.299 -0.0827  0.0180 -0.0655
15943W        W32791  17.486  16.197  13.862 -0.0722 -0.0177 -0.2721
15944W        W32792  16.207  10.376   0.024 -0.1758 -0.0742  0.0496
15945W        W32793  12.406   5.604  12.152  0.4133  0.0445 -0.2977
15946W        W32794   2.278   5.948  15.144 -0.0146 -0.1801 -0.1164
15947W        W32795   2.181   7.666   1.850  0.1227  0.2824  0.0954
15948W        W32796   8.657   2.835  15.978 -0.1057 -0.0138  0.0375
15949W        W32797  11.874   1.293   1.155  0.1983 -0.2353  0.0243
15950W        W32798   3.396   4.957  15.342  0.0913 -0.0546 -0.2012
15951W        W32799  12.393  10.110  11.417  0.0133  0.1111  0.0488
15952W        W32800   0.840   7.673   2.947  0.0891  0.1777 -0.1028
15953W        W32801  16.543  13.740  15.403 -0.1995 -0.0747  0.4534
15954W        W32802  14.923   9.872   4.257 -0.1869 -0.0439  0.0539
15955W        W32803   4.578  12.909   0.493  0.1566 -0.0066  0.2402
15956W        W32804  14.388   9.317  11.471  0.1903  0.0815 -0.2389
15957W        W32805  13.026   2.939   1.578  0.0168 -0.4660 -0.1312
15958W        W32806  12.520   8.828   3.390  0.1178 -0.0508  0.2258
15959W        W32807   7.733  11.125   4.870  0.0239 -0.2232  0.1315
15960W        W32808   0.390  13.040   2.477 -0.3644  0.0289 -0.0996
15961W        W32809   1.788  10.111   0.659  0.1310  0.4228 -0.1192
15962W        W32810  10.792   1.004   4.415 -0.2996  0.0399 -0.0424
15963W        W32811  14.703  10.408  12.907 -0.0181  0.3254 -0.0659
15964W        W32812   4.186  15.596  11.234  0.0686  0.0287  0.0934
15965W        W32813   0.304  11.116   4.531  0.0808  0.1229  0.1606
15966W        W32814  17.411  16.036   4.664 -0.2709 -0.0411 -0.2798
15967W        W32815   6.803  12.525   0.286 -0.1369 -0.2336  0.5126
15968W        W32816  10.975   2.081   0.071  0.0439  0.1603 -0.0379
15969W        W32817   2.610  12.370   3.632  0.2750 -0.1417 -0.3980
15970W        W32818   5.459  13.296   4.499  0.1901  0.2963  0.3651
15971W        W32819   4.393  12.840   2.621  0.0393 -0.0547  0.0211
15972W        W32820   8.879  12.862   3.959  0.2283 -0.0980  0.1061
15973W        W32821  12.163   1.574  14.593  0.3395 -0.0160  0.3026
15974W        W32822  12.820  14.686  14.723  0.1963  0.1898  0.1478
15975W        W32823   1.304  16.568   3.250 -0.0595  0.0515  0.0655
15976W        W32824   6.844  17.112   4.717  0.0677  0.0309 -0.0517
15977W        W32825  17.351   7.950   0.949 -0.0609 -0.0731  0.0652
15978W        W32826   9.486  13.150  12.137  0.0818 -0.0932  0.0384
15979W        W32827   7.266   0.066  14.436  0.4052  0.0538 -0.1215
15980W        W32828   8.077  17.650  14.152 -0.1173 -0.2215 -0.2167
15981W        W32829   0.341   0.643  12.719  0.0045  0.1974  0.3233
15982W        W32830  12.581  12.324   1.698 -0.2533 -0.1316 -0.0107
15983W        W32831   0.575  14.271  13.079  0.0980  0.0354 -0.2210
15984W        W32832  17.326  12.513   2.996  0.0456  0.2325 -0.0018
15985W        W32833   3.536  15.941  15.301 -0.1162 -0.4100 -0.1682
15986W        W32834   5.184  10.679  15.375 -0.0467  0.0088  0.0808
15987W        W32835  14.118   7.854   1.161 -0.1295  0.2187  0.1235
15988W        W32836   7.757  13.696  11.772 -0.0360 -0.4003  0.1147
15989W        W32837   2.268   0.350   3.777  0.1628  0.0155  0.2238
15990W        W32838   0.768  14.791   0.657 -0.2021 -0.0533 -0.1870
15991W        W32839   8.304  10.737   3.338  0.0404 -0.3799 -0.1072
15992W        W32840  16.967   2.025   5.266  0.1679 -0.4346  0.1217
15993W        W32841   9.688   3.760   0.011  0.3525 -0.0583 -0.0329
15994W        W32842   3.886   3.820   0.510  0.1043  0.1161  0.0357
15995W        W32843   1.345   2.110  15.820  0.3454 -0.1614  0.1103
15996W        W32844   4.995   6.881  15.141  0.0208 -0.0919  0.0908
15997W        W32845   5.856  13.383  12.878  0.2710  0.2676 -0.1071
15998W        W32846   6.141   3.195  13.910  0.0240  0.0351  0.3439
15999W        W32847  15.408   0.266  15.926 -0.0275 -0.0606 -0.5770
16000W        W32848  13.216  12.390  12.919 -0.0020  0.1490 -0.2728
16001W        W32849   5.064  10.912   3.389  0.0231 -0.0125 -0.2312
16002W        W32850  12.229   5.778   4.344 -0.1307  0.0646  0.0518
16003W        W32851  17.637   4.699   4.345  0.0356 -0.2419  0.1599
16004W        W32852  17.744   8.109  12.582 -0.1418  0.0861  0.0524
16005W        W32853   1.992  10.201   2.469  0.0087  0.0020  0.1261
16006W        W32854  17.227   2.740   0.880  0.0672 -0.1459  0.1467
16007W        W32855  13.153   8.854  11.413 -0.1315 -0.3775 -0.0187
16008W        W32856   1.177   8.913   4.103 -0.5116 -0.2135 -0.1851
16009W        W32857   8.731   3.129  11.860  0.1312  0.1427  0.0257
16010W        W32858  17.232  10.280   2.878 -0.1377 -0.0060  0.0408
16011W        W32859  15.567  10.934  14.647  0.0552  0.1045  0.1211
16012W        W32860   1.784   0.136   1.627  0.1131 -0.0114 -0.0797
16013W        W32861  14.118   7.674   4.473  0.2200  0.1120 -0.4548
16014W        W32862  15.648  12.734   3.683  0.0667  0.2612 -0.0187
16015W        W32863   2.728   2.230  14.296 -0.0783  0.1371  0.0869
16016W        W32864   9.135  15.496   3.365 -0.2632  0.1778  0.0214
16017W        W32865  14.264  11.514  11.551 -0.3601 -0.1484 -0.2138
16018W        W32866  16.292   0.803  15.435  0.0859 -0.1549 -0.3155
16019W        W32867   9.257   3.346  11.380  0.0315 -0.0868 -0.0923
16020W        W32868   7.489  14.912   0.980 -0.1834 -0.1740 -0.1231
16021W        W32869   7.453  15.805   5.026  0.2768  0.0206 -0.1004
16022W        W32870   9.826  16.746  14.665 -0.2083  0.0552 -0.0430
16023W        W32871  11.790   4.404  14.788  0.1985 -0.1113  0.0220
16024W        W32872  10.646   6.250   3.168  0.0619  0.2961  0.1033
16025W        W32873   2.646   6.341   0.616 -0.1246 -0.1695  0.3074
16026W        W32874   1.563  14.716   1.430 -0.1512  0.0732  0.0595
16027W        W32875   1.340  16.381  16.005 -0.3853  0.1301  0.0308
16028W        W32876  17.652   8.862   2.569 -0.2532 -0.1843 -0.1901
16029W        W32877   8.638   0.019  14.567 -0.1704  0.0483 -0.3486
16030W        W32878  17.205   9.840   1.577  0.0659  0.0164  0.2326
16031W        W32879  17.145  11.258   4.629 -0.0184 -0.3650  0.1143
16032W        W32880   6.853   5.961   1.586  0.1560  0.2379  0.3150
16033W        W32881   2.518   4.688  11.886  0.1952  0.1618  0.2729
16034W        W32882   0.806  11.954   1.334 -0.1751 -0.0106 -0.0553
16035W        W32883   6.553  15.473   5.787  0.2528 -0.2422  0.0617
16036W        W32884   9.376  12.850  15.041 -0.1237 -0.0052 -0.0259
16037W        W32885   7.050   0.493  12.292  0.0077 -0.1712 -0.0843
16038W        W32886  14.601   1.217   2.633 -0.1600 -0.1402 -0.3381
16039W        W32887   7.922  15.507  11.589  0.0901 -0.3063 -0.5695
16040W        W32888   8.953   5.105   3.214  0.0633 -0.0739  0.0772
16041W        W32889  12.880   4.615   2.570 -0.0177 -0.2100 -0.1035
16042W        W32890   8.487   7.685  16.007  0.2637 -0.2611 -0.0173
16043W        W32891   3.452  16.242   2.323  0.0351 -0.0347  0.1870
16044W        W32892  13.778  11.615   2.026 -0.2626 -0.0421 -0.0885
16045W        W32893   0.775  11.541   2.602  0.0739 -0.3502  0.0605
16046W        W32894   8.155   3.511   2.440 -0.1407  0.0164 -0.0347
16047W        W32895   5.807   0.762  11.329  0.0764 -0.3821  0.2324
16048W        W32896  13.731   1.349  16.152  0.0728 -0.1382  0.0287
16049W        W32897  12.520   2.511   1.407 -0.0876 -0.0899  0.0619
16050W        W32898   7.574   5.253  10.384 -0.0459  0.5664  0.2426
16051W        W32899   1.933  10.267  16.050  0.0715 -0.1995 -0.0168
16052W        W32900  14.873   8.043  11.292 -0.0151  0.0901  0.0642
16053W        W32901  10.076   9.031  13.115 -0.2419  0.0442 -0.1753
16054W        W32902  14.838   0.569  12.395  0.0856 -0.0361  0.3886
16055W        W32903   4.448  16.622  13.290 -0.0389  0.0455 -0.2058
16056W        W32904  16.513   8.806   1.404  0.0280 -0.1480  0.4728
16057W        W32905  10.271  17.797   3.265 -0.0833  0.1029  0.1954
16058W        W32906   5.242   4.040  13.014  0.0433 -0.2581  0.1079
16059W        W32907  11.051  10.401   0.579 -0.0849  0.0905  0.2007
16060W        W32908  12.278   8.450   4.740  0.0069  0.1223  0.2472
16061W        W32909   9.203   2.283   2.343 -0.2450 -0.2840 -0.0071
16062W        W32910   9.691   8.812   0.417  0.0448  0.0188  0.2743
16063W        W32911  11.496   1.447  15.717  0.1063  0.0818 -0.3815
16064W        W32912   9.496   7.623  14.932 -0.1617 -0.2254 -0.4266
16065W        W32913   2.776   0.149  12.723  0.2347 -0.2034  0.0810
16066W        W32914  14.231  16.418  11.092 -0.1428 -0.0171 -0.2146
16067W        W32915  17.912  10.991  15.467  0.0494 -0.0280  0.0815
16068W        W32916  16.508   2.084  15.770  0.1015  0.1316  0.2420
16069W        W32917  10.149  14.594  15.330 -0.0522  0.2044 -0.1499
16070W        W32918   6.244  12.837   2.184  0.4327  0.3888  0.1021
16071W        W32919   2.933   1.598   4.533 -0.1397 -0.0265  0.0943
16072W        W32920   7.687  11.903   1.514 -0.2512 -0.1444 -0.0320
16073W        W32921   8.463  11.719   2.892 -0.1956  0.1487  0.1378
16074W        W32922  16.136  10.827  10.667  0.1909  0.0651 -0.1480
16075W        W32923   2.381   0.181  12.278 -0.1318 -0.1434 -0.1519
16076W        W32924   9.904   7.632   0.621  0.0339 -0.1572 -0.0450
16077W        W32925   5.420   4.303  15.362 -0.1321 -0.0083  0.0328
16078W        W32926   3.295  16.555   1.183 -0.0332  0.1788 -0.0932
16079W        W32927  14.827  11.227  12.514 -0.5043  0.2261 -0.1916
16080W        W32928   9.687  10.031  15.009  0.1536  0.0882 -0.1213
16081W        W32929   3.399   6.214  10.794 -0.0641 -0.0549  0.0667
16082W        W32930   1.664  17.678  14.642 -0.2826 -0.0605 -0.3460
16083W        W32931  13.872  13.256  13.383 -0.1298  0.4273  0.3066
16084W        W32932   2.082  10.039   2.013  0.2285 -0.3806  0.0130
16085W        W32933   7.899   6.496   0.906 -0.1210 -0.2452  0.1836
16086W        W32934  10.994   8.914   4.862  0.0832 -0.2405  0.1839
16087W        W32935   6.648  12.953   1.453  0.2053  0.0260  0.1535
16088W        W32936  16.419  13.009  11.716 -0.2306 -0.2183 -0.2292
16089W        W32937   6.186   5.006  14.260 -0.2874  0.2165 -0.2184
16090W        W32938  14.712  16.051   0.621  0.3531  0.1522  0.0636
16091W        W32939  14.155   8.828   5.532 -0.0869  0.0177 -0.2923
16092W        W32940   4.681  10.825   2.649 -0.1241  0.0095 -0.0422
16093W        W32941   2.813   4.812   2.823  0.2220  0.0576 -0.6613
16094W        W32942  17.490   1.838   1.327  0.0050  0.2184  0.4024
16095W        W32943  16.150   8.552   3.432 -0.0902 -0.4584  0.1887
16096W        W32944   8.449  14.739   0.037  0.2056  0.2126 -0.0060
16097W        W32945   9.935   0.093  11.360 -0.1513  0.0440 -0.2456
16098W        W32946  17.096   2.298   1.101  0.0552  0.1902 -0.3074
16099W        W32947  11.329  12.894  16.068 -0.0419 -0.1349  0.3235
16100W        W32948  10.474   9.685   1.733  0.2012 -0.0201  0.3894
16101W        W32949  15.452   0.310  12.898 -0.2075 -0.2306 -0.2987
16102W        W32950   0.860  10.444  13.577  0.1077  0.1008  0.2810
16103W        W32951  12.167   8.625   5.211  0.2227  0.0432 -0.0992
16104W        W32952  13.434  10.543  13.207 -0.0766  0.2498  0.0346
16105W        W32953   9.149  16.812  13.457  0.0577  0.2776 -0.0983
16106W        W32954   5.943   7.388   2.651  0.1577  0.0376 -0.1651
16107W        W32955   4.842   9.111   3.581 -0.0744  0.2590 -0.0683
16108W        W32956   7.954  15.672  13.522 -0.2014 -0.1046 -0.0553
16109W        W32957   5.404   0.598  12.650  0.0964 -0.2013 -0.4043
16110W        W32958   9.631   6.536   2.246 -0.0281 -0.0213  0.1457
16111W        W32959  13.069   1.712   1.792 -0.1334  0.1496  0.0729
16112W        W32960  10.264   2.571   2.186  0.1993 -0.0550  0.0383
16113W        W32961   0.920  17.765  15.765 -0.0105  0.2009  0.0264
16114W        W32962  15.724  15.378  12.704  0.2075  0.1404  0.3589
16115W        W32963   4.394   9.584  11.607 -0.1098 -0.1634 -0.2075
16116W        W32964  11.932   5.036   4.978  0.3358 -0.0292  0.4305
16117W        W32965   1.693  16.914   4.275  0.1928 -0.2962 -0.2576
16118W        W32966  15.469   1.898  13.618 -0.3455 -0.0728  0.0999
16119W        W32967   0.671  15.333   3.711  0.2044  0.1750 -0.3450
16120W        W32968   9.440   6.209   1.816  0.0914  0.1797  0.0909
16121W        W32969   7.589   3.676   0.758 -0.1429 -0.0793 -0.1001
16122W        W32970   8.538   0.773   1.797 -0.2822  0.2243  0.2061
16123W        W32971   9.071   9.636  11.678  0.1812 -0.3774  0.0287
16124W        W32972   4.909  15.156  15.021  0.0110 -0.2448 -0.1282
16125W        W32973  10.739   7.937  14.317 -0.1500  0.2799 -0.1581
16126W        W32974   1.416   7.172  11.969 -0.0826  0.1975  0.0972
16127W        W32975  13.682  13.835  16.131 -0.2006  0.3453  0.1960
16128W        W32976  10.383  17.068   1.540 -0.0383 -0.1097 -0.1139
16129W        W32977   4.675  10.953   1.635 -0.0168  0.0459  0.3503
16130W        W32978  12.824   9.207   0.337  0.0706 -0.2073 -0.0617
16131W        W32979  15.875   3.899   1.027 -0.0374  0.1794 -0.1803
16132W        W32980   2.759  11.875   0.162  0.0430 -0.1549  0.0382
16133W        W32981   2.077   0.822   3.732  0.3252 -0.0779  0.0003
16134W        W32982   3.205   6.124  14.756  0.0468 -0.0003  0.2226
16135W        W32983   4.739  11.599   1.295  0.1155 -0.2537  0.1216
16136W        W32984   4.982   7.942   3.474 -0.4342  0.0161  0.1878
16137W        W32985   8.797   1.847   4.234  0.0072  0.0891 -0.0310
16138W        W32986  10.484   9.685  15.419 -0.0867  0.0084 -0.0969
16139W        W32987  13.739   9.871  11.619  0.0993  0.2366 -0.2511
16140W        W32988  11.782   4.026   3.613  0.1507 -0.2623 -0.2414
16141W        W32989   1.141   2.031   2.783  0.2179 -0.0951  0.0737
16142W        W32990  10.498  13.569  12.842 -0.1029  0.0444 -0.0311
16143W        W32991  10.097  10.074  13.035 -0.0368 -0.0297  0.1683
16144W        W32992  15.373  17.387  16.060  0.0800 -0.0136  0.3287
16145W        W32993   5.332   0.194   4.064  0.2196 -0.0526 -0.2031
16146W        W32994   7.812   7.681   3.524  0.0440 -0.1646  0.1290
16147W        W32995  10.956  16.523  12.334  0.1634 -0.2036  0.1877
16148W        W32996  13.990   9.854   5.575  0.1654  0.2706  0.1524
16149W        W32997  11.506  17.286   2.155  0.1313  0.2398 -0.2304
16150W        W32998  13.510  13.404  14.588 -0.1958  0.2239  0.3870
16151W        W32999   5.589  16.587   2.769 -0.2025 -0.0441  0.1872
16152W        W33000  10.298  14.588   5.429  0.1295 -0.1954  0.0345
16153W        W33001   1.400   9.612   3.833 -0.0597 -0.1009  0.0586
16154W        W33002   9.895   2.023  14.680 -0.2704 -0.2728  0.1719
16155W        W33003   3.100  15.261   4.331  0.2123  0.2096 -0.1053
16156W        W33004  10.890   9.943   1.802 -0.2350  0.2075 -0.0196
16157W        W33005  14.316   4.307  11.853  0.3261 -0.0292 -0.2660
16158W        W33006   4.371   6.453   2.582  0.3818  0.5630 -0.2446
16159W        W33007   0.803  15.539  15.753 -0.0531  0.0090  0.0975
16160W        W33008  14.673  11.181  12.991 -0.3202  0.0710 -0.0856
16161W        W33009  10.768  14.328  12.732  0.0316  0.0678  0.0690
16162W        W33010  13.303   3.736  12.244  0.1756  0.1536 -0.1145
16163W        W33011   0.114  13.695   2.744  0.0607 -0.3503  0.4897
16164W        W33012   9.195  14.466   3.291  0.0113 -0.2478 -0.0958
16165W        W33013  16.556  13.707  14.693 -0.1765 -0.0219  0.3977
16166W        W33014  10.120   5.947   2.133 -0.4931  0.1226 -0.0013
16167W        W33015  11.409   3.694  14.751 -0.2879 -0.1284 -0.0307
16168W        W33016   6.994   3.138  12.373  0.2419  0.0626  0.1205
16169W        W33017   4.206  17.412   3.642  0.2746  0.2850  0.1500
16170W        W33018   9.316  11.060   1.850  0.2308 -0.2799 -0.0180
16171W        W33019   1.814  10.420  13.476 -0.0081 -0.2471  0.1194
16172W        W33020  14.120  13.475   1.935 -0.0564 -0.1261  0.0170
16173W        W33021   1.344   8.862  14.958 -0.0717 -0.0756  0.3798
16174W        W33022  17.849  17.087   0.357  0.1212 -0.2895  0.0945
16175W        W33023   1.041   5.488  15.178  0.0054 -0.2054 -0.1719
16176W        W33024   2.724  11.924  15.929 -0.0516 -0.1011  0.0371
16177W        W33025  11.270  10.876   4.710 -0.0824 -0.4829  0.0321
16178W        W33026  13.599   1.945   4.372 -0.0116  0.0986  0.0411
16179W        W33027  16.335  13.669   1.606  0.1358 -0.2492 -0.0291
16180W        W33028   4.017   4.559   1.014 -0.0389 -0.1743  0.3234
16181W        W33029   6.777   8.836  12.838 -0.0343 -0.2946 -0.2118
16182W        W33030  13.830  17.254   0.846  0.0296 -0.1898  0.1849
16183W        W33031   5.793   9.471   3.077  0.0091  0.0083 -0.2585
16184W        W33032  12.581  15.648  10.481  0.1133  0.2783 -0.2339
16185W        W33033  17.757   7.015  14.370  0.2031  0.1773 -0.0266
16186W        W33034  10.317   8.833  13.483  0.0118  0.0911 -0.2343
16187W        W33035   6.003  12.294  16.007  0.3154  0.0637  0.1909
16188W        W33036   0.436  11.444  15.255 -0.1118  0.0962  0.0521
16189W        W33037   0.411  12.986  12.042  0.0567  0.1917  0.3333
16190W        W33038   8.269   4.880   2.038  0.1155 -0.1428  0.2391
16191W        W33039   5.189   0.777   3.195 -0.2082  0.2140  0.0100
16192W        W33040   6.562  15.759   4.838 -0.1689  0.1128 -0.2635
16193W        W33041   0.354   5.097   4.617  0.0335  0.0325  0.1574
16194W        W33042   0.442   3.292   4.450 -0.4080  0.1678 -0.2021
16195W        W33043   7.340   4.463  13.816  0.3227 -0.0240  0.1541
16196W        W33044  10.383   0.761   0.118 -0.1078 -0.1314  0.2860
16197W        W33045   5.173   2.236  14.069  0.2622 -0.0186  0.0696
16198W        W33046   9.199   7.052  14.309 -0.1460  0.0236  0.0207
16199W        W33047   6.608   3.204  15.601 -0.3108 -0.0281 -0.0365
16200W        W33048  11.869   8.287  14.111 -0.0023  0.0948  0.2143
16201W        W33049   3.634   8.981   1.489 -0.0243 -0.1908 -0.2957
16202W        W33050   4.143   5.985  13.071 -0.3115  0.1474  0.2132
16203W        W33051   0.372  10.928  15.309  0.0815 -0.0637  0.2037
16204W        W33052  11.574   3.923  13.892  0.3578  0.0075  0.5993
16205W        W33053   2.856   3.358   3.545 -0.0100  0.1002 -0.0340
16206W        W33054  17.245   9.513   2.550  0.1184  0.1034 -0.2789
16207W        W33055  15.083  14.122  13.480  0.5107 -0.0941 -0.1714
16208W        W33056   3.211  12.315   1.451  0.3087 -0.3592  0.1407
16209W        W33057   1.538  17.083   0.466  0.2659 -0.1021 -0.0716
16210W        W33058  13.929   2.178  10.198  0.1283 -0.0644 -0.3158
16211W        W33059  16.569  17.537  15.623  0.0051 -0.1454 -0.2010
16212W        W33060   6.311   5.630  16.229  0.0237 -0.0134  0.0122
16213W        W33061  13.481   1.416   0.481 -0.3804 -0.1212  0.3093
16214W        W33062   6.991  12.054  15.645  0.0694  0.2567 -0.1122
16215W        W33063  12.848   3.356   1.150 -0.0176 -0.0203 -0.4339
16216W        W33064   5.498   1.144  11.747 -0.1318  0.0285 -0.0467
16217W        W33065   5.789  11.226   4.455 -0.0045  0.2530  0.1340
16218W        W33066  11.822   1.967   4.670 -0.0282  0.3071  0.1786
16219W        W33067  14.819  14.725   3.103 -0.2150  0.1559 -0.1281
16220W        W33068  16.854   4.410  14.271  0.3627 -0.0106 -0.0737
16221W        W33069   0.866   4.793  14.850 -0.2448 -0.1732  0.0364
16222W        W33070   2.440  17.796  14.236 -0.0307 -0.1361 -0.0524
16223W        W33071  15.220  13.858   4.703 -0.1171 -0.6790 -0.0891
16224W        W33072   4.417   4.156  13.456 -0.2167 -0.0902  0.2148
16225W        W33073   0.096  17.014   5.305  0.1831 -0.2198 -0.0981
16226W        W33074  16.855   5.346   4.924  0.1117 -0.3283 -0.2443
16227W        W33075   3.446   4.724  14.493 -0.0081 -0.0456 -0.0387
16228W        W33076  16.637   1.581  14.872 -0.0126  0.0169  0.1542
16229W        W33077   5.607   3.379   1.988  0.1028 -0.2046  0.1149
16230W        W33078  13.637   3.183  12.127 -0.1025 -0.1106 -0.0454
16231W        W33079  13.293   7.963  14.999  0.0015 -0.0550  0.0282
16232W        W33080   0.303   0.573   2.740  0.4017 -0.1406 -0.0183
16233W        W33081  10.728   9.160   3.057 -0.1354  0.3237  0.1994
16234W        W33082   6.754   1.247  11.778  0.1835  0.0584  0.0661
16235W        W33083  17.359  10.889   2.007  0.3030  0.2777  0.1000
16236W        W33084   0.560  13.853  11.105 -0.0196  0.2028 -0.0172
16237W        W33085  17.920   2.822  15.455 -0.1576 -0.2314  0.1133
16238W        W33086   8.614   8.948  11.883 -0.1146 -0.3043 -0.1768
16239W        W33087   4.031   7.033   2.576 -0.0147 -0.0454 -0.1107
16240W        W33088   8.624  16.598   2.536 -0.2824  0.1893 -0.2016
16241W        W33089   8.082  17.536  15.250 -0.1280 -0.3457  0.0717
16242W        W33090  10.161  12.134  15.657 -0.2966 -0.0102 -0.0249
16243W        W33091  14.506  12.362  13.493 -0.0292 -0.1498  0.2274
16244W        W33092  11.971  12.889   2.643  0.0237  0.2454  0.2597
16245W        W33093   7.852   5.318  13.758  0.1978  0.0662 -0.0743
16246W        W33094   8.141   4.795  12.938 -0.1510 -0.2913  0.2633
16247W        W33095   1.555  16.445   4.066  0.1838 -0.1613  0.3960
16248W        W33096   9.592  13.260  15.777 -0.1105 -0.2163  0.0165
16249W        W33097  14.544   3.886  13.695  0.0845 -0.0464  0.1683
16250W        W33098   1.202  16.040   3.212  0.1671  0.2363  0.0396
16251W        W33099   3.524  11.846  15.459  0.1250 -0.1515 -0.2052
16252W        W33100   4.124  10.645  15.313  0.0328  0.1332 -0.0939
16253W        W33101   3.517  10.117  16.060 -0.0908 -0.1142  0.3702
16254W        W33102   0.137   3.291  12.350 -0.2231 -0.1355 -0.1305
16255W        W33103   9.771   1.576  13.438  0.0570  0.5609  0.1173
16256W        W33104  17.896   0.387   5.158  0.1461 -0.0958  0.0245
16257W        W33105  16.681  11.772  14.523 -0.1442  0.3664  0.0307
16258W        W33106   9.287   4.630  11.552  0.1147  0.0329  0.1268
16259W        W33107   8.860   7.083  11.249  0.4911 -0.0261 -0.0433
16260W        W33108  13.683   0.195  11.177  0.0795  0.2517 -0.0783
16261W        W33109   3.850   3.115  12.546  0.0896  0.4204  0.3181
16262W        W33110   9.352  11.490  15.449  0.0797 -0.2729  0.0718
16263W        W33111  17.516   7.340   3.915  0.1802  0.0224 -0.2147
16264W        W33112   1.150   9.695   2.257  0.1247  0.0617 -0.3802
16265W        W33113   0.976  11.442  10.503  0.2889  0.0070 -0.1891
16266W        W33114  17.183  11.674   0.842  0.1105 -0.0591 -0.0652
16267W        W33115  17.823   2.022  14.146  0.1140 -0.0208 -0.0899
16268W        W33116  13.632  17.576   3.164  0.0175  0.1103 -0.1534
16269W        W33117   1.152  14.801   4.477  0.1255 -0.1062 -0.2824
16270W        W33118   3.197   5.031  12.607 -0.1861 -0.4551 -0.0835
16271W        W33119  16.812  15.961   1.103 -0.0131  0.2467 -0.1114
16272W        W33120  12.304   1.320   2.921  0.1225  0.0390  0.0737
16273W        W33121   1.727   7.579  12.085 -0.1884 -0.0964  0.1839
16274W        W33122  15.204   1.532  15.710 -0.1649  0.1482 -0.0686
16275W        W33123   8.406  14.519   4.767 -0.0670  0.2330  0.0260
16276W        W33124   3.702   2.447  13.161 -0.2056 -0.5837  0.0437
16277W        W33125  16.626  14.921   3.537  0.2356  0.0515 -0.2062
16278W        W33126  12.603  17.192   0.846 -0.0116 -0.2573  0.0399
16279W        W33127   6.468   8.306   0.413 -0.1254 -0.1219 -0.1114
16280W        W33128   6.240  17.096   5.030  0.0722  0.0543 -0.3093
16281W        W33129   0.409  17.346  12.051 -0.2157 -0.1870  0.1964
16282W        W33130   9.192  10.266   4.019  0.0737 -0.4877  0.1333
16283W        W33131   5.127  10.409   6.163  0.1141  0.2034 -0.3637
16284W        W33132   7.365   3.855   4.074  0.0539  0.1644 -0.0361
16285W        W33133   4.334   7.446  15.583  0.1149 -0.1538 -0.1325
16286W        W33134   0.425  10.178  12.095  0.0245  0.3922 -0.1886
16287W        W33135  14.510   8.360  15.004 -0.2246 -0.0255  0.1635
16288W        W33136  16.461  15.167  12.508 -0.0610  0.1842  0.0343
16289W        W33137   9.604  13.517   2.851 -0.1586 -0.3730  0.0812
16290W        W33138   9.167   6.559   1.273 -0.1788  0.0439 -0.0188
16291W        W33139  15.453   5.857  14.522  0.0787 -0.2664 -0.1318
16292W        W33140  13.863  12.227   2.975 -0.2582  0.0508 -0.2232
16293W        W33141  12.842   2.005  14.551  0.0579 -0.4167 -0.1572
16294W        W33142   7.497  11.032  15.945  0.1045  0.0434  0.0944
16295W        W33143  14.597   3.514   0.488 -0.0334  0.0685  0.0363
16296W        W33144   7.456  11.638  13.652  0.2234  0.2058  0.0435
16297W        W33145   1.670  13.532   2.779 -0.0620  0.1208  0.4023
16298W        W33146   9.490  16.457   6.290  0.0462 -0.1296 -0.2089
16299W        W33147  14.963  16.752   0.650 -0.0392  0.0728  0.0421
16300W        W33148   0.994   5.684  11.868 -0.3660  0.0066 -0.0033
16301W        W33149  17.560   7.208   6.055  0.0083 -0.2285  0.0710
16302W        W33150  16.413   0.409   5.381 -0.1504 -0.1900  0.1058
16303W        W33151  12.541   0.849   3.303 -0.0856 -0.0454  0.0100
16304W        W33152  11.048  13.562   3.216 -0.1026  0.0152  0.0133
16305W        W33153   5.255  14.013  13.213  0.1039  0.0693  0.0277
16306W        W33154   8.752   9.933   3.675 -0.1320  0.1685 -0.2892
16307W        W33155   0.664   0.617  12.046  0.1407 -0.0714 -0.2955
16308W        W33156  15.145  14.815   0.831 -0.2851  0.0457 -0.0253
16309W        W33157  12.564   7.983   1.030 -0.4807 -0.0439 -0.1009
16310W        W33158  14.986   8.470  11.565 -0.1614 -0.3949  0.3459
16311W        W33159   3.662  10.509   3.368  0.1035  0.0368  0.0134
16312W        W33160   0.571   9.508  13.437  0.3268 -0.1441  0.0741
16313W        W33161  14.092  17.571  14.805  0.1103  0.1140 -0.1684
16314W        W33162  12.909  13.859   1.810  0.0726  0.0878 -0.2222
16315W        W33163   7.776   8.555  11.732 -0.0649  0.0733 -0.0018
16316W        W33164   0.585  14.069  13.720  0.2090  0.0414  0.0253
16317W        W33165   3.120  16.540  14.878 -0.5360 -0.0097  0.2613
16318W        W33166  10.806  17.282  15.611 -0.1885  0.2355 -0.0342
16319W        W33167   1.352  11.851  13.317 -0.0254 -0.1148  0.1118
16320W        W33168  14.397   0.417   0.971 -0.0890  0.1386  0.2413
16321W        W33169  11.000   1.307  13.932 -0.0107 -0.2455 -0.0756
16322W        W33170  10.695  17.236   3.830 -0.2630  0.0741  0.1451
16323W        W33171  14.350  16.142   2.420 -0.3455 -0.1191 -0.4565
16324W        W33172  12.284  13.673   3.801 -0.1226  0.3000  0.0255
16325W        W33173   2.426  14.911   2.744  0.1381  0.1625  0.0138
16326W        W33174  16.388   0.195  14.547  0.4316 -0.3847  0.1829
16327W        W33175   7.269  13.994  11.712 -0.1775  0.1359 -0.1393
16328W        W33176   7.001  18.015  12.035  0.0083  0.0534  0.0609
16329W        W33177   5.268   4.994   4.881  0.0338  0.1766 -0.0151
16330W        W33178  10.932   9.800  13.673  0.2316 -0.2210 -0.1322
16331W        W33179  13.910  11.668   0.001  0.0819  0.1953 -0.3190
16332W        W33180   4.285   7.243  13.771 -0.0620  0.0771 -0.3112
16333W        W33181   7.555  13.030   0.577  0.2893  0.0695 -0.2484
16334W        W33182   4.874   6.148  12.969 -0.0777 -0.2982  0.1630
16335W        W33183   0.961  13.587  13.603  0.1087 -0.1184  0.0046
16336W        W33184   7.177   6.582   3.108  0.2586 -0.3110  0.0126
16337W        W33185   9.559   9.964   5.315 -0.1477  0.1190  0.3675
16338W        W33186  14.395  14.476   2.854 -0.2237  0.1421 -0.0924
16339W        W33187   5.416  16.200  12.749 -0.0336 -0.2623 -0.0737
16340W        W33188   0.631  17.229  12.792 -0.3169  0.0896  0.3182
16341W        W33189   1.295   4.420  15.657  0.0057 -0.0639 -0.1233
16342W        W33190   6.399   3.044   0.436  0.0477 -0.2278  0.1028
16343W        W33191  13.494   1.272  11.755  0.1160  0.2159 -0.1061
16344W        W33192  10.739  13.386  16.083  0.0649 -0.1241  0.0509
16345W        W33193   6.848  11.583  15.414 -0.0942  0.1428  0.1893
16346W        W33194   1.801   7.531   2.155 -0.1250  0.3263 -0.0698
16347W        W33195   3.623   9.949  12.318  0.0306  0.0852 -0.0113
16348W        W33196  15.747   0.850  14.644 -0.2010 -0.1453  0.0504
16349W        W33197   6.875  10.080   2.127 -0.2055 -0.0601  0.2600
16350W        W33198  15.285   7.384   1.893  0.0012 -0.1497 -0.0100
16351W        W33199   8.044   4.889   1.409 -0.1779 -0.2143  0.0127
16352W        W33200   2.437   7.214  11.145 -0.2217 -0.2274  0.2595
16353W        W33201  13.157  16.818   1.972  0.4044  0.1215  0.1615
16354W        W33202   4.245  16.100   3.836 -0.3343  0.1448 -0.1685
16355W        W33203  14.891  10.180  14.611 -0.1076  0.2571 -0.0113
16356W        W33204   1.127   4.699   4.179 -0.2187  0.0198  0.1057
16357W        W33205   6.773  10.376   6.035 -0.1865 -0.2783 -0.2230
16358W        W33206  16.329  12.609   0.391  0.4659  0.2928  0.1015
16359W        W33207   9.954  14.509   3.699  0.1697 -0.3394 -0.0427
16360W        W33208   0.138  17.507   3.908 -0.0631 -0.0069  0.1152
16361W        W33209  10.506   7.849  15.618 -0.0582  0.2473  0.1651
16362W        W33210   7.006   7.198  12.677  0.3029 -0.0862  0.2709
16363W        W33211  12.347   2.517  13.606 -0.1150 -0.0801  0.0642
16364W        W33212   9.592  12.400  15.709  0.2886 -0.0923 -0.0076
16365W        W33213  15.328  17.146  14.528 -0.1527 -0.1623  0.1685
16366W        W33214  10.220  17.573  11.400  0.1634  0.0169 -0.1642
16367W        W33215   8.287   4.297  13.004  0.0149 -0.0330  0.1875
16368W        W33216  15.949   2.922  13.788  0.1542 -0.3401 -0.2544
16369W        W33217  15.746   7.630   4.506 -0.1669  0.1788  0.0125
16370W        W33218  13.317   2.007  13.795 -0.0282  0.3699 -0.0193
16371W        W33219   3.024  14.388   1.357  0.0364 -0.2785 -0.1839
16372W        W33220  10.185   3.140  11.511  0.3416 -0.1259  0.0169
16373W        W33221   6.768  16.346   4.157 -0.0734  0.3515  0.1391
16374W        W33222  15.771  16.430   5.917 -0.0648  0.1115  0.0362
16375W        W33223   3.876  13.567  14.197  0.0268 -0.1173  0.0919
16376W        W33224  10.641   5.617  10.017 -0.1033 -0.1557  0.1501
16377W        W33225   2.982   0.083  12.222 -0.2617 -0.1329  0.3583
16378W        W33226  11.473   5.625   4.137 -0.0786 -0.2323  0.2188
16379W        W33227  11.467  13.296  15.772 -0.1702  0.1001  0.0736
16380W        W33228   6.777  14.801  15.541 -0.0492 -0.1061  0.0655
16381W        W33229   1.523   3.764  15.297 -0.0559  0.1329 -0.0660
16382W        W33230  15.327  11.341  14.739 -0.1617 -0.0168  0.2183
16383W        W33231  13.531  15.731   5.108 -0.2105 -0.0219  0.1450
16384W        W33232   9.274  12.485  14.473 -0.0345 -0.0809 -0.2183
16385W        W33233  15.327   0.939   4.986 -0.2372  0.1170 -0.0599
16386W        W33234  12.011   8.790  14.144 -0.0501 -0.4068 -0.1533
16387W        W33235  16.305  11.083   5.392  0.1100  0.0323 -0.2054
16388W        W33236  17.957   0.801   4.515 -0.2959 -0.1661  0.1155
16389W        W33237   0.066   1.646   4.313  0.2775 -0.2199  0.0926
16390W        W33238   4.063  14.284   4.205 -0.0183  0.3600 -0.0488
16391W        W33239  15.409  10.643  11.523 -0.1388 -0.0732 -0.0630
16392W        W33240  12.348  12.143  10.324 -0.0605 -0.0494 -0.0710
16393W        W33241  14.930  10.267  13.349  0.1518  0.3469  0.5261
16394W        W33242   1.089   8.377   1.288  0.3264 -0.0572 -0.1826
16395W        W33243  11.757   3.748   0.478 -0.1619 -0.1533  0.1433
16396W        W33244  11.599   9.070  14.265 -0.4842  0.2013  0.2489
16397W        W33245  11.964   2.111  14.548 -0.1684  0.0838  0.1234
16398W        W33246  12.537   0.503  14.517  0.0874  0.0202  0.2795
16399W        W33247  12.503   8.143   1.531 -0.0067  0.2549  0.0246
16400W        W33248   2.051   7.612   3.732 -0.2360 -0.2567  0.0385
16401W        W33249  15.368  15.675  13.102 -0.0933  0.0579  0.1674
16402W        W33250   0.816  13.049   1.056  0.3193  0.0440  0.1258
16403W        W33251  10.605  12.041  13.792  0.2615 -0.1532  0.0536
16404W        W33252  17.865   4.566  12.184  0.2638 -0.0064  0.2836
16405W        W33253  17.849  16.782  13.075  0.0614 -0.2370  0.3301
16406W        W33254  15.701   2.154   4.855  0.0170  0.3694 -0.0244
16407W        W33255   0.170  13.743  10.065 -0.1202  0.0715 -0.0479
16408W        W33256   9.453  13.279   4.797 -0.1288  0.2534 -0.0526
16409W        W33257  10.378  16.246   5.226 -0.0388 -0.1335  0.1812
16410W        W33258   8.747  15.833   3.727  0.1817 -0.0172 -0.0292
16411W        W33259  17.880  15.429  12.003 -0.0406 -0.1290 -0.0291
16412W        W33260   1.948  17.248  14.587  0.2618  0.3720  0.1034
16413W        W33261  17.124  15.156  13.763 -0.0496 -0.0125  0.3173
16414W        W33262   5.686  14.952  14.011 -0.3170 -0.0564  0.0234
16415W        W33263   2.323   5.524  14.937 -0.1169 -0.0801  0.0620
16416W        W33264   4.339   8.993   0.004 -0.1457 -0.1447  0.0349
16417W        W33265  13.608   0.226   0.336  0.2795 -0.3016 -0.0034
16418W        W33266   1.671   2.850  13.266  0.0676 -0.1246 -0.2471
16419W        W33267   5.657   8.392  10.781 -0.2042  0.3268  0.1097
16420W        W33268   7.326   2.316   4.011 -0.2530 -0.1711 -0.1396
16421W        W33269  16.062  15.455  12.181  0.3074  0.0353 -0.3696
16422W        W33270   2.080   8.687   0.015  0.3100  0.0090 -0.2427
16423W        W33271   8.489   1.070  15.561 -0.1925 -0.0260  0.1520
16424W        W33272   8.951   2.057   3.309  0.0040  0.1833 -0.0683
16425W        W33273   5.645   7.611  11.968 -0.1289  0.0225 -0.0738
16426W        W33274  17.451  17.803  11.515 -0.0834  0.3379 -0.0098
16427W        W33275   4.931  16.888  14.464 -0.0694 -0.0930 -0.2603
16428W        W33276   5.092  12.397   4.754 -0.2304  0.1587  0.0911
16429W        W33277  13.021   5.475  15.654  0.2474 -0.1385 -0.0969
16430W        W33278  13.104  16.294  12.313 -0.1799  0.0180  0.1157
16431W        W33279  14.784   6.854  12.200  0.3342  0.1054  0.0495
16432W        W33280   1.629   3.679   3.568  0.1115 -0.0572 -0.1031
16433W        W33281  17.311  11.268   2.347  0.0454  0.1383  0.2352
16434W        W33282  17.223   6.562  11.950  0.0637  0.0006  0.0314
16435W        W33283   5.452   0.978  11.035  0.4486 -0.0361  0.0574
16436W        W33284   2.611  17.067   0.820 -0.0064  0.1128 -0.1793
16437W        W33285   5.662   2.436   2.260 -0.2106 -0.0466  0.2556
16438W        W33286   5.976  14.685  13.146 -0.3469 -0.0614 -0.0327
16439W        W33287  12.829   2.224  11.783  0.1669 -0.0431 -0.1691
16440W        W33288  17.461  16.678  12.712  0.0746 -0.3532  0.1696
16441W        W33289   8.481   9.386   3.043 -0.2283 -0.1094 -0.0111
16442W        W33290   9.997  17.390  11.948  0.1353  0.3552  0.1273
16443W        W33291   9.903  15.262   2.698 -0.2479  0.1551  0.2692
16444W        W33292  16.301   7.574   1.715  0.4594 -0.2445 -0.2283
16445W        W33293   9.190   6.582  14.601 -0.0650 -0.3508  0.1988
16446W        W33294  17.232   3.664  12.392 -0.3504 -0.0989  0.2853
16447W        W33295  14.245  14.855   4.142  0.3514  0.3068 -0.1069
16448W        W33296  16.827  10.858  15.125 -0.1337  0.0090 -0.0623
16449W        W33297   7.260   7.560   3.920  0.1199  0.0092  0.1739
16450W        W33298   0.997  17.101   0.116  0.1381  0.1483 -0.1862
16451W        W33299  13.087   6.317   2.783  0.0006 -0.4299 -0.1253
16452W        W33300   0.052  11.700   0.621  0.3222 -0.0557  0.0861
16453W        W33301   6.882  13.464  13.480 -0.0527  0.0177  0.4857
16454W        W33302  16.204  14.785  13.880 -0.1659 -0.0998 -0.0843
16455W        W33303  15.948   6.108  14.014  0.0099 -0.2185 -0.4508
16456W        W33304   1.861  12.122   2.254  0.0360  0.3074  0.2575
16457W        W33305  12.953   5.660  12.412  0.1000  0.1239  0.0229
16458W        W33306   3.966  14.505   0.471  0.1374  0.0854  0.0407
16459W        W33307  17.701  15.484   1.835  0.0650 -0.0907 -0.0101
16460W        W33308  14.135  16.769  14.560  0.2499 -0.0393 -0.1560
16461W        W33309   4.202   1.248   4.755  0.3921  0.2481 -0.3039
16462W        W33310  16.973   6.697  13.798 -0.2397 -0.5535 -0.3897
16463W        W33311   0.125   6.835  14.610  0.3526  0.0348  0.4041
16464W        W33312  15.392  13.422   4.873 -0.0363 -0.1947 -0.2829
16465W        W33313   5.257  10.730  14.785  0.0604  0.0109 -0.0388
16466W        W33314   1.000   9.089   0.860 -0.1562  0.0265  0.0357
16467W        W33315  10.716  10.572   4.815 -0.3396  0.2186  0.1489
16468W        W33316  12.609  12.966   4.070  0.0554 -0.0442 -0.0953
16469W        W33317  11.437  17.946  11.468  0.0840  0.1982  0.3934
16470W        W33318   2.437   9.864   2.257 -0.0045 -0.1925 -0.1973
16471W        W33319   0.313   5.915   4.454  0.0860  0.0689 -0.3760
16472W        W33320  17.909  13.589  13.362  0.2268  0.0992  0.2922
16473W        W33321   6.829   3.220   3.395 -0.1562  0.0076 -0.0487
16474W        W33322   2.239  14.361   2.104  0.1719 -0.0105 -0.0368
16475W        W33323  17.044  14.462   2.709 -0.1126 -0.3121 -0.3055
16476W        W33324   9.308   5.129  11.507  0.0493  0.0370 -0.0366
16477W        W33325   5.758   1.295   3.830  0.1612 -0.0128  0.4542
16478W        W33326   4.377  16.702   4.709  0.4007 -0.1480 -0.0288
16479W        W33327  12.657  15.609   4.860 -0.0121  0.1832  0.0293
16480W        W33328  15.222   5.616  13.151 -0.2215 -0.0761 -0.4946
16481W        W33329   1.385   0.080  14.898  0.2846  0.0220 -0.1270
16482W        W33330   2.627   4.110   0.558  0.2019  0.0047 -0.1484
16483W        W33331   1.117  15.992  11.478  0.1862  0.1616 -0.1640
16484W        W33332   6.985   1.863  12.633 -0.0893  0.0262  0.0258
16485W        W33333  14.448   7.584   0.167  0.1508  0.2536 -0.1746
16486W        W33334   1.154   4.648  13.506 -0.2207 -0.6348  0.1487
16487W        W33335  12.907  17.272   2.182  0.2222 -0.2998  0.0041
16488W        W33336  12.922   9.014   3.628  0.3485  0.0693  0.2784
16489W        W33337   1.799   0.731   5.435  0.0023 -0.2420 -0.2922
16490W        W33338   9.652  12.605   2.441 -0.0255  0.3573  0.1273
16491W        W33339   7.591   5.837  14.900 -0.0204 -0.0852  0.0012
16492W        W33340   6.566   8.130   4.349  0.1403 -0.2497 -0.0985
16493W        W33341  13.864  11.037  15.109 -0.0004  0.0635 -0.3002
16494W        W33342   7.121   0.254   5.447  0.1948  0.1991 -0.2008
16495W        W33343   0.311   6.331  14.961 -0.2123  0.1155 -0.2527
16496W        W33344  11.736  15.759  14.964  0.1714  0.1846  0.1830
16497W        W33345  10.272   7.213   2.339  0.0248 -0.0515  0.0770
16498W        W33346  10.163   8.619  11.716  0.1003 -0.2299 -0.0458
16499W        W33347  13.642  17.380   3.610 -0.1915 -0.2007  0.3988
16500W        W33348   1.256   3.284   2.306  0.0944 -0.1576  0.1405
16501W        W33349  16.549   1.738   5.146 -0.0579 -0.0899 -0.2054
16502W        W33350   2.092  14.594   3.645  0.0833  0.0128  0.0323
16503W        W33351   3.604   4.713  14.958 -0.3932 -0.1197 -0.0979
16504W        W33352   8.209   0.942  13.467 -0.6991 -0.2254  0.0446
16505W        W33353   5.185  11.391  11.642 -0.1144  0.1295 -0.1399
16506W        W33354  11.461   2.518  14.023  0.2501 -0.0449 -0.1474
16507W        W33355  15.731   6.688   3.017 -0.0944  0.1625  0.1050
16508W        W33356  14.088   9.479  13.347  0.1486  0.3163 -0.1739
16509W        W33357   4.815   5.166  14.784  0.3969  0.1130 -0.1530
16510W        W33358   5.495   2.401  13.276 -0.0778  0.2502  0.1148
16511W        W33359   3.935  14.876  14.034  0.2507 -0.2544  0.3392
16512W        W33360  14.853  13.907  14.837 -0.1781  0.4397  0.0041
16513W        W33361   7.283  10.905   2.550 -0.2800 -0.0836  0.0397
16514W        W33362  16.623   7.975   2.221 -0.1122 -0.1542  0.2070
16515W        W33363   5.772  12.015   3.707 -0.2170 -0.0958 -0.2431
16516W        W33364  12.601  10.531   3.648  0.1901  0.0800 -0.1079
16517W        W33365   0.205  13.413   1.333 -0.1438 -0.1714 -0.1235
16518W        W33366   5.980  13.923  13.601  0.1160  0.1641 -0.0153
16519W        W33367   1.488   7.600  15.729 -0.0613  0.2121  0.1772
16520W        W33368   5.418  17.844  11.294  0.1232 -0.1835 -0.2232
16521W        W33369  12.282   9.945   0.834  0.1959 -0.0491  0.1365
16522W        W33370   0.535   5.396  15.231  0.0886 -0.1158 -0.0668
16523W        W33371  12.580   7.789  11.074  0.2192  0.4095  0.0410
16524W        W33372   7.219  16.839   3.193 -0.1388  0.0258 -0.0149
16525W        W33373   7.886  10.937   2.169  0.2058 -0.1529  0.5259
16526W        W33374  10.427  13.417   1.681  0.0115  0.1384  0.2062
16527W        W33375  13.628   7.266   3.344  0.0947  0.0853 -0.0611
16528W        W33376   1.024   0.261   4.320 -0.1391 -0.0021  0.2941
16529W        W33377   5.286  11.088   1.273  0.0383 -0.3174 -0.1071
16530W        W33378   0.338   3.082  14.712  0.1492 -0.0738 -0.0843
16531W        W33379   5.473   4.762   3.079  0.0533  0.0808  0.1610
16532W        W33380  10.182   7.094   2.793 -0.1138 -0.1406  0.2428
16533W        W33381   3.233  10.699   3.270  0.0033 -0.3125 -0.2009
16534W        W33382   2.002  16.420  14.013  0.0062 -0.2135  0.1072
16535W        W33383   1.170  13.907   4.717  0.3578 -0.1503  0.2871
16536W        W33384   2.771   2.332  13.106  0.1353  0.3142  0.2370
16537W        W33385   5.132  13.642   2.217  0.0498 -0.0100  0.1330
16538W        W33386  10.680  16.006   2.444  0.0319 -0.0853 -0.2416
16539W        W33387   9.474  17.220   1.639  0.0476 -0.1023 -0.1231
16540W        W33388   8.872  17.531   0.481  0.1011 -0.0445 -0.2505
16541W        W33389  11.700  10.468  14.370  0.1011 -0.1131 -0.1835
16542W        W33390   6.743  17.250   0.012  0.0759  0.2146 -0.0451
16543W        W33391   7.543  12.518  14.671  0.1484  0.2193 -0.0017
16544W        W33392   8.360  10.520  14.740  0.1494 -0.3140 -0.3965
16545W        W33393  10.047   4.565  15.682 -0.0435 -0.2107 -0.2404
16546W        W33394   3.768  15.389   2.701 -0.0628  0.0237  0.3972
16547W        W33395   0.617   2.843  15.642 -0.1906  0.3643 -0.1912
16548W        W33396  17.773  10.243  13.229 -0.0594 -0.2136  0.3318
16549W        W33397   2.781  16.755  11.554  0.0634 -0.0057  0.0276
16550W        W33398  15.311   8.881   9.981 -0.0448  0.2880 -0.0691
16551W        W33399  14.635   4.626  14.551 -0.1946  0.1572  0.1899
16552W        W33400   0.783   3.540   3.067  0.1571 -0.1352  0.3097
16553W        W33401   9.458   4.415   2.882 -0.1435  0.0070  0.2870
16554W        W33402  16.909   9.375   3.609 -0.0123 -0.2050 -0.1665
16555W        W33403  16.476   4.149  11.252  0.1546  0.0275  0.0058
16556W        W33404  17.714  13.396   1.143  0.1855 -0.0538  0.1067
16557W        W33405  10.264   6.458   0.589  0.1543 -0.1688 -0.0662
16558W        W33406  15.834   8.425  14.153  0.2153  0.0092 -0.2501
16559W        W33407   7.593  14.786  15.585  0.2313  0.1373 -0.0343
16560W        W33408   3.040   0.517  14.092 -0.0251  0.0870 -0.1217
16561W        W33409  10.918  17.570  14.233 -0.0548  0.1088 -0.0808
16562W        W33410   4.016  16.256   4.858  0.0915  0.1351 -0.3577
16563W        W33411   4.251  15.879   4.406  0.1509 -0.1135 -0.0793
16564W        W33412  17.034  11.090  15.564  0.2663 -0.0539  0.0207
16565W        W33413   6.782   6.826   3.570  0.2389 -0.0965  0.1947
16566W        W33414   1.137  11.145  11.063  0.0777 -0.1026  0.1623
16567W        W33415   2.345   6.049  13.772  0.2739 -0.1924 -0.0864
16568W        W33416  10.696  15.837  13.826  0.0585  0.2064 -0.1155
16569W        W33417   8.927   5.160  11.913  0.0936 -0.0081 -0.2023
16570W        W33418  17.306  17.461  15.961  0.1475 -0.1001  0.2364
16571W        W33419   0.950   6.050   0.653 -0.5062  0.0435  0.0470
16572W        W33420  15.715  10.464  15.952  0.1182 -0.3631  0.1529
16573W        W33421  17.000   2.851  14.896 -0.1505 -0.2697 -0.0050
16574W        W33422   4.489   4.518   5.001  0.2756  0.1217  0.1181
16575W        W33423   2.243  15.726   4.935 -0.1545 -0.1059  0.0725
16576W        W33424   9.871   8.887   3.113  0.0591  0.0691  0.1159
16577W        W33425   8.540  15.323   0.712  0.0045 -0.1413  0.0407
16578W        W33426   5.948   7.233  12.214  0.0525 -0.1050 -0.1277
16579W        W33427  17.985  14.505   0.937  0.1250 -0.2733  0.0088
16580W        W33428  15.756  15.476   4.592  0.0778  0.2800 -0.1458
16581W        W33429  10.211   8.862   4.200  0.2337  0.0705  0.0031
16582W        W33430   5.953  12.566   0.383  0.2304 -0.1384 -0.1917
16583W        W33431   8.279   8.810   4.147 -0.4033  0.1190  0.3707
16584W        W33432  11.100   9.518   3.006 -0.2557 -0.0494  0.2363
16585W        W33433  17.555  11.479  12.556  0.2252 -0.0103 -0.2410
16586W        W33434  16.203   6.686   3.844  0.0762 -0.1738  0.1041
16587W        W33435   5.040   5.143  11.626 -0.1892 -0.0499 -0.1661
16588W        W33436  14.793  10.840   2.149 -0.2491  0.0505  0.3627
16589W        W33437  14.632  15.456   2.787 -0.2989 -0.1742  0.0876
16590W        W33438   9.284  10.288  14.789 -0.2274 -0.1248  0.0040
16591W        W33439   9.043  16.043  12.999 -0.3393  0.1131  0.5756
16592W        W33440  17.640   0.856   3.957  0.0457 -0.0960 -0.2564
16593W        W33441  11.292   8.730  11.360 -0.3032  0.1798  0.2027
16594W        W33442  13.598   2.975  15.105 -0.1630  0.0900 -0.0687
16595W        W33443  12.546  15.459   4.003  0.0482  0.0660 -0.1689
16596W        W33444   7.698   6.343   5.746  0.2211  0.0413 -0.0810
16597W        W33445   4.910   8.753   3.031 -0.1645  0.1366  0.0330
16598W        W33446   6.904  11.148  11.941  0.0053 -0.2436  0.0372
16599W        W33447  14.687  13.233  12.198 -0.1429 -0.1093 -0.1541
16600W        W33448   2.900   3.741  15.056 -0.2407 -0.3304  0.0806
16601W        W33449  17.122   7.364   0.097  0.3869 -0.0454  0.0531
16602W        W33450  11.867  17.996   1.713  0.3185 -0.0106  0.0741
16603W        W33451   7.466  12.619  13.458  0.0044 -0.1371  0.2392
16604W        W33452   9.299   3.155  10.540 -0.2365  0.1868  0.1157
16605W        W33453  13.715  13.777   1.979  0.0735 -0.2247  0.1194
16606W        W33454   3.598   8.107   0.696  0.2486 -0.1314 -0.1503
16607W        W33455  10.311   3.496  12.763  0.2919 -0.1253  0.0681
16608W        W33456  12.225   7.594  15.636 -0.0395 -0.3870 -0.2197
16609W        W33457   2.880  11.405  12.286  0.1298  0.1402 -0.1504
16610W        W33458   5.174   8.344   0.996 -0.0824 -0.3220  0.1735
16611W        W33459   9.887   4.063   1.505  0.3515 -0.1104 -0.1097
16612W        W33460   7.513   5.935  12.943  0.0345 -0.2078  0.3093
16613W        W33461   2.018  14.570   2.842 -0.3074 -0.2574  0.1325
16614W        W33462  10.990   9.595   3.986  0.0193  0.0120  0.1834
16615W        W33463   5.483   7.414  15.071  0.0027  0.1178  0.0700
16616W        W33464  16.011  16.711  14.110  0.0853  0.3457 -0.0178
16617W        W33465  15.377  10.463  15.602 -0.0631 -0.3371  0.4793
16618W        W33466  10.548  16.680   1.281 -0.0183 -0.2802  0.1318
16619W        W33467  16.991   6.530   5.464 -0.0807  0.0669 -0.2101
16620W        W33468   2.243  14.087  14.067  0.0862  0.1572  0.2104
16621W        W33469   9.812   4.875  14.455 -0.3611 -0.0035 -0.1856
16622W        W33470   3.487   0.211   0.090  0.0886  0.2084  0.2057
16623W        W33471   0.869   9.991  12.824  0.1590  0.4031  0.2430
16624W        W33472  17.002   8.131   4.882  0.0550  0.3822  0.1659
16625W        W33473   1.057  11.386   0.467 -0.0296 -0.1835  0.0143
16626W        W33474   4.822   4.030  11.255 -0.1610  0.1829 -0.0734
16627W        W33475   9.163   0.357  11.158 -0.1785  0.2242 -0.0829
16628W        W33476  12.184   2.707   1.704 -0.2045 -0.0164 -0.3395
16629W        W33477  17.540   1.007   1.090 -0.0621 -0.0713 -0.1196
16630W        W33478  12.779   7.830   5.026  0.2905 -0.0009  0.1759
16631W        W33479  10.722   2.839  14.165 -0.0908 -0.0762  0.0685
16632W        W33480  16.453  14.140  15.907 -0.1922 -0.1357 -0.1245
16633W        W33481   0.950   1.315   4.093  0.1610 -0.0469  0.2199
16634W        W33482  13.035   6.654   0.671 -0.0779 -0.2579 -0.0495
16635W        W33483   9.400  14.177   4.895 -0.1621 -0.0354  0.0047
16636W        W33484   3.836  10.579   5.163 -0.1020 -0.0946  0.1747
16637W        W33485  10.584   4.726  11.475 -0.0793  0.0518  0.4565
16638W        W33486   6.139   4.146  13.927 -0.5312 -0.1169  0.1389
16639W        W33487  16.538  11.037  14.556  0.1556 -0.1422 -0.1700
16640W        W33488  15.505   0.952  12.005  0.0741  0.2212  0.0297
16641W        W33489   6.626  11.717  15.940 -0.0308  0.1501 -0.2021
16642W        W33490   5.841  11.167  12.370 -0.0130 -0.0697  0.1194
16643W        W33491  12.948   4.441   3.427  0.2461  0.0714  0.0711
16644W        W33492  15.426  11.366   1.646  0.0971 -0.0723 -0.0277
16645W        W33493   2.264   7.626  14.485  0.4036  0.1730 -0.2118
16646W        W33494  10.450  10.345   4.345  0.0644  0.3952  0.1311
16647W        W33495  11.374   5.154   3.835 -0.1679 -0.0557  0.0320
16648W        W33496  12.066  10.835  15.231  0.0285 -0.0449  0.2975
16649W        W33497   9.255  12.460  15.322  0.0432 -0.1893  0.1686
16650W        W33498  10.893   9.504  15.715 -0.0692 -0.3707  0.1340
16651W        W33499   8.635  11.510  11.792 -0.0084  0.1987 -0.4504
16652W        W33500  13.001   4.520   4.684  0.4043  0.3251 -0.0561
16653W        W33501   4.989   0.706   1.823 -0.2377  0.2992  0.0168
16654W        W33502  12.933  13.514  11.435 -0.0306  0.2491  0.2615
16655W        W33503   5.133   5.466   4.921  0.0919 -0.1358 -0.0392
16656W        W33504   5.815   9.546   0.613  0.2361  0.0486  0.3783
16657W        W33505  15.455  17.595  15.470 -0.2246 -0.1470  0.1913
16658W        W33506  17.324   7.829  12.464 -0.0202  0.1334 -0.0531
16659W        W33507  15.679   8.529   1.638 -0.0207  0.1275 -0.0607
16660W        W33508  10.607   1.846   4.331 -0.0541 -0.0261 -0.2739
16661W        W33509  16.370   8.055  16.197 -0.1944  0.2048 -0.1052
16662W        W33510  15.957  13.367  15.963 -0.0370  0.1948 -0.1345
16663W        W33511   9.295   3.517  14.801 -0.0254 -0.2130  0.0108
16664W        W33512  16.420   7.838  13.517 -0.1567  0.2828  0.0415
16665W        W33513  16.458   5.400  13.468 -0.1480 -0.0094  0.1229
16666W        W33514  16.706  16.526   4.351  0.2360  0.1198 -0.1999
16667W        W33515  15.492   4.501   4.816  0.1797  0.3724 -0.2814
16668W        W33516  15.110   9.555   2.659  0.0221 -0.1705  0.0901
16669W        W33517   4.891  14.098   2.366  0.1078  0.0158  0.0080
16670W        W33518   4.876   6.549  13.405 -0.0463 -0.0380  0.3663
16671W        W33519   8.291   1.728  13.792 -0.0585  0.0549 -0.1758
16672W        W33520  13.930   8.172   4.476 -0.1876  0.1858  0.1309
16673W        W33521  11.874   8.370  11.207  0.1973  0.1492 -0.0515
16674W        W33522   2.867   7.523  15.130  0.2575  0.0490 -0.1043
16675W        W33523   1.395  15.880  13.666  0.2500 -0.1582 -0.2001
16676W        W33524   1.382   6.849  12.515 -0.0115 -0.0759 -0.0709
16677W        W33525  14.285   4.777  10.255 -0.2393  0.0035  0.1145
16678W        W33526  11.689   2.945  16.020  0.1980 -0.0251 -0.1821
16679W        W33527  15.732   8.443   2.418 -0.1756 -0.0073  0.2749
16680W        W33528   3.817   8.084   2.391  0.0922  0.0647  0.1721
16681W        W33529  13.520   5.701  12.585  0.0987  0.0384 -0.2574
16682W        W33530  15.943   6.421  15.055 -0.0362  0.0135  0.0115
16683W        W33531   5.105  14.634  16.261  0.0281  0.0202 -0.1343
16684W        W33532   6.638   0.936   2.856 -0.2086 -0.2363 -0.0410
16685W        W33533  16.276  12.483   2.136  0.2514 -0.1384  0.2764
16686W        W33534   1.519   2.396  12.323  0.1077  0.2858 -0.0441
16687W        W33535   5.672  16.403  16.141 -0.1883  0.0319  0.1254
16688W        W33536   9.367  16.905   0.677 -0.0897 -0.1315  0.0062
16689W        W33537  16.597  10.473  15.963  0.1545  0.3788  0.4002
16690W        W33538  17.764  13.445  11.732 -0.1187  0.0921  0.2115
16691W        W33539  13.975   4.773   3.779 -0.3456 -0.1106 -0.3329
16692W        W33540  10.830  17.018  13.096 -0.0972 -0.3448 -0.1464
16693W        W33541   9.727   7.242  12.977 -0.0384 -0.4895 -0.0673
16694W        W33542   1.580   6.850   3.298 -0.0767  0.5208  0.1143
16695W        W33543  10.406  13.835  13.241  0.2501  0.1633  0.0586
16696W        W33544   7.420   4.825  14.145  0.1827 -0.0996 -0.0593
16697W        W33545   3.229  12.973  12.277  0.2476  0.1482 -0.1589
16698W        W33546  11.756   4.288  11.811  0.0921  0.2274 -0.2170
16699W        W33547   2.047   4.231   2.762 -0.0669  0.0242  0.0106
16700W        W33548   5.887  11.521  13.333  0.1266 -0.1288 -0.1144
16701W        W33549   9.585   5.230   2.653 -0.0345  0.1764 -0.1181
16702W        W33550  10.284   5.113   4.040  0.0238  0.1828  0.0810
16703W        W33551   1.364   1.013   1.264 -0.1991  0.0089  0.1327
16704W        W33552   9.067   6.852  11.769 -0.1916 -0.0111  0.0112
16705W        W33553   5.837   8.910  11.619 -0.2165 -0.1294  0.1953
16706W        W33554   7.977   3.808   0.030 -0.1220  0.1424  0.2102
16707W        W33555   2.840  12.146   4.122  0.1739  0.1268  0.0374
16708W        W33556   9.307   4.289   2.393  0.0384 -0.1625 -0.1257
16709W        W33557  16.139   5.547   0.763 -0.0374  0.0598 -0.1367
16710W        W33558   1.596   3.705  14.468  0.1836  0.1251 -0.0660
16711W        W33559   7.145  14.721  14.827 -0.0032 -0.0735 -0.3348
16712W        W33560  12.625   3.680  14.078  0.4126 -0.1090 -0.0941
16713W        W33561   3.887   3.052   2.050  0.1878  0.1314 -0.2522
16714W        W33562   5.736  10.947  14.865 -0.1133  0.0388 -0.1255
16715W        W33563  14.958  14.630  12.100 -0.1273 -0.0291  0.3612
16716W        W33564  16.177  12.479  15.760 -0.0713  0.3906  0.0215
16717W        W33565   3.297  17.415   3.063  0.0798  0.2310 -0.0228
16718W        W33566  15.814  14.152  15.488 -0.1288 -0.0960  0.1947
16719W        W33567   9.473   9.885  15.547  0.1055  0.1678  0.2807
16720W        W33568   7.764   8.012  11.123  0.4317  0.1678  0.2909
16721W        W33569   0.987  13.668   1.914  0.2246  0.1386  0.0798
16722W        W33570   6.511  13.178   0.038  0.0410  0.0896 -0.0036
16723W        W33571   3.374   4.976   4.644  0.0084 -0.0006 -0.0750
16724W        W33572   3.202  12.655   5.092  0.2632 -0.2373 -0.1015
16725W        W33573  17.640  15.205  13.940 -0.2252 -0.1416  0.2517
16726W        W33574   2.527  10.377   1.069 -0.1666  0.1480  0.0961
16727W        W33575   7.698   0.368  11.564 -0.2751 -0.4106  0.0202
16728W        W33576   2.393   9.881  15.216 -0.2121 -0.0184  0.4219
16729W        W33577  14.033  13.915  13.312  0.1189 -0.1851  0.1165
16730W        W33578   1.195   0.029  16.060  0.0404  0.1408  0.1910
16731W        W33579  12.941  11.583  15.061 -0.3406  0.3014  0.3609
16732W        W33580  17.341   6.375   5.062 -0.1458 -0.0167  0.1378
16733W        W33581  15.096   3.345   0.770  0.4183 -0.3230  0.1601
16734W        W33582   9.133   4.209  12.862 -0.1793 -0.0699 -0.0597
16735W        W33583   4.365   1.488  14.915 -0.0235  0.0706 -0.2604
16736W        W33584  16.461   7.354  12.071  0.2868 -0.2903 -0.2169
16737W        W33585  11.065  12.592  11.440  0.0173  0.3200 -0.0227
16738W        W33586  10.984   8.742   3.163 -0.0718 -0.0374 -0.1256
16739W        W33587   4.243   5.900  13.581  0.1434  0.2777  0.0258
16740W        W33588   6.216   6.781  15.464  0.0562 -0.1348  0.3220
16741W        W33589  15.310   7.058  13.256 -0.3667  0.0871 -0.2018
16742W        W33590   5.491  15.486   3.272 -0.3414  0.1295 -0.1557
16743W        W33591  15.830   2.155  15.635  0.2368  0.0446 -0.2025
16744W        W33592  11.214   8.300   3.258  0.2854  0.1939  0.0692
16745W        W33593   9.916  11.880   0.725  0.2494  0.2878 -0.0424
16746W        W33594  13.105  17.652  14.913 -0.1137 -0.3140 -0.1449
16747W        W33595  12.939   1.936   3.458  0.0147 -0.1555  0.1139
16748W        W33596  16.806   0.198   2.050  0.0891 -0.0447  0.0882
16749W        W33597  11.116   3.499   2.274  0.0502  0.0365  0.0033
16750W        W33598   0.253   5.867  15.186 -0.0757  0.1745  0.2325
16751W        W33599  11.356  14.356  13.506  0.4687 -0.1398  0.1083
16752W        W33600   1.810  17.054   0.970 -0.1381  0.1278  0.0257
16753W        W33601   4.018   1.977  13.808  0.3635 -0.0631 -0.0466
16754W        W33602  15.793   8.360   4.409 -0.2420 -0.1248 -0.2693
16755W        W33603   6.655   7.510   4.621  0.2515  0.1607 -0.0800
16756W        W33604  14.978   1.775  13.728 -0.0186  0.1635  0.2039
16757W        W33605  13.784   1.169  13.997  0.0186 -0.0606  0.3244
16758W        W33606   8.911   7.793   3.648  0.2414 -0.0820 -0.1760
16759W        W33607   3.973  10.698  12.604  0.0862 -0.1237 -0.0554
16760W        W33608   0.910   3.912   3.435 -0.1631 -0.0959  0.0475
16761W        W33609   7.350  14.015   2.124 -0.1561 -0.1035 -0.0086
16762W        W33610  15.835   3.493   4.793 -0.1491 -0.3307  0.1952
16763W        W33611   7.507   0.360   4.133 -0.1097 -0.0665  0.1487
16764W        W33612  17.101   4.135  12.416 -0.1177  0.1248  0.1018
16765W        W33613  12.505   4.302  12.669  0.2697 -0.1933 -0.0482
16766W        W33614   6.003   8.944   0.396 -0.3007 -0.1295  0.2238
16767W        W33615  16.254   7.219   0.393  0.0033 -0.0869 -0.1221
16768W        W33616   7.692  16.324  13.960  0.0876  0.1768 -0.0106
16769W        W33617   1.336  13.315  11.568 -0.2367 -0.4384  0.1475
16770W        W33618   2.586  16.941   1.487 -0.0831  0.1216  0.0536
16771W        W33619   5.046  16.344  15.548  0.2024 -0.1191  0.0233
16772W        W33620   8.727   9.687   0.005 -0.0272 -0.0646 -0.5036
16773W        W33621   0.258  16.636   4.024  0.0127 -0.1918  0.1972
16774W        W33622   6.044  14.604   2.678 -0.0045 -0.3431 -0.0205
16775W        W33623   3.808  14.069  14.527  0.1865  0.0130 -0.1370
16776W        W33624  12.658   8.120   4.576 -0.0033  0.2661  0.2023
16777W        W33625   8.544   4.251  11.537  0.3330  0.0595 -0.0695
16778W        W33626  17.902   4.562  13.401 -0.1846 -0.2087 -0.2155
16779W        W33627   6.154  17.419   6.142 -0.0009 -0.2703  0.0485
16780W        W33628   5.200  13.262   3.703 -0.3666 -0.1017 -0.2209
16781W        W33629   7.920   1.175   4.794  0.1105  0.0350 -0.2108
16782W        W33630   5.622  10.925   0.907 -0.1641 -0.0172 -0.1481
16783W        W33631  16.766  15.368  13.427  0.0325  0.1857 -0.2782
16784W        W33632   6.738   6.671   2.338 -0.2743 -0.1300 -0.1892
16785W        W33633  14.554   1.165   0.400 -0.1065 -0.1038  0.1827
16786W        W33634   6.203  16.858  13.890 -0.0428 -0.0060  0.1065
16787W        W33635  14.899   4.406  15.004 -0.0094 -0.0445  0.1979
16788W        W33636   2.441   7.799   4.803  0.2802 -0.3644  0.0900
16789W        W33637  10.313  16.823  13.162 -0.0036 -0.2201  0.4552
16790W        W33638  16.188   8.047  12.784 -0.1719  0.0247 -0.0956
16791W        W33639  10.231   1.818  13.728 -0.2913 -0.0685  0.1699
16792W        W33640  15.306  16.374   2.568  0.2401  0.0302  0.1715
16793W        W33641   1.390  11.193  10.592  0.1409  0.1392  0.3269
16794W        W33642   1.533  14.977  15.808  0.4232 -0.1378  0.1865
16795W        W33643   4.033   6.060   1.887 -0.1500 -0.0617 -0.1858
16796W        W33644   0.216   8.532   5.498  0.1991  0.0016 -0.1540
16797W        W33645  15.469   5.021  13.064  0.1819 -0.3656  0.2259
16798W        W33646  13.653  17.477  14.132  0.2359 -0.0963 -0.3248
16799W        W33647   4.961   2.251   5.134 -0.1489  0.0301 -0.2661
16800W        W33648  16.669  16.670  11.289  0.0218 -0.3804  0.1614
16801W        W33649   9.745  12.610  13.733 -0.0400 -0.1217 -0.1647
16802W        W33650  10.472  13.578  14.445 -0.1004 -0.0689 -0.1068
16803W        W33651   6.535  11.250  15.760 -0.0897 -0.1983  0.1694
16804W        W33652   6.757  13.140   1.906  0.0596  0.4281 -0.2474
16805W        W33653   0.495  15.563  13.037  0.0793  0.0454  0.0066
16806W        W33654   0.701   3.647  15.410  0.0364  0.4095  0.2947
16807W        W33655  14.091  10.805  11.743 -0.3033 -0.2855  0.1846
16808W        W33656   1.166  10.383   4.381 -0.3500  0.1657  0.1931
16809W        W33657   2.713   4.252   4.496 -0.2567  0.1254  0.0774
16810W        W33658  15.421  14.683  10.367  0.1231 -0.2485  0.1022
16811W        W33659   5.407   8.443  12.969 -0.2365 -0.0820 -0.3881
16812W        W33660  12.724   3.990   1.689 -0.1286  0.2622  0.1916
16813W        W33661  16.031  16.981   2.399 -0.2427 -0.1741 -0.1762
16814W        W33662   7.499   5.870  16.269  0.0533 -0.1813  0.1907
16815W        W33663   4.849  14.672   2.161 -0.1507 -0.1244  0.0234
16816W        W33664   8.373  17.101  11.686  0.1351  0.0272  0.2646
16817W        W33665  16.164   7.815  13.958  0.3930 -0.0344  0.0394
16818W        W33666   0.998   9.398  12.120  0.3690 -0.2101 -0.0554
16819W        W33667  10.111  10.147  14.803  0.1830  0.3072 -0.0329
16820W        W33668  12.567  11.902   1.944 -0.1331  0.2485 -0.2622
16821W        W33669   0.249  17.723   1.221  0.1859 -0.2025 -0.0425
16822W        W33670   5.391   3.949   2.057 -0.1205  0.4183  0.1576
16823W        W33671  10.057  12.786   4.161  0.1448  0.0063  0.1930
16824W        W33672   3.025   7.716  13.694 -0.2708 -0.1332 -0.0174
16825W        W33673   4.997  10.292  12.977  0.2356 -0.0767  0.1061
16826W        W33674  11.503   8.704   3.071 -0.0179  0.1604  0.2225
16827W        W33675   7.708   0.010   1.993  0.1452 -0.0130  0.0998
16828W        W33676  15.050   4.766  15.369  0.1798 -0.0382  0.1285
16829W        W33677   4.859   5.152  15.275  0.1979  0.2187  0.2934
16830W        W33678  10.274   4.961  10.727 -0.2988 -0.0766 -0.0478
16831W        W33679   0.873   2.182  13.532  0.0370 -0.2764  0.0876
16832W        W33680  17.918  11.418  11.043  0.2309 -0.0317  0.1515
16833W        W33681  16.474  12.971   4.962  0.0634 -0.0317  0.1295
16834W        W33682  14.105   8.388  15.337  0.0336 -0.1076 -0.0377
16835W        W33683  13.163  16.155  14.031  0.2926  0.1431 -0.0068
16836W        W33684   4.287  11.721  12.490 -0.0578  0.1311  0.0960
16837W        W33685   2.367  10.929   0.485 -0.0571 -0.2343  0.0458
16838W        W33686   2.583   1.554  11.715  0.2455  0.2640  0.0296
16839W        W33687   8.073  15.018  13.005 -0.2168 -0.1920 -0.2121
16840W        W33688   9.287  10.020  11.906  0.0671 -0.1597 -0.0541
16841W        W33689   9.330  12.793  15.768  0.2944 -0.0486  0.2828
16842W        W33690  14.081   3.747  16.131  0.0010 -0.2645 -0.1979
16843W        W33691  13.868  15.873   1.700 -0.0978  0.0006  0.0190
16844W        W33692   2.652  16.524  15.539  0.3457 -0.0451 -0.2459
16845W        W33693   9.603   3.504   0.743 -0.2217 -0.1791 -0.2549
16846W        W33694   0.495   2.244  15.631 -0.0708 -0.0565  0.0296
16847W        W33695  15.873  12.523  15.341 -0.0601 -0.1994 -0.0759
16848W        W33696  11.704  15.460  12.993  0.1658 -0.0674  0.1360
16849W        W33697   4.419  13.804   4.575 -0.0906  0.2996  0.2648
16850W        W33698   0.284  12.584   4.444  0.3660  0.0663 -0.2416
16851W        W33699  17.535  12.534   2.504 -0.0543 -0.0299 -0.1525
16852W        W33700   0.967  16.142  13.429 -0.0208 -0.2369  0.0565
16853W        W33701   5.032  15.486  15.845  0.1904 -0.1820  0.1592
16854W        W33702   6.150   7.485   3.193 -0.0020 -0.1041 -0.1145
16855W        W33703   7.549   9.626   4.381 -0.0618 -0.1120  0.0968
16856W        W33704   7.289  16.580   2.376 -0.1103  0.2396 -0.0771
16857W        W33705  15.451   7.223   4.672 -0.1121 -0.2715  0.1132
16858W        W33706  18.041  11.402   0.230 -0.1886 -0.2905 -0.1231
16859W        W33707   6.630  10.896   6.397 -0.0107  0.1229  0.0315
16860W        W33708   0.123   0.803   4.019 -0.1600  0.2276 -0.1134
16861W        W33709  17.017  13.125   3.839  0.0818  0.0434  0.0368
16862W        W33710  10.511   8.619   1.655  0.3529 -0.2992  0.2027
16863W        W33711  10.199  11.954  14.418  0.0118 -0.1719  0.2967
16864W        W33712   3.649   8.513   1.603 -0.0628  0.0117 -0.0388
16865W        W33713   9.181   8.027  14.146  0.4065 -0.1735  0.3777
16866W        W33714   3.134  11.632   5.363  0.3287  0.2402  0.3437
16867W        W33715   9.742   5.870   3.994 -0.2431 -0.0057  0.3341
16868W        W33716  13.970  15.619  13.772  0.1728 -0.1608 -0.2692
16869W        W33717   7.730   7.462   4.620 -0.1095 -0.2005 -0.3251
16870W        W33718  17.519  11.995   5.287 -0.1615  0.3323 -0.1168
16871W        W33719  13.325   3.393   4.043  0.1095 -0.1480 -0.0680
16872W        W33720   7.581   1.213  16.020  0.2916  0.1144 -0.1688
16873W        W33721  11.421  17.878  15.721  0.2917 -0.0406  0.0291
16874W        W33722  13.774  17.554   2.122 -0.2115 -0.0396 -0.2749
16875W        W33723   7.656   3.879   2.817  0.0168 -0.2230  0.0930
16876W        W33724   2.160   9.011  14.954  0.3017  0.3302  0.0007
16877W        W33725   9.634   2.381  16.224  0.2310  0.0922  0.0404
16878W        W33726  10.983   1.720  11.497 -0.3424  0.3480  0.0625
16879W        W33727   9.245  17.492   1.197 -0.0228  0.0619 -0.4965
16880W        W33728  10.476  13.817   0.489  0.1171 -0.0392  0.0015
16881W        W33729   6.327   5.225  13.662  0.0458  0.2499 -0.0154
16882W        W33730   8.831  10.419   1.818 -0.2615  0.3766 -0.2252
16883W        W33731   7.284   5.268   4.152  0.1023  0.1835  0.2967
16884W        W33732   1.937   2.946  10.577  0.2248 -0.1735  0.0734
16885W        W33733   1.267  14.304  15.181 -0.1480  0.0484 -0.0018
16886W        W33734  16.940   4.359  15.690 -0.0820 -0.0444  0.2653
16887W        W33735  13.429  11.504   0.662 -0.1034  0.0707  0.2824
16888W        W33736   2.177   9.201   0.979  0.0225  0.2763  0.0563
16889W        W33737   8.980  16.750  14.716  0.2328 -0.2825  0.0905
16890W        W33738  16.936   6.886   2.023  0.3342  0.3181  0.1114
16891W        W33739  11.864   7.808  12.819 -0.1969  0.0791 -0.0504
16892W        W33740   7.683  12.174   0.471 -0.1597  0.3442  0.1125
16893W        W33741  10.644   7.176   2.641 -0.1533 -0.0824  0.2951
16894W        W33742   6.458  15.288   0.915 -0.0487  0.1246 -0.0124
16895W        W33743  11.229  17.979   1.714  0.0455 -0.1211  0.0109
16896W        W33744   0.304   3.201   3.118  0.0040  0.1733 -0.0614
16897W        W33745   0.651   6.212   6.028  0.0774  0.4296  0.2862
16898W        W33746   9.387  17.079   2.555  0.2278  0.1191 -0.0758
16899W        W33747  11.697   0.729  15.814 -0.2503 -0.2419  0.2831
16900W        W33748   2.965   1.804  14.366  0.0394  0.0319  0.2665
16901W        W33749  17.807  13.980   2.489 -0.0938  0.1498  0.1571
16902W        W33750  13.774   6.147  16.081 -0.0196 -0.0195 -0.1743
16903W        W33751   8.830   7.431  10.864  0.0956  0.0226  0.0124
16904W        W33752   3.320  16.021   4.837  0.1388  0.4891  0.0465
16905W        W33753   8.624  16.834   5.028 -0.2582 -0.1233 -0.0015
16906W        W33754   6.276   0.776  12.409  0.0498  0.0514 -0.1828
16907W        W33755  12.634   8.238  10.894 -0.4334  0.0339  0.0620
16908W        W33756   2.538   2.300   1.110 -0.2537 -0.0826  0.2555
16909W        W33757   1.399   0.594  14.823 -0.2742 -0.0900  0.0775
16910W        W33758   5.554  10.894   2.897 -0.2088 -0.1073 -0.2186
16911W        W33759   5.319  13.172   2.227 -0.0630 -0.4203  0.1479
16912W        W33760   3.718  10.962  13.047  0.1635  0.0302  0.1421
16913W        W33761   6.575  16.421  15.233  0.1111 -0.3062  0.0525
16914W        W33762   7.782   3.283  14.095  0.1392 -0.2700 -0.2926
16915W        W33763  12.210   5.424   0.867 -0.0757  0.0293  0.0267
16916W        W33764  11.627  16.220   4.919 -0.0303  0.2034  0.0077
16917W        W33765   8.614   3.182   1.767 -0.0459 -0.1053 -0.3096
16918W        W33766   1.165  15.334  15.393  0.1839  0.1874  0.0151
16919W        W33767  14.379  16.197   3.133  0.2514  0.2556  0.2383
16920W        W33768   8.185   8.010  11.803  0.1675 -0.1522  0.2361
16921W        W33769   9.242  14.488  13.397 -0.2890  0.1021 -0.4519
16922W        W33770  15.017   2.703   2.857 -0.3330  0.2018 -0.2367
16923W        W33771   7.398   5.880   0.512 -0.1635  0.0372  0.0286
16924W        W33772  10.752   9.821  16.152  0.1121  0.0234  0.1063
16925W        W33773  10.801   4.796  13.707  0.0500  0.0487  0.0914
16926W        W33774   6.608  12.518  11.962  0.1043 -0.0076  0.1480
16927W        W33775   9.534   2.294  12.986  0.2499  0.1619  0.0173
16928W        W33776  13.929   8.285   6.166 -0.0660 -0.0129  0.0580
16929W        W33777   1.933  16.990  15.377 -0.0718  0.3834  0.2394
16930W        W33778   3.931   3.706  14.792  0.0191 -0.2473 -0.0920
16931W        W33779   7.621   3.834  11.532  0.2837 -0.0007  0.0127
16932W        W33780  15.611   0.219   5.168 -0.0771  0.2082  0.1018
16933W        W33781   5.316  12.268   1.115  0.1042  0.0052  0.0101
16934W        W33782   5.073  17.718  12.697  0.1209  0.0885  0.1467
16935W        W33783  10.111   3.219  15.405  0.2418 -0.1548  0.1266
16936W        W33784  10.445  12.865   1.856 -0.1726 -0.0517 -0.2899
16937W        W33785  16.116   3.143   1.575  0.2697 -0.0334 -0.1215
16938W        W33786  13.734   3.389   2.218 -0.2369 -0.0369 -0.3024
16939W        W33787  16.096   8.172  15.667  0.1879 -0.0563 -0.1196
16940W        W33788   0.211  13.042   1.740  0.1151  0.2974 -0.0354
16941W        W33789   6.574   8.260   2.418 -0.1190  0.0584  0.1193
16942W        W33790  14.430   2.192   3.730 -0.1380  0.0762  0.1442
16943W        W33791   3.219   8.191   1.653  0.0534  0.1107  0.1565
16944W        W33792  17.234   3.151  14.254  0.0233  0.1815  0.1233
16945W        W33793  16.781   0.555  11.873 -0.2488 -0.0371 -0.0212
16946W        W33794   1.789   9.831  10.022 -0.0346 -0.1426  0.1825
16947W        W33795  13.863   4.281   5.191  0.0289  0.2354 -0.2313
16948W        W33796  11.275  13.513   2.213  0.0637 -0.3054  0.2548
16949W        W33797   5.324  12.203  12.245  0.1625  0.0174 -0.3861
16950W        W33798   7.473  14.375  15.208 -0.0508  0.1295 -0.1220
16951W        W33799   5.457   0.740  15.216 -0.1538  0.0896  0.0654
16952W        W33800   2.747   0.321   3.942  0.1182  0.3286  0.1562
16953W        W33801   2.425   4.597   4.135  0.1744 -0.2483  0.0448
16954W        W33802  16.995   7.074   3.478  0.2067  0.0205  0.0202
16955W        W33803  12.293  12.995  12.698  0.2052 -0.5314  0.1923
16956W        W33804   0.274   1.192   4.347 -0.1954 -0.1555  0.0279
16957W        W33805  15.900   1.675   1.232 -0.0710  0.0804 -0.0143
16958W        W33806   2.272  11.407  12.346 -0.0168 -0.1020 -0.0514
16959W        W33807   7.735   7.379   4.112  0.0466 -0.2961  0.0430
16960W        W33808  10.965   0.782   0.121 -0.1188 -0.1620  0.3369
16961W        W33809   1.965   4.901   1.471 -0.0353  0.0656  0.1516
16962W        W33810   3.281   8.778   4.839 -0.1581 -0.0258 -0.1942
16963W        W33811  10.052  17.656   3.995 -0.2451 -0.3158  0.1854
16964W        W33812   3.311   7.543   0.630  0.1536  0.2549 -0.2596
16965W        W33813   7.192   1.530   2.593 -0.1259  0.0288 -0.1000
16966W        W33814   7.729  14.588   2.763 -0.1338 -0.1139 -0.1252
16967W        W33815   6.393  11.193   6.128  0.0478 -0.1513  0.0390
16968W        W33816  17.488  13.790   3.309 -0.0972 -0.3228  0.0100
16969W        W33817   3.432  11.405  15.978 -0.0487 -0.3279  0.0096
16970W        W33818  14.921  16.071   4.415 -0.2277  0.1182 -0.1739
16971W        W33819  15.719  17.982  13.283  0.3663  0.1262 -0.2950
16972W        W33820  15.240   8.559   1.471  0.0514  0.1228  0.1075
16973W        W33821  13.944  13.412  16.261  0.1178  0.3280 -0.0270
16974W        W33822  17.500   5.416   4.284  0.2937  0.1848  0.3247
16975W        W33823  17.701   9.155  11.710  0.4948  0.0200 -0.0137
16976W        W33824  17.156   5.220  11.550 -0.1197 -0.0977  0.4651
16977W        W33825   4.584  15.071   2.238  0.1508  0.0453 -0.2775
16978W        W33826   5.718   1.145  15.441  0.2414  0.0028  0.0506
16979W        W33827  14.135   2.503  13.931 -0.0148  0.2604  0.1471
16980W        W33828   9.233   0.166   1.992  0.3084  0.0950 -0.1174
16981W        W33829  12.934  15.965   0.061 -0.0076 -0.0537  0.1239
16982W        W33830  14.744   4.855  12.959  0.4080  0.0607 -0.3430
16983W        W33831   7.055  10.007   1.512 -0.3601 -0.0861 -0.1022
16984W        W33832  14.107   0.845  15.839 -0.0925  0.3657 -0.1124
16985W        W33833   5.909  13.113   4.323 -0.2787 -0.1325  0.3934
16986W        W33834   8.284  15.419  15.834 -0.1442 -0.2723 -0.0741
16987W        W33835  10.602  15.164  13.816 -0.0344 -0.0210 -0.4299
16988W        W33836   0.454  16.691   3.386 -0.1094  0.3082  0.3504
16989W        W33837  17.068   2.147  14.342 -0.0770  0.3771 -0.1368
16990W        W33838   3.954   8.159  15.710  0.2667  0.5090  0.3690
16991W        W33839   6.732  13.706  14.016 -0.2147 -0.0585  0.0502
16992W        W33840   7.122  15.466  15.102 -0.0264 -0.0971  0.1412
16993W        W33841  16.514   2.604  14.931  0.1375  0.1149 -0.0176
16994W        W33842   8.389  10.223  11.061 -0.0145  0.0776 -0.0423
16995W        W33843  17.360   3.055   2.999  0.0651  0.0167  0.0197
16996W        W33844  15.318  10.099   1.153  0.1709 -0.3678  0.1777
16997W        W33845   8.357   3.944  14.620  0.0326 -0.1063  0.1343
16998W        W33846   1.342  16.311  10.846  0.0475  0.3221  0.0946
16999W        W33847  12.416   5.922   0.970  0.0793 -0.0626  0.1203
17000W        W33848   3.721   7.764  12.912 -0.2387 -0.1036 -0.0430
17001W        W33849  10.589   1.750   1.060 -0.0076 -0.2631  0.1748
17002W        W33850   9.542   5.255  12.803  0.2211 -0.1340  0.3146
17003W        W33851  11.289   7.468   0.452 -0.0528 -0.0474  0.0999
17004W        W33852   6.746  14.718   5.557 -0.1972 -0.0898 -0.0528
17005W        W33853   5.042  10.408  10.611 -0.0032  0.2046  0.0228
17006W        W33854   7.513   5.417   2.286 -0.0625  0.2359  0.2362
17007W        W33855   6.902  15.827  14.299  0.1142  0.0465  0.0327
17008W        W33856   2.568   4.594  11.268 -0.4562 -0.4866  0.0029
17009W        W33857   6.269  12.067   1.502 -0.3397  0.2597  0.4131
17010W        W33858  10.033   3.791   0.942  0.1028 -0.2366 -0.2488
17011W        W33859   5.524   0.571  14.697 -0.4384 -0.2212  0.0533
17012W        W33860   4.195  10.047   4.063 -0.0463 -0.1710  0.1923
17013W        W33861  17.202   2.315   3.454  0.0703  0.1706  0.2865
17014W        W33862   2.541   9.796   5.723  0.1126  0.1744  0.1542
17015W        W33863   9.587   3.654   1.232  0.1064 -0.2073 -0.0510
17016W        W33864   9.819   2.815  11.359 -0.1934  0.3332  0.0679
17017W        W33865   6.812   1.388  15.247 -0.0362 -0.0626  0.0381
17018W        W33866   2.440   3.772   1.012 -0.0317 -0.2486  0.0942
17019W        W33867   1.345   0.832  16.196  0.3572  0.0144 -0.0741
17020W        W33868   0.910  13.993   2.353 -0.1951 -0.2377  0.1039
17021W        W33869  13.833   2.008   3.980  0.3036 -0.0368  0.1076
17022W        W33870  10.036   8.984  14.762  0.0305 -0.0543  0.0827
17023W        W33871  14.661   2.184   5.034  0.1095 -0.0738  0.0699
17024W        W33872   6.957  10.650  11.720  0.2903  0.0185  0.0554
17025W        W33873  10.674  14.291   0.315 -0.2074 -0.1137  0.2787
17026W        W33874  14.633   5.110   3.648 -0.0506 -0.0026  0.1018
17027W        W33875  13.538  15.738  11.942  0.0070  0.1293 -0.1464
17028W        W33876   2.471   5.114   5.011 -0.4117 -0.3326 -0.0584
17029W        W33877  15.899  12.862  12.092  0.1509  0.2602  0.0882
17030W        W33878   8.282  16.628   5.385  0.1042 -0.2824  0.1763
17031W        W33879   8.191  16.135   5.606  0.0173 -0.0233 -0.1256
17032W        W33880  13.769  14.833  16.242  0.2238 -0.0187 -0.0999
17033W        W33881  15.553  13.496   2.428 -0.1133 -0.1410  0.0494
17034W        W33882  17.274   2.198   4.394  0.1196 -0.0538  0.2591
17035W        W33883   1.674   7.110  13.328 -0.0532  0.1396 -0.4283
17036W        W33884  16.303   7.634  12.465  0.0319 -0.3483 -0.1264
17037W        W33885   3.309  13.539  15.082  0.0247  0.0447 -0.4774
17038W        W33886  10.555   5.284   4.988  0.2950 -0.1548 -0.1864
17039W        W33887   0.796   9.879   0.615  0.2554  0.1011 -0.0900
17040W        W33888  12.055   7.856   0.726 -0.3605 -0.2349  0.2034
17041W        W33889   5.487   6.575  13.197 -0.1960  0.1519  0.0659
17042W        W33890  10.016  16.226   2.427 -0.1847  0.2485 -0.4018
17043W        W33891   2.144  11.254   0.778  0.1011  0.2352 -0.2580
17044W        W33892   7.359   4.154  14.318 -0.3995 -0.0482 -0.0469
17045W        W33893   0.788   4.910  11.205  0.2908 -0.1784 -0.1762
17046W        W33894   5.027   3.576  15.465  0.0647 -0.2870 -0.1613
17047W        W33895   2.302  13.670  12.563  0.1462  0.1820 -0.0518
17048W        W33896   7.959  15.328   4.696  0.2136  0.0715  0.0084
17049W        W33897   7.795   1.459  12.609  0.1042 -0.0244  0.2026
17050W        W33898  17.661   5.259  14.534  0.0388 -0.1642 -0.0848
17051W        W33899   8.554   1.304  13.709  0.0840 -0.0370  0.2355
17052W        W33900   5.808   3.162   3.218 -0.4966  0.3861  0.3310
17053W        W33901  17.547  17.028   0.802 -0.0744 -0.3389 -0.1184
17054W        W33902  13.525   5.909   4.474 -0.1442  0.3646 -0.1724
17055W        W33903   3.529   8.795   2.953  0.1460  0.0841 -0.2080
17056W        W33904  10.963  11.259  12.999 -0.1157  0.0708  0.1529
17057W        W33905  14.050   2.056   0.076 -0.2667 -0.1528 -0.1064
17058W        W33906   0.063   7.722   1.328 -0.3375  0.1513  0.1533
17059W        W33907   9.692  14.519  15.562 -0.0075  0.0567 -0.4485
17060W        W33908   1.364  12.610  13.813  0.3067  0.0250 -0.2610
17061W        W33909   3.483  13.046   2.791 -0.0777 -0.2532  0.2608
17062W        W33910  13.024  10.727  15.386  0.3611 -0.2433  0.0542
17063W        W33911  17.781  16.510  14.540  0.3743  0.0007 -0.2266
17064W        W33912   2.343   1.927   4.026 -0.0217 -0.2272  0.2819
17065W        W33913  16.648   3.415   4.091 -0.0814  0.4795  0.0611
17066W        W33914   3.888  10.086   5.049  0.0810 -0.2446  0.2590
17067W        W33915   8.999   8.603   3.386  0.0962  0.0092  0.3598
17068W        W33916  16.284   2.661  11.481 -0.3333 -0.2258  0.0789
17069W        W33917   4.600  16.654   3.250 -0.1146 -0.0208  0.0464
17070W        W33918   4.962   8.775  11.462  0.2732 -0.3857  0.1981
17071W        W33919   7.312  13.423  15.696 -0.0216  0.0346 -0.0895
17072W        W33920  10.737  13.815  11.408 -0.2000 -0.0835  0.3829
17073W        W33921  12.927   2.949   0.176  0.0594  0.1701 -0.0471
17074W        W33922   7.471   6.468   4.054 -0.0665  0.0595 -0.0054
17075W        W33923  18.016  14.480   2.236 -0.1172  0.0696 -0.3301
17076W        W33924   0.480   2.479  12.166  0.2589  0.0078 -0.0128
17077W        W33925   8.828  14.049  15.750 -0.0077 -0.0221  0.2053
17078W        W33926  12.721  15.645  15.151  0.1096  0.2133  0.2905
17079W        W33927  12.352   4.279  12.066  0.0620  0.0315  0.2087
17080W        W33928   5.720  13.942   5.191 -0.1322 -0.2160 -0.1255
17081W        W33929  12.986  10.648  11.400  0.3206  0.2504 -0.2305
17082W        W33930  14.012  10.685   1.135 -0.0586 -0.0332 -0.0883
17083W        W33931   5.597   2.433   3.968 -0.2256 -0.0615  0.1665
17084W        W33932  13.505  11.247  11.334  0.0852  0.2559  0.1830
17085W        W33933   2.087  11.140   2.470  0.0709 -0.0931  0.2534
17086W        W33934  10.729   6.453   0.500  0.1737  0.2163 -0.2649
17087W        W33935   2.389  12.112   2.306 -0.1370  0.3346 -0.1496
17088W        W33936   7.767  14.278   3.287 -0.1865  0.0131  0.0469
17089W        W33937   3.703   9.154   3.466  0.2280 -0.1592 -0.0365
17090W        W33938   3.784  17.412   2.775  0.3106  0.1180  0.0580
17091W        W33939   2.558   2.716  13.869  0.0773  0.0749 -0.0465
17092W        W33940  14.552   1.928   0.212  0.1567  0.1560  0.2492
17093W        W33941  16.062  15.301   0.721 -0.0150  0.2459  0.0028
17094W        W33942  18.023   2.477   0.683 -0.5386  0.1341 -0.1146
17095W        W33943   8.367   8.397   1.111 -0.1405  0.2181 -0.0315
17096W        W33944  16.131   0.075  16.061 -0.1723 -0.3605  0.0310
17097W        W33945   1.855  16.611  13.197  0.2918  0.0795  0.3071
17098W        W33946   5.172   1.968  12.218 -0.0473 -0.1076  0.5363
17099W        W33947  13.020   5.965   6.001  0.0359  0.4066 -0.0416
17100W        W33948  17.386   9.061  16.148  0.0047  0.0826 -0.0808
17101W        W33949   8.242   0.877   5.235 -0.0640 -0.0673  0.1189
17102W        W33950  10.940  16.548  13.392 -0.0728  0.1827 -0.0915
17103W        W33951   1.378   8.474  14.125  0.3317 -0.5821  0.0746
17104W        W33952  13.182  17.391   0.542  0.0932  0.0697 -0.0009
17105W        W33953   3.196   4.243  13.239  0.2940 -0.1764  0.0986
17106W        W33954   3.179   1.735   0.214  0.0711  0.3458  0.2189
17107W        W33955   9.094   1.749  16.078  0.0843 -0.1437 -0.2227
17108W        W33956   9.891   5.710  11.801 -0.0833  0.0035  0.0553
17109W        W33957   0.510  12.324  12.336 -0.0730  0.1836  0.1516
17110W        W33958   3.563   0.372   4.960  0.0424 -0.1134 -0.1520
17111W        W33959   4.814   2.759  14.262  0.0189 -0.0135  0.1877
17112W        W33960   8.135   4.064   3.470  0.0399 -0.2312  0.4107
17113W        W33961   4.764   2.428  12.871 -0.0167 -0.1991 -0.2550
17114W        W33962  10.227   5.476  14.755 -0.2371 -0.1120  0.1866
17115W        W33963   3.965   2.463  13.643 -0.1806  0.1454  0.0062
17116W        W33964   5.743  10.789  14.370 -0.2763 -0.0307 -0.0088
17117W        W33965   4.378   0.364  12.319  0.0190  0.1243 -0.3015
17118W        W33966   3.312   4.764   3.718 -0.3279 -0.0057 -0.2121
17119W        W33967  13.204  13.059  12.227  0.0967  0.1593 -0.0572
17120W        W33968   3.775   0.274  12.462  0.0158  0.1398 -0.0311
17121W        W33969   7.046   5.110   3.647 -0.1488 -0.1805  0.4676
17122W        W33970   9.212  15.431   5.418 -0.1425 -0.2422 -0.2284
17123W        W33971   3.091  14.651  12.957  0.0525  0.3982 -0.0377
17124W        W33972  17.508  11.574  16.243 -0.0771  0.2022  0.0259
17125W        W33973  15.564  14.295   2.773 -0.0137 -0.1962  0.0248
17126W        W33974   2.556  12.881   1.702 -0.1962  0.1627  0.1742
17127W        W33975   1.354   9.317  12.963 -0.0794 -0.3698  0.0748
17128W        W33976  14.867   6.144  15.992  0.0910 -0.0825 -0.7373
17129W        W33977   0.320   8.766  15.595 -0.4101  0.0699 -0.2691
17130W        W33978   3.154   9.645  12.565  0.0760 -0.0547 -0.0044
17131W        W33979   6.750   1.677   2.339  0.5338 -0.1735  0.2258
17132W        W33980   0.603  10.053   2.913 -0.0085 -0.1392 -0.2283
17133W        W33981   4.566   4.477  15.441  0.2374  0.1806  0.0902
17134W        W33982   1.950  12.023   0.776 -0.0421  0.0393 -0.1378
17135W        W33983   7.583   9.431  12.763 -0.1191 -0.0377 -0.1938
17136W        W33984  11.455  16.382  11.018 -0.0455  0.1244  0.1123
17137W        W33985  12.910  16.132  10.142  0.0611 -0.2930 -0.1636
17138W        W33986   8.463  11.948   2.063 -0.0940  0.0168  0.1355
17139W        W33987   4.961   0.672  15.461 -0.0752 -0.1003  0.1746
17140W        W33988   8.884   8.008   1.928  0.5204  0.3694  0.0196
17141W        W33989  13.906  11.819   2.615 -0.2025  0.5197 -0.1206
17142W        W33990   1.622   5.335  12.249 -0.1083 -0.0313 -0.0852
17143W        W33991  11.769   8.060   5.832  0.0630 -0.0575 -0.0382
17144W        W33992   6.308   6.997  14.246 -0.0229  0.0837  0.1334
17145W        W33993  14.864  11.930   1.904 -0.1391  0.0269  0.1696
17146W        W33994   7.522   6.379   0.246 -0.0897 -0.0306 -0.1597
17147W        W33995   2.754  11.371  14.035 -0.0496  0.1267  0.0458
17148W        W33996   7.314  12.438   4.152  0.1203  0.0206  0.0973
17149W        W33997  10.226  14.008  11.968  0.0106  0.0767  0.3230
17150W        W33998  16.186   2.918   4.260  0.0991 -0.1166  0.0857
17151W        W33999  10.925  12.161   1.774 -0.1187 -0.2471 -0.0366
17152W        W34000  10.347   6.963  11.391  0.3023 -0.1366  0.0576
17153W        W34001   9.013   8.729  12.186  0.0145  0.0034 -0.1211
17154W        W34002   5.740   0.839  10.323 -0.0550  0.0461  0.1734
17155W        W34003  10.564   9.313  12.727  0.0836  0.1672 -0.0062
17156W        W34004   5.311   1.737  12.690 -0.0830 -0.1636 -0.0115
17157W        W34005   7.815   3.447  12.335  0.0073 -0.1474 -0.2075
17158W        W34006  14.979   3.967  12.322 -0.0885 -0.1668 -0.2398
17159W        W34007  11.884  12.018  15.612  0.2597 -0.0605 -0.2843
17160W        W34008   0.157  16.379   1.679 -0.1792  0.4279  0.0937
17161W        W34009  17.363  14.122  16.054 -0.1112 -0.0937  0.1629
17162W        W34010  17.325   5.622   1.167 -0.1736 -0.1113 -0.4291
17163W        W34011  11.202   3.294   5.471 -0.1703 -0.2773 -0.1303
17164W        W34012  17.527   8.305   1.681 -0.1410 -0.1955 -0.1016
17165W        W34013   4.202  10.966   4.072 -0.0125  0.0828 -0.0658
17166W        W34014   0.002   9.053  12.822  0.0689 -0.0633  0.3262
17167W        W34015   5.808  11.462   2.680 -0.0468 -0.2062 -0.3134
17168W        W34016   5.544   7.240  12.552  0.0213 -0.2097  0.3945
17169W        W34017   4.345   1.120   3.473  0.0910 -0.1266  0.3662
17170W        W34018  14.678   9.002  14.050  0.1448 -0.1110  0.0194
17171W        W34019   2.960   7.365   0.335  0.0314  0.1495  0.0533
17172W        W34020   6.660   0.837  13.824  0.1131 -0.0585 -0.1496
17173W        W34021  17.298   6.331  14.098  0.4764 -0.1705  0.3062
17174W        W34022  10.248  13.155  15.340  0.4758 -0.0885 -0.2673
17175W        W34023   6.839   2.311   1.779  0.1006  0.1296  0.1748
17176W        W34024  13.045  13.177   4.325  0.2688  0.0192 -0.3033
17177W        W34025  13.853  15.869   3.216 -0.1316  0.2054 -0.0390
17178W        W34026   4.101   7.861  13.352  0.0233  0.0792 -0.0444
17179W        W34027  13.494  12.149   2.696 -0.2243  0.0289  0.0824
17180W        W34028   7.781   2.608  11.948  0.1910  0.3099 -0.2314
17181W        W34029  10.585   0.340  15.359  0.0414  0.2657 -0.4182
17182W        W34030   7.263  11.469  11.722  0.1134  0.1303 -0.0737
17183W        W34031  11.149  13.259  15.334 -0.0302 -0.2009  0.2438
17184W        W34032  16.943  16.785   1.863  0.3542 -0.0961  0.1880
17185W        W34033  13.883  11.147   0.051  0.1274 -0.1541 -0.0682
17186W        W34034   9.756   2.239   4.928 -0.0953 -0.1603 -0.2052
17187W        W34035  12.977  17.166   4.776 -0.0434 -0.1383  0.0255
17188W        W34036   3.149   2.781   1.776  0.0029 -0.0064 -0.1637
17189W        W34037   3.894   1.631  10.431  0.1060  0.0517 -0.0691
17190W        W34038  12.068  13.671   4.481  0.1036 -0.0828 -0.0577
17191W        W34039   9.385   2.558   4.709 -0.1792 -0.2155 -0.0411
17192W        W34040   7.476   7.754   1.254  0.1800  0.0789  0.1290
17193W        W34041  10.877  16.752  11.461 -0.3185 -0.4134  0.2283
17194W        W34042   2.851   4.277   1.641  0.2191  0.0806  0.0594
17195W        W34043   6.712   0.717  12.615 -0.0849  0.1105 -0.0046
17196W        W34044  12.005   6.655   3.451  0.1388  0.0589  0.0280
17197W        W34045   1.017  10.930   5.982 -0.0031 -0.0195  0.4646
17198W        W34046   9.962  14.728   2.382  0.2002 -0.3776  0.0256
17199W        W34047  13.013  12.665  16.000 -0.2743 -0.4078 -0.1998
17200W        W34048   7.354   2.312  13.385  0.0783 -0.1758 -0.1915
17201W        W34049  17.941   1.348   2.704 -0.0411 -0.1557  0.0668
17202W        W34050  10.980  13.580   5.840 -0.4264  0.1425 -0.0895
17203W        W34051  17.284  16.489   0.024  0.1438 -0.0750  0.0387
17204W        W34052   7.972   8.382   4.130  0.0457 -0.1997 -0.2246
17205W        W34053  14.346   9.465  12.836 -0.3266  0.1502  0.0631
17206W        W34054   1.335  17.230   3.708 -0.1352 -0.1991 -0.1283
17207W        W34055  15.842   3.334  12.042  0.0656 -0.1245  0.3271
17208W        W34056  15.042  15.705   0.940 -0.0928  0.3245 -0.0338
17209W        W34057  14.983   5.526  14.709 -0.0119 -0.0328  0.2361
17210W        W34058   0.856   6.375  14.821  0.0712  0.1510 -0.0464
17211W        W34059  14.978  11.818  13.273 -0.0292  0.3618  0.0664
17212W        W34060   6.894  16.464   0.502  0.3087 -0.3103 -0.1540
17213W        W34061   1.812  16.522  15.174 -0.1119 -0.0206 -0.2278
17214W        W34062  10.443   7.550   2.841  0.2325 -0.0257 -0.0502
17215W        W34063  15.582  10.028   2.759 -0.1063  0.2429  0.2873
17216W        W34064   3.367   1.224  11.096  0.2084 -0.0579  0.3208
17217W        W34065   3.668   9.597  13.524 -0.3340 -0.2359  0.0347
17218W        W34066   5.218  14.439   4.436 -0.1426 -0.1545  0.0469
17219W        W34067   3.169  15.213  14.628  0.0865  0.0917  0.2875
17220W        W34068  11.128  11.673   1.552  0.0080 -0.2505  0.1045
17221W        W34069   8.239   0.282  13.259  0.0085 -0.0781 -0.1617
17222W        W34070   2.261   8.949  15.834 -0.0541  0.3007  0.1842
17223W        W34071  10.960   1.977   1.303  0.2290  0.2030  0.4714
17224W        W34072  17.589   9.749  12.491 -0.2905 -0.1262 -0.1993
17225W        W34073   6.095   2.416   3.867  0.1619 -0.0536 -0.3102
17226W        W34074  13.767   9.635  13.712  0.0910  0.2055  0.1067
17227W        W34075  14.389   9.795  11.713 -0.1566  0.0957 -0.2043
17228W        W34076   8.810   5.148   0.387  0.1910 -0.1631 -0.0961
17229W        W34077   2.268  11.332  14.157 -0.1437  0.0304  0.1001
17230W        W34078   7.842  13.032  15.896  0.1975 -0.0547  0.1307
17231W        W34079  10.737   9.909   2.337  0.3114 -0.0979 -0.1083
17232W        W34080  14.072   3.712  14.553  0.3292  0.0814 -0.0955
17233W        W34081  10.849   6.548   4.481 -0.2402  0.1840 -0.1747
17234W        W34082   2.803   8.970  15.683  0.0856  0.3259 -0.1298
17235W        W34083  14.237  12.404   2.670  0.0933 -0.0007 -0.0004
17236W        W34084   8.604  14.557  13.989  0.1331 -0.0057  0.0157
17237W        W34085  17.821   0.049  12.349 -0.4288  0.2900 -0.3724
17238W        W34086  17.009  14.776   4.792 -0.0165 -0.0709 -0.2803
17239W        W34087   8.274   7.523   1.481 -0.1019  0.2682 -0.0304
17240W        W34088  11.220  16.878   3.914  0.0765 -0.0762  0.0130
17241W        W34089  17.153  12.155   5.602 -0.0503 -0.0608  0.0158
17242W        W34090   6.379   2.210   5.284 -0.1636  0.0149  0.0839
17243W        W34091   3.869  12.910   1.806 -0.1724  0.1712 -0.4760
17244W        W34092   1.045  10.656  13.970  0.3175 -0.0789 -0.0798
17245W        W34093  16.470   4.465   4.981  0.1924 -0.0485  0.2020
17246W        W34094  14.314   3.097   3.896 -0.4221 -0.0570  0.3167
17247W        W34095  15.739   3.336  10.611 -0.0356  0.0163 -0.0036
17248W        W34096  12.403   1.700  15.865 -0.0873 -0.1551 -0.0464
17249W        W34097   6.001   3.324   2.227 -0.1203 -0.1293 -0.1112
17250W        W34098   7.978  12.698  14.739 -0.0628  0.2703  0.2094
17251W        W34099  11.016   2.183   1.895  0.0066 -0.0830 -0.1250
17252W        W34100  12.046  11.591   4.337  0.1273 -0.3813 -0.0930
17253W        W34101   1.786   5.148   4.041  0.1797 -0.1115 -0.0239
17254W        W34102   9.184   4.242  15.532 -0.0850 -0.3491 -0.0725
17255W        W34103   3.622  11.303  15.523 -0.1848  0.0011 -0.0140
17256W        W34104   2.630  11.650   4.116 -0.3066  0.0019 -0.3494
17257W        W34105  11.275   7.548   3.670  0.2619  0.0537 -0.1015
17258W        W34106  17.336   5.030   1.883 -0.1937  0.3589 -0.0224
17259W        W34107  14.814   5.862   4.403 -0.0756 -0.0905  0.0746
17260W        W34108  14.416   4.445  15.103  0.0993 -0.1725  0.2477
17261W        W34109   4.951   0.304  11.475 -0.0768  0.0261  0.4719
17262W        W34110   6.867  18.024  14.740  0.0875  0.3030  0.1671
17263W        W34111  10.864   5.815  13.067 -0.1401 -0.0161 -0.0759
17264W        W34112   7.897   5.042  14.220 -0.0216 -0.0301 -0.1500
17265W        W34113   3.289   5.729   1.186  0.1737  0.2789 -0.1075
17266W        W34114  16.023  11.762  13.990 -0.2160  0.2894  0.0211
17267W        W34115   9.591  16.803  15.180  0.2161  0.1199  0.0883
17268W        W34116   6.785   6.314  15.848  0.0651  0.0462  0.0913
17269W        W34117   3.474   7.672   1.478  0.1753 -0.0421 -0.1095
17270W        W34118   8.440   7.948  15.060  0.1879 -0.2107 -0.1419
17271W        W34119  17.821   6.000  15.449  0.1046  0.0083 -0.1012
17272W        W34120   0.937  13.220   3.222 -0.0569 -0.0920 -0.1682
17273W        W34121  17.274   6.759  14.426 -0.3483 -0.2953 -0.3153
17274W        W34122  13.010  14.400  12.614 -0.3405 -0.0022 -0.2711
17275W        W34123   4.346   5.015  15.402  0.1733 -0.3162  0.0741
17276W        W34124   7.699   2.754   3.770 -0.0922 -0.0633 -0.1219
17277W        W34125  15.698   3.830  13.524 -0.0982 -0.0068  0.2451
17278W        W34126   3.587  11.912   3.538 -0.0047  0.0872  0.1992
17279W        W34127   0.464  10.790   0.776 -0.1775  0.2083 -0.1482
17280W        W34128   9.755  11.908  14.185  0.2247  0.1785  0.3937
17281W        W34129  10.797   4.616   2.853  0.1697  0.4143 -0.0395
17282W        W34130  14.597   7.352  14.758  0.3112 -0.1065  0.0145
17283W        W34131  13.418  13.317   3.532 -0.1751 -0.1075  0.1762
17284W        W34132   1.149  17.069   2.874 -0.1661  0.0497  0.0744
17285W        W34133  11.840   5.012   0.123 -0.3075  0.0339  0.0937
17286W        W34134  16.891  10.231  12.975  0.0397 -0.0275  0.1787
17287W        W34135   2.614   3.861   3.651  0.1753 -0.1481 -0.1874
17288W        W34136   3.266   4.350   4.055  0.0553  0.1270 -0.3096
17289W        W34137  16.828  13.693   1.320 -0.1818 -0.1350  0.0566
17290W        W34138  11.498  14.865   4.682  0.1420  0.0794  0.0807
17291W        W34139  14.653   9.692  15.161 -0.1642  0.0600  0.0213
17292W        W34140   0.931   7.756  13.965 -0.1770  0.0493 -0.1700
17293W        W34141   0.828   5.771   4.618  0.0115 -0.0620  0.1313
17294W        W34142   8.333   2.923   0.639  0.1478 -0.0892 -0.4077
17295W        W34143   9.331  15.091   4.114 -0.1618  0.2421 -0.0063
17296W        W34144  11.756  15.801   1.593  0.2423  0.2435 -0.0959
17297W        W34145  10.060  18.005   4.751  0.3170 -0.0900 -0.0625
17298W        W34146  13.228   1.045   4.407  0.3017  0.0912 -0.2605
17299W        W34147  17.254   9.983   0.144  0.0063  0.0659  0.0916
17300W        W34148  17.682  11.685   1.053  0.1284 -0.0608 -0.1261
17301W        W34149   1.661   8.877  11.569 -0.0404 -0.2731  0.0876
17302W        W34150  12.973   2.774  15.111 -0.1586 -0.0798  0.1554
17303W        W34151  17.592   2.535  11.151  0.2973  0.0239  0.3026
17304W        W34152   8.913  12.643  14.202  0.0673 -0.2102  0.0715
17305W        W34153  15.889  14.298   1.205  0.0669 -0.1676  0.3503
17306W        W34154  10.521   6.744  10.928  0.3070 -0.0973  0.1206
17307W        W34155   8.659   5.595   0.244  0.2389  0.1907 -0.0733
17308W        W34156   8.371   4.360  11.982 -0.0107 -0.1036  0.0106
17309W        W34157  17.075   1.828  14.704  0.0065 -0.0581 -0.3263
17310W        W34158  17.851   5.441  15.778  0.2706 -0.0094 -0.0013
17311W        W34159   7.734   2.348  13.718 -0.1087 -0.3203 -0.3186
17312W        W34160   2.778   2.310   4.710  0.0109  0.1457  0.0677
17313W        W34161  11.572  10.770  15.103  0.0682 -0.0898  0.5679
17314W        W34162   4.699   9.143  13.740 -0.0114  0.2581  0.2259
17315W        W34163   2.167   2.085  15.271 -0.1710 -0.0077  0.1258
17316W        W34164   6.841  17.190  12.342  0.2525 -0.1155  0.1861
17317W        W34165   1.722  12.760  14.148 -0.0548  0.1180  0.0967
17318W        W34166   8.180   5.176   2.947  0.0280 -0.2930  0.1375
17319W        W34167  11.003   2.248  12.267 -0.0407  0.0439  0.3765
17320W        W34168  17.227   6.391  11.495 -0.3573  0.0168  0.0760
17321W        W34169   3.240   7.543   3.738 -0.0142 -0.2072 -0.1011
17322W        W34170  14.798  15.305   2.328 -0.0069  0.3097 -0.0222
17323W        W34171  15.646   8.051  12.506  0.3929 -0.0435 -0.4561
17324W        W34172   1.117   9.107   2.207  0.0440  0.2054  0.0976
17325W        W34173   4.097   6.291   0.303  0.0507 -0.2505 -0.0511
17326W        W34174   1.822   2.968   1.276  0.4075 -0.1553  0.1189
17327W        W34175   0.850   3.260  13.471 -0.3895 -0.0023  0.0006
17328W        W34176   5.966   4.512   1.837 -0.0508  0.1308 -0.3073
17329W        W34177  14.620  12.370  15.241  0.0291 -0.0467 -0.0993
17330W        W34178  12.533   1.245   3.960 -0.1820  0.2075 -0.3019
17331W        W34179  15.513   0.329   1.713 -0.1470 -0.1642 -0.1594
17332W        W34180   2.890   4.194  12.012  0.1799  0.1183  0.3369
17333W        W34181  13.343   0.583   1.845 -0.1514 -0.0040 -0.0791
17334W        W34182   1.338  11.307  13.137  0.1547  0.0749 -0.4045
17335W        W34183  14.669  17.206   2.373  0.5827 -0.1485 -0.0027
17336W        W34184   1.274  13.515  12.583 -0.1589 -0.0886 -0.1456
17337W        W34185  17.260   8.821   4.330 -0.2838  0.0499  0.1555
17338W        W34186   4.816   1.405  13.507 -0.1486  0.1284 -0.3530
17339W        W34187   1.286  11.766   1.629  0.3128  0.1123 -0.2723
17340W        W34188  17.879   2.799  14.929  0.0399  0.2647  0.0378
17341W        W34189  13.842   0.717   4.336 -0.1204 -0.2107  0.0206
17342W        W34190   7.666  14.547  14.779 -0.0156  0.3140  0.0986
17343W        W34191  15.536   0.235   2.401  0.0127 -0.4735 -0.0916
17344W        W34192  17.888  10.100  15.037 -0.1826  0.1392  0.1046
17345W        W34193   9.924   1.909   1.807 -0.0034 -0.2663  0.1735
17346W        W34194  15.123  10.818   0.572 -0.1156  0.1948 -0.1652
17347W        W34195  14.259   0.582   1.451 -0.0062 -0.2276 -0.4330
17348W        W34196   9.202  11.384   5.757  0.0638 -0.2912  0.0616
17349W        W34197   5.234   6.394   2.458  0.1274 -0.2495  0.0263
17350W        W34198   6.877   5.917  15.540  0.1481 -0.0530  0.1463
17351W        W34199   0.015   3.006   2.661 -0.0969  0.0295 -0.2374
17352W        W34200  17.667   7.159  13.729  0.0268 -0.1719 -0.2490
17353W        W34201  10.556  13.802   2.855 -0.0267 -0.0598  0.0419
17354W        W34202  11.501   6.915  13.030  0.3194  0.0789 -0.0348
17355W        W34203   8.705   5.820  14.247  0.0024 -0.2730  0.2166
17356W        W34204   3.443   8.604  14.156  0.2401  0.3146 -0.0924
17357W        W34205   0.498   4.844  11.668 -0.2091  0.1081  0.3162
17358W        W34206   4.041  11.726  16.188 -0.1185 -0.3545 -0.0181
17359W        W34207   6.399   7.154  15.207 -0.0551 -0.2169  0.3913
17360W        W34208   1.686  10.419  11.043  0.2261  0.1797 -0.0652
17361W        W34209  14.186  16.681   3.024  0.2316 -0.0811  0.2025
17362W        W34210   2.528  16.732   4.100 -0.0917  0.0775 -0.3811
17363W        W34211  10.014   8.422   0.417  0.2415  0.0566  0.0615
17364W        W34212  16.612   5.288   4.418  0.1279 -0.1756  0.2238
17365W        W34213   0.851   7.671  14.451 -0.0527 -0.2170 -0.3089
17366W        W34214  15.930   0.369  14.746  0.1627 -0.4087  0.4643
17367W        W34215  10.623  11.745   1.951  0.1065  0.0909  0.1115
17368W        W34216  17.710   7.307  15.653  0.0518 -0.0740  0.0673
17369W        W34217   9.521   1.578   6.208  0.2872  0.2914  0.3052
17370W        W34218  16.014   5.798  14.423  0.1069 -0.2208 -0.0694
17371W        W34219  16.669   9.800   3.627  0.1444  0.1572 -0.2423
17372W        W34220   8.915  13.422   0.911 -0.2736  0.1200  0.0989
17373W        W34221   5.193   3.049  16.113  0.4038  0.2473 -0.1137
17374W        W34222   1.028   9.951  11.732  0.1979  0.1212 -0.0329
17375W        W34223  10.056   7.383   1.901  0.0436 -0.0984 -0.1363
17376W        W34224   5.768   5.015   2.726 -0.0037  0.2164 -0.4482
17377W        W34225  15.965  13.840   1.081  0.3976 -0.1482 -0.0002
17378W        W34226   9.613   1.316   2.499 -0.1281  0.0301  0.1066
17379W        W34227  12.184   8.705   1.312 -0.0402  0.1798  0.2546
17380W        W34228   1.582   3.419  14.914  0.1701 -0.0644  0.3096
17381W        W34229   4.793  15.986   0.289 -0.0436 -0.3608  0.0158
17382W        W34230   1.866   0.851   1.232 -0.0946  0.1783  0.1863
17383W        W34231  12.264  14.544   4.737  0.2215 -0.1911  0.1425
17384W        W34232   4.497  14.349   2.123 -0.1810 -0.0469 -0.2472
17385W        W34233   9.847   3.389  13.044 -0.1699 -0.0298  0.3105
17386W        W34234  17.867   5.167  16.223  0.2467  0.0339 -0.0206
17387W        W34235   8.727   2.278  14.206 -0.0712 -0.2175  0.1579
17388W        W34236  14.598  11.625   4.156  0.1759  0.4093 -0.1194
17389W        W34237  13.816   4.764   0.121  0.1011  0.0204  0.0236
17390W        W34238   0.178   2.291   3.617  0.0252 -0.1528 -0.0904
17391W        W34239  11.592   6.869   4.750 -0.0572  0.3146 -0.1794
17392W        W34240   7.277   1.842  12.208 -0.0380 -0.0635 -0.0876
17393W        W34241  12.082   5.333   2.736  0.0243 -0.0363 -0.1742
17394W        W34242   9.812  12.032  13.671  0.0806  0.3132  0.1816
17395W        W34243  14.938   7.221   4.968 -0.1348 -0.2417  0.0916
17396W        W34244  14.538  12.787   2.705 -0.2245  0.0877  0.2392
17397W        W34245   3.790  15.821  14.273 -0.4084 -0.1186  0.3046
17398W        W34246   8.686   7.700   4.572 -0.1014  0.3079  0.1770
17399W        W34247   3.705   6.862   3.759 -0.0211 -0.0129  0.2088
17400W        W34248   5.214   5.011  13.439  0.1613 -0.4639 -0.0492
17401W        W34249   3.038   2.523   0.938 -0.0273 -0.2133 -0.1382
17402W        W34250   8.540  11.156  12.130  0.0556 -0.4456  0.0837
17403W        W34251  16.756  10.657   3.924 -0.3399  0.3100  0.0171
17404W        W34252   8.066  12.042  13.970 -0.0481 -0.0670 -0.3351
17405W        W34253   1.830  11.500   2.820  0.0250  0.3187  0.2632
17406W        W34254   6.274  12.101   0.961 -0.1190 -0.0146  0.0258
17407W        W34255   1.398   9.418  14.364  0.1550 -0.1379  0.2560
17408W        W34256   5.796   0.741  15.880 -0.0180  0.1085 -0.4094
17409W        W34257   9.745   0.974  16.272  0.0592  0.0386  0.1754
17410W        W34258  12.032  10.128   1.790  0.4702 -0.2909  0.1874
17411W        W34259  17.011  12.217  13.626  0.1570  0.0997 -0.0682
17412W        W34260  17.333   2.720   6.416 -0.2251  0.0994 -0.2761
17413W        W34261   3.148  15.593  11.844 -0.0335  0.2730 -0.1435
17414W        W34262   7.202   6.633   2.583 -0.1532  0.1551 -0.1802
17415W        W34263   4.989  14.539   5.929 -0.0492 -0.0056  0.0033
17416W        W34264   1.619   9.210   4.283  0.0391 -0.0681  0.0224
17417W        W34265   4.232   2.842  13.513 -0.1330 -0.3366  0.0056
17418W        W34266  11.013   7.039   5.264 -0.4103  0.1737 -0.0427
17419W        W34267   9.013  10.796   0.691  0.0042 -0.0573 -0.2049
17420W        W34268  15.424   3.707   4.423  0.1497  0.0735  0.1103
17421W        W34269  16.418  15.728  12.352 -0.2129 -0.3129  0.0691
17422W        W34270   8.753   3.289   1.254  0.1845 -0.3535 -0.2020
17423W        W34271  12.550  17.610   2.295  0.2837  0.2115 -0.0077
17424W        W34272  10.180  15.923  12.891 -0.2921  0.3395 -0.1271
17425W        W34273  16.100  14.677  14.437  0.1102 -0.1530 -0.0336
17426W        W34274  17.090   0.937  13.042 -0.0276  0.2658  0.2447
17427W        W34275   1.441   2.523   4.602 -0.0822  0.0840 -0.2145
17428W        W34276   2.118  13.010   1.433  0.1190  0.0691  0.1653
17429W        W34277   5.939   3.390  12.795  0.0218  0.3175  0.3397
17430W        W34278  13.038  13.322  10.993 -0.1414 -0.0160  0.0703
17431W        W34279  14.945  17.065  14.933  0.2026 -0.0509 -0.3984
17432W        W34280   4.134   9.904   2.330  0.0689 -0.3344  0.1132
17433W        W34281   0.675  14.789  11.262 -0.0125  0.0427  0.2016
17434W        W34282   5.095  15.480   0.649  0.0050 -0.2781  0.1915
17435W        W34283   7.426  12.477   2.823  0.0501  0.1766 -0.2135
17436W        W34284  12.936  15.532   5.982 -0.0659 -0.0968  0.1159
17437W        W34285   1.615   7.804   3.579 -0.1883  0.0228 -0.0185
17438W        W34286   5.249  11.566  16.052 -0.0836  0.1084 -0.0251
17439W        W34287   2.121  13.174  13.564 -0.2495  0.0196 -0.2971
17440W        W34288   0.689  13.958   3.655  0.1135 -0.2304 -0.1064
17441W        W34289   9.097   5.371   0.011  0.3821  0.1192 -0.1400
17442W        W34290  14.426   4.287  14.042 -0.4300 -0.0410 -0.0707
17443W        W34291  10.950   8.316   0.127  0.3415 -0.4094 -0.0330
17444W        W34292   7.059  13.575   3.726  0.0312 -0.2938 -0.3385
17445W        W34293   2.030  10.077   4.786  0.0113 -0.3020  0.0168
17446W        W34294   0.513   3.081   0.370  0.0019  0.0774  0.1314
17447W        W34295  12.585   6.269   2.720  0.0768  0.2038  0.1059
17448W        W34296   2.636   4.576  12.741  0.0456 -0.0713  0.2084
17449W        W34297  18.020  11.639  10.593 -0.1105 -0.0334 -0.3220
17450W        W34298   1.642  14.075   5.443  0.0378 -0.2809  0.2631
17451W        W34299  15.495  12.132  11.285 -0.1943 -0.1167 -0.2071
17452W        W34300   0.126  11.826  15.138 -0.0007 -0.1342  0.2561
17453W        W34301   9.874  13.137   2.565 -0.0152 -0.5275 -0.0964
17454W        W34302  12.356   1.636  15.102  0.1186  0.1416  0.1043
17455W        W34303   7.042   5.549  13.268 -0.0870  0.0061  0.2254
17456W        W34304   1.532   5.228  15.315  0.1681 -0.0083 -0.0100
17457W        W34305  14.649  10.741   0.741 -0.3374 -0.2541 -0.0187
17458W        W34306   6.807  15.249   5.351 -0.3192 -0.1002 -0.0679
17459W        W34307  13.759   5.953   2.040 -0.1874  0.2355 -0.2562
17460W        W34308   7.997   8.930   1.734  0.2454  0.1241 -0.1949
17461W        W34309  17.341  17.381  14.874 -0.0967 -0.2228  0.0368
17462W        W34310   8.550   7.470  13.044 -0.2923 -0.1911  0.0442
17463W        W34311   5.378   3.393   1.050  0.0338 -0.2805  0.2443
17464W        W34312  14.231  11.584   1.809 -0.2018 -0.3761 -0.2023
17465W        W34313   9.291   7.153   0.644  0.0919  0.4339 -0.0216
17466W        W34314  12.242  14.438  13.350  0.2657  0.0486  0.1344
17467W        W34315  10.208   5.569   4.762  0.1316 -0.2286  0.1690
17468W        W34316   6.016  10.100  13.841 -0.0395 -0.2525  0.0567
17469W        W34317  16.212  10.256  11.300  0.1032  0.0064  0.1226
17470W        W34318  15.235  10.507   4.577  0.3649  0.0535  0.3102
17471W        W34319  15.677   7.809  11.018 -0.0953  0.1865 -0.1437
17472W        W34320   6.495   2.593  13.032  0.2225 -0.0263 -0.0126
17473W        W34321   6.004   3.267  13.317  0.1473  0.0922 -0.0300
17474W        W34322   7.224  13.252   5.348  0.1763  0.1537  0.0750
17475W        W34323  10.073   2.760   5.924  0.0851  0.1383  0.0589
17476W        W34324  13.400  11.234  14.321  0.0079  0.2042 -0.1055
17477W        W34325   9.039   4.098   1.994 -0.0644  0.1584  0.0574
17478W        W34326  17.313  17.189   4.289 -0.0781  0.1358  0.1811
17479W        W34327  14.948   9.774   1.114  0.2315 -0.1757  0.0225
17480W        W34328  15.227  16.051  15.958  0.0210 -0.1227  0.0521
17481W        W34329   4.779   2.661   6.054  0.1582  0.0202  0.2575
17482W        W34330  17.057   8.457  11.404 -0.1280 -0.0896  0.0389
17483W        W34331   5.848   9.790   4.376 -0.2733 -0.0784  0.1001
17484W        W34332  16.782  13.335  12.093  0.1495 -0.0591  0.1820
17485W        W34333   7.797   0.398  15.178 -0.2808 -0.1910  0.4131
17486W        W34334   4.986   3.217   4.454 -0.1477 -0.2025  0.0012
17487W        W34335  10.519  13.366  13.459  0.1169 -0.0021 -0.1091
17488W        W34336  15.250   6.775   4.068 -0.0221  0.1814 -0.2482
17489W        W34337   2.576  13.830   1.443  0.0904  0.1172  0.1156
17490W        W34338  17.441   1.522  14.833  0.2254  0.0323 -0.0192
17491W        W34339  13.864   6.533  11.245  0.0963 -0.3271 -0.4368
17492W        W34340   0.873   9.979   5.105 -0.2772 -0.0916 -0.0640
17493W        W34341  16.189  17.261  10.271 -0.2567  0.1684  0.3069
17494W        W34342  10.066  12.450  14.819 -0.2329  0.0777 -0.0746
17495W        W34343   3.521   0.878   5.158 -0.0891 -0.0121 -0.0302
17496W        W34344  17.644   1.740   0.277  0.0432 -0.2137 -0.0885
17497W        W34345   6.871  15.755  13.719  0.1833 -0.5054  0.1748
17498W        W34346   8.785   5.486  15.183 -0.2811  0.1047  0.0302
17499W        W34347   2.147  14.240  12.427 -0.4340 -0.0040 -0.1048
17500W        W34348   9.169   9.412   0.039  0.1130 -0.0003  0.1573
17501W        W34349   9.279   0.898  16.001 -0.1864  0.1143  0.0849
17502W        W34350   5.980  14.867   4.260 -0.0888 -0.2384 -0.1650
17503W        W34351  16.426   5.162   2.782 -0.2048 -0.0054  0.2530
17504W        W34352   5.437  11.603  12.129  0.0582  0.1551  0.0384
17505W        W34353  15.584   6.542   1.584  0.3499  0.2459  0.0211
17506W        W34354   5.064   5.087   3.961 -0.3538  0.1771  0.1627
17507W        W34355  16.151   0.045   0.314 -0.3965 -0.2487  0.1632
17508W        W34356   9.084  14.649  12.895 -0.2019 -0.0218  0.2442
17509W        W34357  15.711  17.694   4.136 -0.0043  0.1391 -0.0389
17510W        W34358   3.775  10.422   1.708  0.1972  0.0685 -0.2562
17511W        W34359   7.416  15.083  13.354  0.0561  0.0369  0.0321
17512W        W34360   6.435   4.426   5.906 -0.2039 -0.4084 -0.2497
17513W        W34361   6.632   4.815  13.558  0.1536  0.1998 -0.0065
17514W        W34362   1.556   0.488   2.114  0.1016  0.0075 -0.1140
17515W        W34363  12.890   8.536  14.195 -0.0877 -0.1092 -0.1056
17516W        W34364   0.323  15.517   0.177  0.3353 -0.3774  0.0951
17517W        W34365  13.978  14.575   0.792 -0.1052 -0.0106 -0.1467
17518W        W34366   1.190   7.008   4.106 -0.0298 -0.2848 -0.1922
17519W        W34367  15.986  17.185   1.933  0.0356 -0.1137 -0.3145
17520W        W34368  11.742   9.897  12.704  0.0281  0.0463 -0.1805
17521W        W34369   5.417  14.784   2.853 -0.1035  0.0294 -0.3610
17522W        W34370   5.698  12.989   5.036 -0.3821 -0.0672 -0.2944
17523W        W34371  17.153   4.337  14.863  0.3162 -0.3328 -0.2193
17524W        W34372   0.727  16.691  13.550 -0.1397 -0.3256  0.3473
17525W        W34373  15.347   0.166  11.918  0.0078  0.0916 -0.0635
17526W        W34374  14.807  10.367  10.366  0.2213  0.1182  0.0465
17527W        W34375   0.145   7.393   1.701 -0.2470  0.1935 -0.1448
17528W        W34376  10.532  16.776  16.252 -0.1862  0.1583 -0.0575
17529W        W34377  16.127   8.267  13.800 -0.0559 -0.4101  0.2119
17530W        W34378   6.766  12.202   1.507  0.2025 -0.1412  0.4584
17531W        W34379   9.584  12.752   4.942  0.2333  0.2386  0.2742
17532W        W34380   0.947  11.757   0.817 -0.3760  0.2242 -0.0717
17533W        W34381   3.925  16.721  12.117  0.3128 -0.4009 -0.1591
17534W        W34382  16.580  13.709  13.372 -0.2135 -0.0272  0.1179
17535W        W34383  10.727   0.949   1.380 -0.0833  0.1285  0.3561
17536W        W34384   2.655  13.682   4.202  0.2229 -0.1380  0.1298
17537W        W34385   5.007   3.522  12.070 -0.1533  0.0847 -0.0378
17538W        W34386   6.128  16.079  15.407 -0.1702  0.1694  0.0640
17539W        W34387   0.668  13.847  10.133  0.1118 -0.2665 -0.1618
17540W        W34388   4.935   5.527   2.899  0.2799 -0.1488  0.0586
17541W        W34389   1.268   0.025   0.730  0.1506  0.1223  0.1544
17542W        W34390  13.782   0.250   2.283 -0.0518  0.1324  0.0845
17543W        W34391   7.700   2.087  12.130  0.2121  0.0178 -0.0518
17544W        W34392   2.025  12.525   2.084 -0.0511 -0.2047 -0.0911
17545W        W34393  17.411   1.742  14.296  0.3579  0.0799 -0.0662
17546W        W34394  17.385   7.612  13.884 -0.0164  0.0038 -0.0412
17547W        W34395   4.864  17.132   4.413 -0.0032 -0.2067 -0.1043
17548W        W34396  15.234  16.507  13.586 -0.0411 -0.0167  0.1171
17549W        W34397  12.045  17.951   3.543 -0.2078  0.0310 -0.0779
17550W        W34398   0.542   0.664  14.852 -0.3094  0.1736  0.1957
17551W        W34399   3.562   9.205   0.786  0.1659  0.2045 -0.0257
17552W        W34400   3.463  17.875  15.258  0.0674 -0.3536 -0.1375
17553W        W34401   6.751   2.058   1.358  0.3573  0.4418  0.0559
17554W        W34402   7.845  17.355   3.377  0.0209  0.0864 -0.3557
17555W        W34403  11.452   9.337   4.077  0.4207  0.3315  0.0527
17556W        W34404   1.788   8.003   2.009  0.2843 -0.2447 -0.3090
17557W        W34405  11.020  13.073   5.667 -0.3781 -0.2668  0.2253
17558W        W34406   6.061  11.851  11.596  0.3416  0.3267  0.2708
17559W        W34407   5.553  15.153   1.157 -0.2262 -0.0630  0.1661
17560W        W34408   5.673  10.756   1.967  0.3791  0.5336  0.1848
17561W        W34409   5.240  14.012   1.882  0.0981  0.2329 -0.2247
17562W        W34410   9.708  11.080  13.472 -0.3360  0.1945 -0.0539
17563W        W34411  11.759  13.503   0.015  0.1055 -0.1920 -0.1687
17564W        W34412   1.810   9.702  14.258  0.0426  0.0799 -0.3089
17565W        W34413   3.145  14.649  11.750  0.0143  0.3011 -0.3023
17566W        W34414   0.504  13.493  11.727 -0.1729 -0.1622  0.2436
17567W        W34415   6.098   9.541   2.648 -0.4028 -0.0453 -0.1461
17568W        W34416   0.147   2.121   2.652 -0.2062  0.2715 -0.3260
17569W        W34417  17.337   2.754  10.751  0.0596  0.2425  0.0867
17570W        W34418   2.928   1.118  10.747 -0.2527  0.2341 -0.0712
17571W        W34419   5.036   5.988  14.519 -0.1938  0.1787 -0.0444
17572W        W34420  15.689  10.628  13.061 -0.2332 -0.0647 -0.0025
17573W        W34421   6.076  13.558   1.723  0.1090 -0.1279  0.2438
17574W        W34422   9.836  10.307  12.607 -0.0073 -0.2402  0.3093
17575W        W34423   7.062   1.746   3.038  0.0352 -0.2661  0.5137
17576W        W34424   1.284   1.268  11.997 -0.1770 -0.1906  0.0224
17577W        W34425   7.701  16.546   2.119 -0.3727 -0.1829 -0.1050
17578W        W34426   0.316   6.724   4.214 -0.1543  0.2484 -0.2003
17579W        W34427  11.861  11.834   3.593 -0.1294  0.3375  0.3531
17580W        W34428  11.531   3.798  11.708 -0.0184  0.2678  0.2472
17581W        W34429  13.356   9.187   1.895 -0.1209  0.1906 -0.1622
17582W        W34430   9.701   4.651   4.527 -0.1819 -0.0061  0.0807
17583W        W34431  15.411  12.633  13.165 -0.0833  0.1079 -0.0527
17584W        W34432  13.727  14.347  13.131  0.0015 -0.1650  0.2092
17585W        W34433   1.947   1.962   3.622  0.0272 -0.0049 -0.0238
17586W        W34434  11.948   0.961   4.601  0.0235 -0.1216  0.1477
17587W        W34435   2.221  13.725   0.413  0.1376  0.0418 -0.0235
17588W        W34436   0.972  14.184   5.185  0.0451 -0.0806  0.0053
17589W        W34437  17.963   2.232   4.732 -0.2645  0.0576  0.0120
17590W        W34438  17.804  10.830  11.306 -0.1319  0.0294  0.0437
17591W        W34439   9.025   9.906   2.085  0.0494 -0.0624  0.3535
17592W        W34440  14.963   5.657  16.231  0.0557  0.0010 -0.0823
17593W        W34441  14.124  10.679  12.206  0.1548  0.1851 -0.1501
17594W        W34442  17.494   8.636  13.948 -0.1077  0.1061  0.0660
17595W        W34443   0.740   4.499  12.321  0.0485  0.0570 -0.1248
17596W        W34444  14.880  12.245   4.210  0.0660  0.0640  0.0343
17597W        W34445   0.207  17.570  15.038 -0.0631  0.0991 -0.1422
17598W        W34446  16.824  17.584   5.216  0.0209 -0.4127  0.2323
17599W        W34447   1.647  15.893  10.815  0.0204 -0.0072  0.1740
17600W        W34448   3.724  10.046   2.657  0.3967  0.0924 -0.5447
17601W        W34449  13.653   1.583   3.843 -0.2222  0.1133 -0.1527
17602W        W34450  16.834   3.962  15.979 -0.3112  0.3616 -0.1378
17603W        W34451  12.418  17.182   1.330 -0.1026 -0.0306  0.0040
17604W        W34452   8.338   9.279   0.008 -0.1870 -0.0729  0.0478
17605W        W34453   3.431   6.228  11.425 -0.2711  0.0036  0.0254
17606W        W34454   4.518   7.524  11.787  0.0596 -0.1151  0.0210
17607W        W34455  15.618   2.854  12.842  0.0624 -0.1749  0.0575
17608W        W34456   0.358   3.736   1.932  0.0269  0.1736  0.0255
17609W        W34457  10.978   7.629   2.148  0.0646  0.0442 -0.1088
17610W        W34458   5.950  13.741  11.282 -0.1346 -0.1799 -0.2034
17611W        W34459   1.688   3.570   2.178 -0.1315 -0.1729 -0.1843
17612W        W34460  14.761   4.364   2.694  0.0156 -0.0471  0.1553
17613W        W34461  13.456  11.958  15.427  0.0231 -0.4268  0.1489
17614W        W34462  10.834   0.425   4.532  0.1033 -0.0229 -0.0692
17615W        W34463  15.077  14.367  10.159  0.0384 -0.0673  0.0001
17616W        W34464   1.665  14.937  12.064  0.1377 -0.0643  0.0715
17617W        W34465  10.059   7.943   1.033  0.0165  0.2194  0.3725
17618W        W34466  13.109   7.493  15.849 -0.0658  0.2077  0.0497
17619W        W34467  17.985  15.918   2.627  0.1962  0.1245  0.0603
17620W        W34468  17.536  13.825  14.992  0.3700  0.2636  0.0114
17621W        W34469  12.026  14.363  12.446  0.0926  0.0960 -0.1778
17622W        W34470   2.363   6.339  12.950 -0.0535 -0.1708 -0.0428
17623W        W34471  16.610  12.937  14.270  0.0047  0.2321  0.1741
17624W        W34472  13.964   7.167  11.006 -0.2292  0.4173  0.2290
17625W        W34473   7.366   5.890  11.617  0.0228 -0.0882 -0.2541
17626W        W34474   6.264  11.003   2.799 -0.1514  0.3469  0.1458
17627W        W34475   7.369   5.275  11.704  0.4920  0.1327  0.2489
17628W        W34476   3.322  14.047   2.217 -0.0150 -0.0347  0.1932
17629W        W34477  13.488  15.343  12.461 -0.0039 -0.2305  0.0289
17630W        W34478  16.926  10.850  12.934 -0.1244 -0.0449 -0.4005
17631W        W34479   7.297  17.504   1.209 -0.1526  0.0297  0.0250
17632W        W34480  16.986   3.096  13.749  0.2830 -0.0155 -0.0007
17633W        W34481   3.912   5.190   2.215 -0.1787 -0.1235  0.0297
17634W        W34482  15.144   0.314   0.084 -0.0437 -0.0579 -0.0719
17635W        W34483  10.387  17.799  13.380 -0.1295  0.2028  0.0452
17636W        W34484  11.932  15.825  12.777  0.0825 -0.1735 -0.0382
17637W        W34485   2.132  16.276   1.587  0.0548 -0.0653  0.0207
17638W        W34486  17.083   2.055   1.651  0.2084 -0.4782 -0.1993
17639W        W34487   4.502   3.404  15.480 -0.3772 -0.0819 -0.1845
17640W        W34488   8.071   0.432  13.821 -0.0901 -0.0598  0.0285
17641W        W34489  17.844   1.231  14.996  0.0188  0.0147 -0.1751
17642W        W34490  10.047   4.558  15.207 -0.0372  0.2403  0.1493
17643W        W34491   3.611  14.093   1.594  0.4529 -0.0903  0.0259
17644W        W34492  10.137  13.322  13.156  0.3277  0.0452  0.2146
17645W        W34493  14.520  15.423  16.277  0.0231  0.1422 -0.1866
17646W        W34494   4.389   5.712  14.096  0.1561  0.0477 -0.0396
17647W        W34495  13.061  11.320  10.211  0.1689 -0.0781  0.0466
17648W        W34496   0.537   6.855  14.303 -0.3297 -0.0824 -0.0467
17649W        W34497   3.176  10.447  13.218  0.0116 -0.0323 -0.0933
17650W        W34498  11.184   3.361  13.596  0.0500 -0.0883  0.1155
17651W        W34499   9.133  10.407   0.389 -0.0665 -0.0374  0.6079
17652W        W34500  10.409  14.125  13.714 -0.0915  0.3065 -0.0753
17653W        W34501  12.040  10.048  15.722 -0.4038 -0.1857 -0.3663
17654W        W34502   4.520   3.756  11.559 -0.0629 -0.4852  0.0001
17655W        W34503  13.984   0.654  14.399  0.1058  0.2199 -0.0449
17656W        W34504   0.665   5.803  12.209  0.1497  0.3644 -0.0011
17657W        W34505  14.120   1.720   1.006 -0.0883  0.0507 -0.1596
17658W        W34506  16.682  11.471  15.586  0.1820  0.0940 -0.3922
17659W        W34507  10.385  16.206   1.217 -0.0445 -0.0309  0.1718
17660W        W34508  15.521   9.146   4.981  0.0371 -0.0132  0.1746
17661W        W34509   4.550   3.790   3.319 -0.0772 -0.0508 -0.0828
17662W        W34510  16.604   3.129   2.354  0.0429 -0.3106  0.0148
17663W        W34511   5.528   9.387  12.573 -0.1834  0.0438  0.1697
17664W        W34512  11.191  14.976   3.111  0.0213 -0.1202  0.2308
17665W        W34513  17.780   2.164   4.127 -0.0377 -0.0245 -0.0583
17666W        W34514   3.248   4.820  11.270  0.1649 -0.0699  0.0570
17667W        W34515  17.510   9.752  15.364  0.0874  0.1672 -0.0645
17668W        W34516   4.541  11.913  11.921 -0.2263 -0.1964 -0.1588
17669W        W34517   6.175   8.212   1.187  0.1864  0.1750 -0.0018
17670W        W34518  12.960  10.200  10.757  0.0858 -0.1417  0.2793
17671W        W34519  12.618   4.649   5.016  0.1541  0.0129 -0.2750
17672W        W34520   6.244  16.286   1.553 -0.0356  0.0736  0.2139
17673W        W34521   8.899   2.515  13.241  0.1019 -0.0000  0.2926
17674W        W34522   9.195  15.173  12.459  0.1827 -0.0841 -0.0273
17675W        W34523   9.982  15.800  14.768 -0.0271  0.0204  0.0548
17676W        W34524  17.184   3.948   4.477  0.0716  0.2337  0.0943
17677W        W34525   0.782   6.099   0.037 -0.1093 -0.0160  0.0962
17678W        W34526   9.528  12.140   0.324  0.1244 -0.0330 -0.0416
17679W        W34527  10.088   9.509   3.994  0.2103 -0.1157 -0.0533
17680W        W34528  17.884  10.650   3.935  0.0069 -0.0459  0.1383
17681W        W34529  10.814   7.256   0.576  0.2316 -0.1722 -0.0690
17682W        W34530   3.079   2.262   5.157  0.2207 -0.2398 -0.1649
17683W        W34531  14.760   2.448   3.274 -0.0347 -0.0479  0.2263
17684W        W34532  16.626  12.060  12.767 -0.3585 -0.0421  0.1957
17685W        W34533   7.170   6.682  11.935 -0.0574  0.0602 -0.0574
17686W        W34534   9.404   9.386   5.680  0.0462  0.2684 -0.3287
17687W        W34535  12.826   5.868   5.181 -0.2692  0.1318  0.1667
17688W        W34536  11.424  12.864   4.600 -0.0324 -0.1229  0.1323
17689W        W34537  17.010   4.647  15.232  0.0886 -0.1021  0.0087
17690W        W34538   9.567   6.133  11.409  0.0277  0.3932  0.0066
17691W        W34539   5.663  15.797   2.783  0.1394  0.1044 -0.0508
17692W        W34540   3.307  10.423  15.654 -0.0599 -0.0567  0.0301
17693W        W34541  11.739  17.084   3.472 -0.2614  0.0252 -0.0096
17694W        W34542  15.237  12.555   0.557 -0.3988 -0.3596 -0.1267
17695W        W34543   1.043   6.658   3.522 -0.2484 -0.1380 -0.1407
17696W        W34544   3.242   4.488  15.892  0.0576  0.0594 -0.1869
17697W        W34545  10.771   5.671  14.703 -0.1193  0.2786  0.2427
17698W        W34546   3.151  13.051   2.442 -0.4101 -0.0067 -0.0299
17699W        W34547  11.560  15.287   1.760  0.2237 -0.3262 -0.1674
17700W        W34548   6.145  16.382  14.187  0.1054 -0.0897 -0.1207
17701W        W34549  10.378  16.061  11.311 -0.0747 -0.1257 -0.2298
17702W        W34550   0.145  16.875  14.403 -0.1461  0.0376 -0.2920
17703W        W34551  10.956   4.349  13.415  0.1080 -0.2663 -0.1976
17704W        W34552  11.150  11.525   2.115  0.3052 -0.2523 -0.0549
17705W        W34553  10.212  11.563  15.671  0.1321  0.5136 -0.2259
17706W        W34554   6.609  11.400   0.487 -0.1332  0.0119 -0.1546
17707W        W34555  11.808   9.551  13.093  0.1382  0.2760 -0.3883
17708W        W34556  11.031  10.714  13.100  0.0235  0.0113 -0.1092
17709W        W34557   5.978  16.151  11.967 -0.0870 -0.0869 -0.0229
17710W        W34558   6.585  15.718   2.702  0.0707 -0.4042  0.1060
17711W        W34559  12.290  15.243   5.214  0.1435  0.4421  0.1859
17712W        W34560   4.452   8.133   0.604  0.0210 -0.2044  0.0387
17713W        W34561   7.327  13.528  13.207 -0.1080 -0.2489  0.2320
17714W        W34562   4.596   5.654  15.491  0.0379  0.3124  0.1639
17715W        W34563  15.162   2.314   1.363  0.0211  0.2321  0.0487
17716W        W34564   4.538  17.167   0.203 -0.2006 -0.1191  0.0627
17717W        W34565  11.444   4.626  13.402 -0.1978  0.2477  0.0049
17718W        W34566   0.851   7.114  15.652  0.1825  0.0639  0.1601
17719W        W34567   0.680   9.434   0.860  0.1003  0.0342 -0.6111
17720W        W34568   3.352   3.366   5.019  0.4495 -0.0502 -0.2446
17721W        W34569  15.985  15.150   2.818 -0.1441  0.2203 -0.5319
17722W        W34570   3.145  14.573   2.583 -0.2085  0.0692  0.0228
17723W        W34571   1.007   6.051  11.551 -0.1823  0.1718  0.0393
17724W        W34572   9.456   1.115   3.574  0.2543 -0.2345 -0.0788
17725W        W34573  13.611   7.184   4.987 -0.1215  0.1750 -0.0362
17726W        W34574  17.465  10.377   3.323  0.0590 -0.1379  0.0683
17727W        W34575  14.197  12.570  15.883 -0.2474  0.2580 -0.2155
17728W        W34576  17.948   9.019   4.973 -0.0983 -0.0262  0.0663
17729W        W34577   6.554  10.854   1.630  0.2627 -0.1455 -0.1034
17730W        W34578   6.329   8.303  11.369 -0.1721 -0.2762 -0.2058
17731W        W34579   6.200   6.709   4.325  0.1139 -0.0001 -0.1416
17732W        W34580   5.326   5.438  11.998  0.1800  0.3324  0.0431
17733W        W34581   8.594   9.779  15.482  0.1460 -0.0028  0.0816
17734W        W34582   5.511  10.409   3.954  0.2402 -0.0248  0.0747
17735W        W34583   4.858   3.264  15.069 -0.2054  0.1059 -0.1520
17736W        W34584  14.876  16.800  13.673  0.1432  0.1680 -0.0185
17737W        W34585   5.145  13.296   0.627  0.0758 -0.3730 -0.0321
17738W        W34586   5.325  13.880  14.233 -0.0468  0.1263 -0.1397
17739W        W34587  10.339   1.737  14.670  0.0928  0.2077  0.0500
17740W        W34588  12.922  10.098  11.806 -0.0557  0.1125 -0.0321
17741W        W34589  16.982  13.934   0.199 -0.2995 -0.0204  0.1632
17742W        W34590  12.627   7.962   3.491  0.1187  0.0249 -0.1135
17743W        W34591   7.850   1.443   1.965  0.2158 -0.2869  0.2287
17744W        W34592  16.619  17.490  10.502  0.0886  0.0434  0.1632
17745W        W34593   0.738   2.101  12.720  0.0700 -0.0899  0.1094
17746W        W34594   0.283   3.763  16.119 -0.0381  0.1416  0.2371
17747W        W34595  11.432  14.170   1.033 -0.0026  0.2234  0.0006
17748W        W34596  16.817  16.212  14.523  0.0269  0.2514  0.1440
17749W        W34597   2.204   9.990  14.098 -0.1052 -0.3909  0.3515
17750W        W34598  15.205  10.901  12.955 -0.4522 -0.2869  0.0696
17751W        W34599   8.299   8.183  13.096  0.1561  0.0390 -0.1094
17752W        W34600   1.699   0.219   4.439  0.2619 -0.1023 -0.1851
17753W        W34601  11.593  13.519  11.396  0.0446 -0.0468  0.1073
17754W        W34602  17.926  15.722   0.302 -0.0305 -0.2628  0.2791
17755W        W34603   0.524   8.030  14.277 -0.2202 -0.2855 -0.1960
17756W        W34604   7.200  16.731  12.332 -0.0831  0.2599 -0.0863
17757W        W34605  10.763   3.359   1.865 -0.1369 -0.0203 -0.5367
17758W        W34606   8.861   1.342  14.384  0.0273  0.0135 -0.1304
17759W        W34607  17.324   7.477  15.341  0.1677 -0.0714 -0.0136
17760W        W34608   8.982   9.074   1.135  0.3918  0.4828 -0.0322
17761W        W34609  16.996  11.508   2.787 -0.0801  0.1389 -0.1289
17762W        W34610   7.073  17.708   2.522  0.1602  0.3246  0.2077
17763W        W34611  13.521   6.885  16.229  0.0558 -0.0021  0.1066
17764W        W34612   2.523   3.118   3.078 -0.1421 -0.2028  0.1485
17765W        W34613  16.449   1.840  13.274 -0.1662 -0.2034  0.0469
17766W        W34614  16.577  14.521   2.453  0.0908 -0.0086  0.1119
17767W        W34615  13.475   4.348  12.366 -0.2622  0.2064 -0.2363
17768W        W34616  15.916   1.206   3.197 -0.4127  0.3080 -0.1687
17769W        W34617   9.151   2.940  11.028  0.3207  0.1005 -0.1334
17770W        W34618  13.491  14.542   3.775  0.2491 -0.0760  0.0851
17771W        W34619   1.729   6.477  15.966 -0.0268 -0.0331 -0.0655
17772W        W34620  10.321  11.307  11.230 -0.0348  0.0836 -0.1185
17773W        W34621   8.205   7.557  15.234  0.0473 -0.0203 -0.2214
17774W        W34622   3.225  12.194  15.294  0.0530  0.2857  0.1716
17775W        W34623   8.742   1.801  10.555  0.2232  0.0968 -0.1395
17776W        W34624   6.565  12.943   0.909 -0.0246  0.1518 -0.4067
17777W        W34625  10.094   2.739   3.274 -0.0119  0.2457  0.0229
17778W        W34626   1.079  11.926   3.491  0.1469  0.0011 -0.0128
17779W        W34627  16.770   5.865  10.352  0.0716  0.1682  0.0030
17780W        W34628  10.386   9.867  14.373 -0.0001 -0.0780 -0.0563
17781W        W34629  14.737   3.740   2.500  0.1272  0.2798  0.1016
17782W        W34630  12.052   6.611  15.562 -0.0620 -0.2248  0.1730
17783W        W34631   5.716  11.357   1.529 -0.0171  0.1779 -0.1300
17784W        W34632  12.230  13.393  13.589 -0.0275 -0.3304 -0.1899
17785W        W34633   1.051  11.519   4.806  0.1947 -0.1145  0.0476
17786W        W34634   3.214   6.861  13.055  0.2207  0.1041  0.0377
17787W        W34635  15.801   3.285   4.374 -0.0367 -0.1630 -0.0865
17788W        W34636  16.163   9.755  11.187 -0.2838  0.0716  0.1274
17789W        W34637   3.835   3.274  15.989 -0.1695  0.0532 -0.1707
17790W        W34638  16.614  17.956  14.213 -0.0784  0.3475 -0.1144
17791W        W34639  15.309   6.122   3.214 -0.1509 -0.0657  0.1398
17792W        W34640   3.598  10.336  14.702  0.0507  0.4477 -0.1465
17793W        W34641  14.717   9.264   2.535 -0.1364  0.2249  0.1198
17794W        W34642   9.253   9.326   2.019  0.0760 -0.2299 -0.2142
17795W        W34643  12.923   4.349  13.732  0.2126  0.0470 -0.1813
17796W        W34644   4.712   9.908  14.210 -0.1570  0.1284 -0.1110
17797W        W34645   6.688   1.654  15.808  0.2505  0.2367 -0.1241
17798W        W34646  17.794  11.614   4.103 -0.3975  0.0983  0.0801
17799W        W34647   8.791  10.688   0.154 -0.1627 -0.3480 -0.0384
17800W        W34648   2.311  18.045   4.808  0.3563 -0.1093 -0.2852
17801W        W34649  14.050   9.823  10.758  0.1973  0.1602  0.0128
17802W        W34650   6.050  13.354   2.588 -0.1604  0.0766 -0.0443
17803W        W34651  17.970   6.792  11.847 -0.0161  0.0784  0.1000
17804W        W34652   3.343  17.252  13.521  0.2900  0.2715 -0.2713
17805W        W34653   7.526   3.584   5.002 -0.3142 -0.1544  0.1367
17806W        W34654  17.427   7.411   5.002  0.2371 -0.2420  0.1270
17807W        W34655  14.463   1.555   1.486  0.2376 -0.2346  0.0451
17808W        W34656  15.059   2.425  14.388 -0.1066  0.0544  0.0499
17809W        W34657   4.717  10.187   0.236  0.0207 -0.2099 -0.0771
17810W        W34658   1.862  11.298   1.766 -0.1187  0.0837 -0.1807
17811W        W34659   3.896   3.957  13.718 -0.1904  0.0422  0.0109
17812W        W34660   0.084  13.324   2.182 -0.0582  0.1822 -0.0990
17813W        W34661   9.128  11.471  14.932  0.1135  0.3515 -0.1329
17814W        W34662  11.241  14.447   4.854 -0.0063  0.5343  0.0131
17815W        W34663  13.889   7.362   2.053  0.2341  0.0005 -0.3321
17816W        W34664   0.316  10.811   3.327 -0.1446  0.0563  0.0583
17817W        W34665   1.062  11.130   2.398 -0.0083 -0.0272 -0.1061
17818W        W34666  10.602  17.596  15.199 -0.1047 -0.1178  0.2221
17819W        W34667  11.387   3.595   4.423  0.2609  0.0873 -0.0231
17820W        W34668   6.055  12.488  10.684  0.0555 -0.3246  0.0050
17821W        W34669   4.701   7.384   1.026  0.1583 -0.3044  0.3317
17822W        W34670   2.422  10.940   3.203  0.0050 -0.0284 -0.1354
17823W        W34671   5.003  11.537  13.684 -0.1197 -0.3644 -0.0718
17824W        W34672  10.192   4.582   4.379  0.0173 -0.1782  0.1912
17825W        W34673  14.333   9.066  13.086  0.0209 -0.1773  0.0879
17826W        W34674   2.972  15.329   5.578  0.0171 -0.1308 -0.1990
17827W        W34675   3.767  17.444  14.299  0.1337  0.2101  0.3270
17828W        W34676   2.979  14.300  16.243  0.2484  0.0288 -0.2767
17829W        W34677   7.109   1.088  14.823  0.1274 -0.0612  0.3161
17830W        W34678   2.370  13.022  13.091 -0.2094  0.1438  0.2321
17831W        W34679   1.431  11.768   3.185  0.0459 -0.1726 -0.1673
17832W        W34680  15.929   6.510  12.923  0.2101  0.1620  0.0144
17833W        W34681  14.068  12.775  13.973 -0.1556  0.2655  0.1412
17834W        W34682  16.222  14.399  13.404  0.0523 -0.2412  0.1427
17835W        W34683   7.123  10.712  12.753  0.0762 -0.0137 -0.2422
17836W        W34684   9.824   4.749   3.630 -0.0730  0.2495  0.1505
17837W        W34685   3.461   7.452   3.297 -0.2693 -0.2367 -0.3045
17838W        W34686   0.675  16.221   4.737  0.3043 -0.2656  0.2625
17839W        W34687  15.012  12.189   0.275  0.3833  0.1612 -0.0476
17840W        W34688   4.778  17.234   1.777  0.3686  0.1025 -0.2232
17841W        W34689  16.598  15.142  11.516 -0.0531  0.3563  0.2641
17842W        W34690  14.692  13.255   2.727  0.1466 -0.0590  0.5029
17843W        W34691  15.079   9.940   3.786  0.1025  0.0219  0.2921
17844W        W34692   1.070   9.079  14.421 -0.2550  0.0961 -0.3362
17845W        W34693   7.156   7.515  16.090 -0.1302 -0.3380 -0.0037
17846W        W34694  11.891   1.073   2.608  0.1870 -0.4916 -0.0591
17847W        W34695   5.908   8.122   1.652 -0.2213 -0.2919  0.1127
17848W        W34696   2.825   4.985  11.569  0.2428  0.1137 -0.1603
17849W        W34697  16.331   7.915   2.630 -0.1081  0.0148 -0.1085
17850W        W34698  13.660   0.823  16.086  0.0364  0.2671  0.1626
17851W        W34699   5.859  15.388   4.223  0.2307  0.0557  0.3060
17852W        W34700  16.706   0.485  15.381 -0.3363 -0.0502  0.2876
17853W        W34701  17.412   7.444   3.347 -0.1414  0.2354 -0.3482
17854W        W34702   8.520  16.638  14.960  0.1298 -0.1399  0.2343
17855W        W34703  13.601   9.948  12.535  0.1210  0.1773  0.0080
17856W        W34704  11.124  10.823   1.358  0.4670 -0.0165 -0.1819
17857W        W34705  10.583   5.210  14.961 -0.1691 -0.1822  0.2599
17858W        W34706  17.443   2.535   3.914  0.2702  0.1846  0.0275
17859W        W34707   3.874  16.912  14.314  0.2130  0.1594  0.0697
17860W        W34708   2.418   8.419   1.351  0.0191  0.3940 -0.1656
17861W        W34709   5.054   5.748  10.484  0.0918 -0.3330  0.0433
17862W        W34710   5.875   0.575   2.424 -0.1311  0.1177  0.0218
17863W        W34711   6.225   0.531   4.030 -0.0658  0.2341  0.0876
17864W        W34712   2.440   3.069   2.408 -0.0685 -0.1551  0.0730
17865W        W34713  15.159  13.417  15.392  0.0255 -0.2606 -0.1518
17866W        W34714   1.446   6.849   2.587 -0.1564  0.0340 -0.2324
17867W        W34715   6.864  15.999   0.367 -0.1187  0.0226 -0.0476
17868W        W34716  13.571  15.956   3.575 -0.0736  0.1404 -0.2849
17869W        W34717  13.003   0.102   2.715  0.0088  0.0642 -0.0183
17870W        W34718  15.996  15.672   0.348  0.1410  0.1949 -0.1383
17871W        W34719   9.796   1.297  12.282 -0.0462  0.0231 -0.1230
17872W        W34720   3.739  17.287   3.532 -0.0243  0.0256 -0.0835
17873W        W34721   7.049   6.114   0.149  0.3133  0.2426 -0.1193
17874W        W34722   6.601   6.650  14.944 -0.2501  0.2315  0.0412
17875W        W34723   7.306   6.828  13.084  0.0025  0.1575 -0.0936
17876W        W34724   9.639   2.964   4.597  0.2256 -0.2120  0.0731
17877W        W34725  15.550   2.417  14.472 -0.1875 -0.2328 -0.3373
17878W        W34726  16.338   9.558   0.511  0.1994 -0.0230 -0.0189
17879W        W34727   5.346   8.562  12.494  0.0846  0.4059 -0.1007
17880W        W34728  17.701   4.730  14.634 -0.0730  0.2101 -0.0724
17881W        W34729   1.938   0.447   0.884  0.1606  0.1719 -0.0152
17882W        W34730   6.653  11.083  14.266  0.0492  0.0239 -0.1133
17883W        W34731   3.882  11.337  14.678  0.2866 -0.0138 -0.0747
17884W        W34732   8.754  15.530   2.459 -0.0508 -0.0315 -0.1440
17885W        W34733   6.409   2.591  16.240 -0.0723 -0.3012 -0.0113
17886W        W34734  14.913  13.676  11.905 -0.0346 -0.2563  0.4414
17887W        W34735  14.978   6.027  14.705  0.1329  0.1339  0.1978
17888W        W34736  10.987   5.832  10.304 -0.0573  0.2000 -0.2918
17889W        W34737  15.375   3.332  14.660 -0.0848 -0.0632  0.0262
17890W        W34738  13.929   1.604  13.801 -0.1673  0.1149 -0.2259
17891W        W34739   9.705  13.330   0.407 -0.0682 -0.2361  0.1325
17892W        W34740  17.998  10.386  12.219 -0.0676 -0.0933  0.0742
17893W        W34741  11.272   7.098   1.437  0.1426  0.2254  0.1214
17894W        W34742   4.753  13.847   3.557 -0.1932  0.4257  0.0552
17895W        W34743   2.921   4.641   4.275  0.0930  0.0223 -0.0223
17896W        W34744   6.741   1.578  12.253 -0.4291  0.0841 -0.0472
17897W        W34745  10.009   7.571   3.170 -0.0650  0.1163 -0.1087
17898W        W34746   6.545   9.321   2.057  0.0369 -0.3640 -0.2964
17899W        W34747   7.796   2.448  12.510  0.0334 -0.2043 -0.0761
17900W        W34748  14.117   0.389   3.545 -0.3974 -0.3575 -0.4140
17901W        W34749   4.116  11.438  12.825 -0.1735  0.0332 -0.1416
17902W        W34750  13.059  10.049  13.776  0.2055 -0.0432  0.2299
17903W        W34751  14.026  10.653  14.760  0.1668  0.2821 -0.3612
17904W        W34752   0.823   9.046  13.130  0.0400  0.1051  0.3627
17905W        W34753   8.745   0.413  13.242  0.1271  0.0231 -0.0926
17906W        W34754  10.040   0.404  12.172 -0.0696  0.1455 -0.1618
17907W        W34755   4.086  14.454   2.512 -0.0537  0.1362  0.0072
17908W        W34756   0.171   0.163  13.974 -0.0963 -0.0030 -0.2174
17909W        W34757   5.879   4.390   6.026 -0.2163 -0.2503  0.0674
17910W        W34758   7.952   2.328  13.187 -0.0573 -0.0468  0.0599
17911W        W34759  17.493   9.017  10.881 -0.1440 -0.0588 -0.5460
17912W        W34760   0.835   3.272   1.660  0.0126  0.2287 -0.1449
17913W        W34761  16.024  17.895  11.435  0.1963 -0.0594 -0.1585
17914W        W34762   7.166  13.102   4.662  0.1341  0.0721 -0.0525
17915W        W34763   4.651   0.945  13.318  0.2693  0.0565  0.1328
17916W        W34764   7.318   7.817  14.762  0.0563 -0.0163  0.1315
17917W        W34765  14.882   4.256  14.414 -0.2747  0.1710 -0.0376
17918W        W34766   7.191  15.815  14.676  0.1537 -0.1178  0.0304
17919W        W34767   8.316  11.148   1.973  0.0477 -0.0719 -0.1496
17920W        W34768  10.157  15.137  15.474 -0.1235 -0.0526 -0.1184
17921W        W34769  15.391   8.150   1.313  0.3045  0.1877  0.0993
17922W        W34770  15.337   3.507  13.506 -0.1822 -0.1953  0.0962
17923W        W34771  15.161  17.979  15.614 -0.1582 -0.2859  0.0296
17924W        W34772   8.650   4.270   4.748 -0.1191 -0.0413  0.1446
17925W        W34773  14.672   6.808   1.258  0.0314  0.0152 -0.4733
17926W        W34774   7.470  16.036   3.918  0.1102  0.0655 -0.2255
17927W        W34775  13.343   9.022  12.863  0.2960 -0.3007  0.0111
17928W        W34776   5.357   2.074   3.643  0.1923 -0.0609 -0.0645
17929W        W34777   9.364   7.860  13.730 -0.0283  0.0967  0.0532
17930W        W34778   4.233   9.930  13.515  0.2349 -0.0403 -0.0425
17931W        W34779  12.121   8.783  15.994  0.0965  0.1121 -0.1281
17932W        W34780   0.140  15.016  16.189  0.0465  0.3513  0.1971
17933W        W34781   4.573  10.191  11.751 -0.1175  0.0583  0.1384
17934W        W34782   5.836   3.156   0.495  0.2255 -0.1338  0.3696
17935W        W34783  10.560   0.910  11.640  0.0896  0.2369  0.0458
17936W        W34784  15.963   4.188   3.084  0.0600  0.1141 -0.0823
17937W        W34785   9.708   7.574   0.104 -0.0633  0.0155  0.0722
17938W        W34786   6.619  15.347  13.681  0.2578  0.2951  0.0126
17939W        W34787  14.634   6.325  10.065 -0.0470 -0.0686 -0.0826
17940W        W34788   6.118  17.869  15.569  0.2313  0.1191  0.0492
17941W        W34789  16.060   0.059   1.002 -0.3463  0.0041  0.1720
17942W        W34790  16.222   1.324  11.472 -0.1643  0.0286 -0.3630
17943W        W34791  17.471   2.675  12.462 -0.4225  0.0757 -0.0338
17944W        W34792  10.574  11.246  15.312 -0.2506 -0.1713  0.0730
17945W        W34793   7.962  15.802   4.934  0.0626 -0.2080  0.1105
17946W        W34794  12.228   3.180   0.856  0.3181  0.1054  0.1845
17947W        W34795  11.970  15.391  11.538 -0.1097  0.2192  0.1717
17948W        W34796  11.103  17.567   4.961 -0.0069 -0.0606 -0.1944
17949W        W34797  12.087  16.358   3.024 -0.2453  0.1309 -0.0073
17950W        W34798   9.565  10.218   0.494  0.1597 -0.0382  0.0521
17951W        W34799  15.242  10.376   3.614 -0.0725  0.1353  0.0803
17952W        W34800   9.201  12.869   3.541 -0.1192 -0.0983 -0.0281
17953W        W34801   6.134   6.685   1.403 -0.2408  0.0198 -0.0073
17954W        W34802  11.783   8.078   2.318  0.3375 -0.0540 -0.1656
17955W        W34803   3.040   7.099   0.742 -0.0232 -0.0306 -0.1952
17956W        W34804   4.522  13.622  13.900 -0.2352 -0.0335 -0.1606
17957W        W34805   7.633  12.306   2.276 -0.1465  0.0245 -0.0390
17958W        W34806  14.929  16.827  14.438  0.1668 -0.0011 -0.1566
17959W        W34807   8.915   8.289   2.482  0.0959  0.2246 -0.6199
17960W        W34808  14.041   8.022   3.001  0.2846 -0.2265 -0.1252
17961W        W34809  11.896   8.787   4.223  0.1039 -0.0749 -0.0436
17962W        W34810   0.187   0.030   2.488 -0.0561 -0.0545  0.0799
17963W        W34811   2.187  13.532  13.110  0.3390 -0.2376 -0.1980
17964W        W34812   9.778  17.158  14.895 -0.0487 -0.3120  0.5737
17965W        W34813  15.168  11.777   1.500 -0.1027  0.1290 -0.1322
17966W        W34814   9.526   7.634  15.929  0.2133  0.1266  0.3298
17967W        W34815  11.624   6.847  15.844  0.0879 -0.0487  0.2120
17968W        W34816  10.087   3.603   1.437  0.0902 -0.1872  0.0170
17969W        W34817  13.645   5.371  15.000 -0.0625 -0.0315  0.2037
17970W        W34818   4.886   1.639   2.393  0.1255  0.1872 -0.0636
17971W        W34819   2.584   2.302  16.137 -0.0318  0.1043  0.0663
17972W        W34820   7.194   6.234  13.675  0.2512 -0.1172  0.0985
17973W        W34821  15.693  13.056  15.353 -0.1135  0.1856 -0.3312
17974W        W34822   5.924   5.119  12.633 -0.0370  0.1098 -0.0279
17975W        W34823  14.226  14.474  13.225  0.0537  0.0345 -0.0715
17976W        W34824  13.122   8.065   3.693 -0.2362  0.1852  0.0770
17977W        W34825   0.929   0.707  11.606 -0.0542 -0.1180  0.0645
17978W        W34826  13.389  17.164   2.839  0.0793  0.1540  0.2701
17979W        W34827   9.654   7.073   4.888 -0.3500  0.1775  0.0863
17980W        W34828   2.243   2.361   0.317  0.3605 -0.0717  0.2489
17981W        W34829   9.087  13.716  13.973 -0.0981  0.0586 -0.0355
17982W        W34830  11.236   2.792   2.905  0.1546  0.0685  0.1454
17983W        W34831  14.296  15.019  14.286 -0.2332 -0.1676  0.1705
17984W        W34832   3.346  14.625   3.084  0.2577 -0.0548 -0.2559
17985W        W34833   9.654  14.517  12.038 -0.0287  0.0693  0.0268
17986W        W34834   4.503  16.574   1.571 -0.1778 -0.0814 -0.0887
17987W        W34835   5.862   0.040  14.381  0.1110 -0.1011 -0.0509
17988W        W34836   3.326  10.903  10.627 -0.1597  0.2243  0.1309
17989W        W34837   2.459  16.057  13.881  0.1525 -0.0877 -0.1281
17990W        W34838   1.244   3.513   1.878 -0.0248  0.1416 -0.1591
17991W        W34839   5.012  10.096  11.990  0.4582  0.1241  0.1769
17992W        W34840   5.497   2.363   0.882 -0.2640 -0.0191 -0.0383
17993W        W34841  13.907  16.051  15.649 -0.0579 -0.0073  0.3191
17994W        W34842  13.933   2.858  11.860  0.2100 -0.1482 -0.0088
17995W        W34843   1.608   6.198   4.522  0.0713  0.1236 -0.0683
17996W        W34844   3.123  17.356  15.914 -0.2819 -0.2561  0.0918
17997W        W34845   4.093   6.066   2.874 -0.0863  0.1463  0.0087
17998W        W34846  17.618   4.084  14.151 -0.3271 -0.1058 -0.0959
17999W        W34847  17.160  15.832  12.637  0.2043  0.0137 -0.1062
18000W        W34848   9.662   3.127  14.828 -0.1080 -0.2367  0.1791
18001W        W34849  16.410  12.292   3.053  0.0265  0.0929 -0.1172
18002W        W34850  14.436  13.086  11.397  0.2369  0.1979 -0.0230
18003W        W34851  11.305   4.269   2.082  0.0585  0.1289 -0.2567
18004W        W34852  16.436   8.580   0.949  0.0370 -0.2654 -0.0444
18005W        W34853  10.699   1.555   0.536  0.0967 -0.0660 -0.1209
18006W        W34854  17.288  14.014   2.365 -0.2040 -0.1307  0.0755
18007W        W34855  13.971   7.633  16.121 -0.0705 -0.1628  0.1372
18008W        W34856   1.611  11.981   2.775 -0.0534 -0.1011  0.0892
18009W        W34857   7.554  16.280  15.591 -0.0778  0.0299  0.2813
18010W        W34858   0.154   6.675  13.865 -0.0936  0.0817  0.0822
18011W        W34859  15.185   3.465   1.674  0.0271  0.0955  0.2225
18012W        W34860   7.120  17.726  15.665  0.2169 -0.1678  0.0367
18013W        W34861  12.079   0.222   2.259  0.0204  0.1104 -0.1825
18014W        W34862   3.144   3.261  14.261  0.2930 -0.0740  0.3031
18015W        W34863   7.776   9.784  12.437 -0.0578 -0.0355 -0.0867
18016W        W34864   1.810  11.603   0.965  0.3360 -0.2222  0.2290
18017W        W34865  17.006   5.740   3.691  0.0108  0.0791  0.0937
18018W        W34866   6.475  16.596   5.522 -0.1182 -0.2351  0.3340
18019W        W34867   3.066   1.568  13.880  0.1025 -0.0954 -0.1063
18020W        W34868  17.851  14.539   3.144  0.2500 -0.1159  0.2341
18021W        W34869   4.086  12.026   6.099  0.1738 -0.1680 -0.1594
18022W        W34870  16.736  15.854  13.520  0.0052  0.1166  0.0466
18023W        W34871   2.846   9.576  12.153 -0.0194  0.0911 -0.0425
18024W        W34872  12.020  10.256  10.430 -0.0433 -0.3098  0.1638
18025W        W34873  16.611  14.356   0.057  0.0224 -0.3170  0.0687
18026W        W34874   3.329   0.019  13.943 -0.1034  0.0948 -0.2227
18027W        W34875  14.418   7.886  13.975 -0.0576 -0.0775  0.0288
18028W        W34876  11.074   5.157   5.103  0.1661  0.0174 -0.2408
18029W        W34877  15.638   3.152   2.212  0.1548  0.0957  0.1902
18030W        W34878  10.739   2.615  15.076 -0.1752  0.2268 -0.2323
18031W        W34879  13.639   5.789   6.103 -0.0623 -0.3750  0.0636
18032W        W34880   5.248  10.413   3.506 -0.0689 -0.0979  0.0055
18033W        W34881  16.050   7.589  12.920 -0.0460  0.1417 -0.0707
18034W        W34882   5.170  10.600   5.133 -0.1440 -0.2080 -0.3989
18035W        W34883   4.203  13.898  11.477 -0.0771  0.0752  0.1813
18036W        W34884   0.101   7.130  14.050  0.0834  0.0673 -0.2427
18037W        W34885   8.278  13.466   2.033 -0.4632  0.1353  0.4966
18038W        W34886   8.157  15.856  12.259  0.1135 -0.0375 -0.0637
18039W        W34887   5.394  16.457  11.424  0.0986  0.0075  0.2638
18040W        W34888   2.218  11.770  12.020 -0.0104 -0.0882  0.1050
18041W        W34889   8.633  13.069  14.316  0.0823  0.3823 -0.2611
18042W        W34890  12.221  15.074   3.182 -0.2861  0.0403  0.0069
18043W        W34891   3.635   3.339  14.294 -0.2230  0.5249  0.0974
18044W        W34892  12.812  14.990   1.602  0.0952 -0.3139  0.1774
18045W        W34893   7.310  14.037   5.239  0.4472 -0.4942  0.1123
18046W        W34894  11.107  16.320  14.797 -0.1813 -0.0170  0.0039
18047W        W34895  10.987  11.524  15.323  0.1780  0.0551 -0.0677
18048W        W34896   7.139   0.575   4.480  0.2559  0.2049 -0.1078
18049W        W34897   3.784   2.553   4.819 -0.3256  0.3405  0.1227
18050W        W34898   8.122   9.950   0.506  0.3794 -0.3418 -0.3983
18051W        W34899   8.307   3.583  11.073  0.2006 -0.0105  0.1759
18052W        W34900  12.240   1.411   0.801 -0.0727 -0.0293  0.5218
18053W        W34901  11.656  11.620   0.367  0.2150  0.1414 -0.2697
18054W        W34902   2.907  14.205  14.169 -0.2201  0.0892 -0.0567
18055W        W34903   8.458   4.862   0.607 -0.3031  0.2379  0.0526
18056W        W34904   5.904  12.384  11.655 -0.1581  0.1083  0.3271
18057W        W34905  15.278  10.333  12.930 -0.3329 -0.2392  0.0798
18058W        W34906  12.930  17.539  13.793 -0.0032 -0.1846  0.0513
18059W        W34907  12.702  13.080  12.986  0.0515  0.0555 -0.0307
18060W        W34908  12.776  13.043   5.158 -0.0856  0.0243 -0.0235
18061W        W34909  12.224  14.149  13.852  0.3618 -0.0461  0.0124
18062W        W34910  15.311   4.187  11.902 -0.2073 -0.0327  0.2701
18063W        W34911  10.406  16.917   3.526 -0.0253  0.0997  0.0800
18064W        W34912  11.986  11.668  13.188  0.0327 -0.1950 -0.0650
18065W        W34913   5.670  15.839  13.052 -0.0767  0.0330  0.2050
18066W        W34914   9.287  17.659   0.126 -0.1483 -0.0511 -0.1348
18067W        W34915   3.090   0.539   2.454  0.2872 -0.0367 -0.1702
18068W        W34916   2.639  12.242  15.104  0.2459 -0.0281  0.0288
18069W        W34917   6.256   6.645  14.608  0.0809 -0.3476 -0.3221
18070W        W34918  14.440   7.604   1.874 -0.1312  0.2607 -0.1944
18071W        W34919  12.080  15.904   2.690 -0.0072 -0.2269 -0.0736
18072W        W34920  17.065   8.496   1.554  0.0751 -0.1310  0.0335
18073W        W34921  16.335  12.268  15.338 -0.3439  0.0699 -0.1285
18074W        W34922   1.142  17.124  14.148 -0.3838  0.0802  0.0362
18075W        W34923   9.167   8.762  13.562  0.0723  0.0356 -0.1448
18076W        W34924  16.765  12.862  11.408 -0.1832 -0.0368 -0.1231
18077W        W34925   5.362   0.553   3.675  0.1032  0.0256 -0.1669
18078W        W34926   1.110   5.743  14.753  0.0182 -0.0434 -0.2461
18079W        W34927   3.668  15.404   5.005  0.1724 -0.1240  0.3250
18080W        W34928   0.112  16.830  14.967  0.2197  0.2356 -0.1127
18081W        W34929  16.403  14.947  11.968 -0.0357  0.0170  0.0830
18082W        W34930  11.006   8.259   4.498  0.0805  0.0037 -0.0950
18083W        W34931  15.740  14.811   0.077 -0.2574 -0.1679  0.0516
18084W        W34932  15.039   8.734   3.271 -0.1728 -0.1730  0.1184
18085W        W34933   2.460   5.560   4.610 -0.2530  0.0021  0.1050
18086W        W34934  17.685  16.792   2.579  0.1835  0.2453 -0.0951
18087W        W34935   1.277   8.865  15.923 -0.2938 -0.1929  0.0607
18088W        W34936   0.023  13.338  15.280 -0.0172 -0.0875 -0.1734
18089W        W34937  11.996   2.445   3.112  0.2766 -0.1572  0.2109
18090W        W34938   2.695  10.483  11.079  0.0954 -0.1116  0.2416
18091W        W34939  12.463  11.610   3.014  0.1619 -0.1228  0.2961
18092W        W34940  10.656   5.200  11.291  0.1249  0.1785  0.1787
18093W        W34941  14.102  13.880   1.649  0.0829  0.0323  0.1833
18094W        W34942   8.643   5.990  15.791  0.0773 -0.0257 -0.0413
18095W        W34943   2.608  11.899   4.544 -0.3336  0.3154  0.3814
18096W        W34944  10.453   5.383   3.175 -0.1583  0.1113 -0.1620
18097W        W34945   8.114  15.630   0.842 -0.0488  0.2487  0.4781
18098W        W34946   1.852   6.848  15.091  0.0661 -0.1877  0.0100
18099W        W34947   3.206  16.618  14.372  0.1850 -0.1165 -0.2947
18100W        W34948   1.142  13.413   1.462 -0.1718  0.1320  0.0933
18101W        W34949   3.458   1.671   4.552  0.0332  0.0966 -0.0507
18102W        W34950   1.292   5.669  11.493 -0.2432  0.0722  0.0530
18103W        W34951   1.217  17.914   2.488 -0.1063  0.0332  0.1275
18104W        W34952   6.157   4.702  13.734 -0.1182 -0.1111  0.1923
18105W        W34953  14.745   9.748   4.830 -0.2110 -0.3061 -0.1655
18106W        W34954   8.429  14.894   0.853 -0.0603  0.0433  0.1198
18107W        W34955   4.732  13.407   3.835  0.2347  0.0212  0.4641
18108W        W34956   0.457   0.696   0.444  0.0952 -0.0178  0.1954
18109W        W34957   3.674  10.893   3.083 -0.2647 -0.2096  0.1374
18110W        W34958   6.873  16.353   3.204  0.1089  0.3399  0.0931
18111W        W34959  15.662  15.753   2.264  0.0820  0.2470  0.3151
18112W        W34960   2.332   7.805   2.338  0.3013 -0.3927  0.0406
18113W        W34961  14.818   0.705   0.325 -0.5151  0.0161  0.3909
18114W        W34962   6.235   1.008   0.856 -0.0672 -0.2059 -0.4627
18115W        W34963  14.489  12.139  10.913  0.0013 -0.3383  0.2171
18116W        W34964  14.854  15.071   1.543  0.1095  0.3545  0.0568
18117W        W34965  15.928   1.803  13.956 -0.0769 -0.0201 -0.1779
18118W        W34966   3.275   5.682  14.104 -0.0433 -0.2025  0.2009
18119W        W34967   1.010  15.159   0.324 -0.0547 -0.1751  0.3211
18120W        W34968   2.821  11.743   4.962 -0.5113  0.3026  0.1675
18121W        W34969   5.113   5.824   3.283  0.0151  0.1682 -0.1955
18122W        W34970   3.574   3.246  12.984  0.0482 -0.2238  0.0842
18123W        W34971   2.741   9.703  13.502 -0.0752  0.2441 -0.3325
18124W        W34972   0.792  17.055   4.536 -0.2294 -0.0198  0.1912
18125W        W34973  16.310   3.878  16.075 -0.0539  0.0369  0.0141
18126W        W34974   7.567   8.060  13.740 -0.1461  0.2408 -0.2545
18127W        W34975  10.402   2.310  15.355  0.1806  0.0824 -0.1053
18128W        W34976  12.064   5.287   4.046 -0.0143 -0.0688  0.1323
18129W        W34977  15.044  13.320   3.075 -0.0089  0.1532  0.0999
18130W        W34978   4.938   7.778   1.776  0.2628  0.0431 -0.0875
18131W        W34979  12.096  10.138   4.634 -0.1904 -0.0609 -0.3668
18132W        W34980   7.575   9.873  13.062  0.0681  0.1502 -0.0965
18133W        W34981  15.460   5.540  11.636 -0.1143  0.0200  0.0635
18134W        W34982   2.053   5.906  12.906  0.2196 -0.0423 -0.1611
18135W        W34983  12.433  11.506  12.984 -0.2987  0.0858  0.1585
18136W        W34984   5.968   0.465  16.261 -0.2014  0.0687 -0.0463
18137W        W34985   2.119  10.229   4.206 -0.0263 -0.2473 -0.1695
18138W        W34986  14.037  10.009  13.456 -0.0226  0.0902  0.0056
18139W        W34987   9.695   6.223   5.318 -0.0520 -0.1714 -0.1263
18140W        W34988   4.751  10.575   0.639 -0.0713  0.3970 -0.2867
18141W        W34989   4.226   1.796  11.620 -0.3978  0.3602  0.0178
18142W        W34990   9.493   0.609   1.825  0.1673  0.3337 -0.0351
18143W        W34991  10.662   1.477   2.867 -0.1067 -0.2829  0.1657
18144W        W34992   7.223  10.567  11.231  0.1037 -0.0110 -0.1059
18145W        W34993   2.194  13.351   3.157  0.1552 -0.1154  0.3307
18146W        W34994   4.721   1.264   3.875 -0.1339  0.1070 -0.2832
18147W        W34995   5.527  17.873  13.567  0.2652 -0.3345  0.0366
18148W        W34996  10.763  15.438   3.299 -0.2255  0.2530  0.0454
18149W        W34997   1.423  17.671  15.933 -0.1164  0.1804 -0.0702
18150W        W34998   5.444  17.415   1.833 -0.0764 -0.1462 -0.3375
18151W        W34999   6.965   7.758   4.291  0.0437 -0.2344  0.2835
18152W        W35000   0.324  17.214   1.605 -0.1047 -0.0952 -0.0835
18153W        W35001   5.503   0.150   4.560  0.1089  0.1463  0.1306
18154W        W35002   3.850   2.763  15.717 -0.0123 -0.2234 -0.0141
18155W        W35003   0.039  13.152   2.828 -0.0907 -0.0793  0.2577
18156W        W35004  15.005   5.883  12.312  0.1036 -0.3837 -0.1464
18157W        W35005  15.770  11.851   1.590 -0.0011  0.0618 -0.0867
18158W        W35006  13.212   4.074  14.633 -0.1501  0.2346 -0.2370
18159W        W35007   2.797  16.230   3.373  0.1798  0.0571  0.2308
18160W        W35008   5.520  16.750   3.775  0.1187  0.0396 -0.0090
18161W        W35009  10.250   3.831   3.912 -0.2057  0.2133 -0.0158
18162W        W35010  15.726  14.648   1.643  0.0467 -0.2598  0.0156
18163W        W35011  10.327   6.871   1.997 -0.0185 -0.3649  0.3896
18164W        W35012   3.745   4.637   2.130 -0.1728 -0.0679 -0.5223
18165W        W35013   8.682   8.118  14.630 -0.2452  0.0896 -0.1296
18166W        W35014   3.912  11.373  12.143 -0.0393  0.2560 -0.0252
18167W        W35015  10.164   5.278  11.103  0.0418 -0.0310 -0.0627
18168W        W35016   0.302   7.648   2.843  0.2394 -0.0527 -0.2881
18169W        W35017   0.489   3.674  14.219  0.4793 -0.0244  0.0453
18170W        W35018   4.575   7.474  11.222 -0.4640  0.0970 -0.0419
18171W        W35019   3.993  13.974   2.926  0.2034 -0.1815 -0.0453
18172W        W35020   4.181   6.944   4.079  0.1961 -0.0619  0.0003
18173W        W35021   3.738   2.426  15.289 -0.0949  0.1579 -0.0114
18174W        W35022   1.806   7.640   4.730 -0.0201  0.0344  0.0483
18175W        W35023  11.819   7.025   3.185  0.4699 -0.0214 -0.0022
18176W        W35024   2.458   9.202  15.422  0.2668  0.0566  0.2347
18177W        W35025   9.548   1.354   5.318  0.0810  0.2995  0.1473
18178W        W35026   7.663   2.047  15.837 -0.1571 -0.2186  0.2358
18179W        W35027   9.613   3.711  15.762 -0.0278  0.3592  0.0151
18180W        W35028  16.256   1.288  13.316  0.0022 -0.0431  0.3438
18181W        W35029   2.858  16.350   4.049  0.2847  0.1753  0.2388
18182W        W35030   7.508  12.905  13.037 -0.0116 -0.2804  0.1300
18183W        W35031  14.880  17.885  12.845 -0.1518  0.0249 -0.0569
18184W        W35032   9.267  17.697   3.391 -0.0384 -0.1073  0.1181
18185W        W35033  15.513  15.605   0.882  0.1527 -0.1804 -0.0721
18186W        W35034  12.807  12.560  13.107 -0.0092  0.0529 -0.0755
18187W        W35035   0.793   2.988   0.791 -0.2056 -0.0265  0.2378
18188W        W35036   8.386  14.294   1.051  0.0397 -0.0176  0.0858
18189W        W35037   1.621  17.539   3.307  0.0916 -0.1146  0.3397
18190W        W35038   2.377   1.186   4.725  0.0977 -0.0140 -0.0895
18191W        W35039   5.105  14.368   5.470 -0.2245  0.3580  0.3091
18192W        W35040   8.693   4.151   3.354  0.2150  0.0523 -0.3426
18193W        W35041   6.623  15.706  13.270  0.0698  0.1565 -0.1978
18194W        W35042  13.186  15.775  14.906 -0.0422  0.3539 -0.1410
18195W        W35043  10.240  10.849  13.412 -0.1526  0.1146 -0.0502
18196W        W35044  16.626   1.394  13.777 -0.0295 -0.1677 -0.2503
18197W        W35045   4.054   7.183  14.948  0.1165 -0.1557  0.0514
18198W        W35046   2.178  12.084   1.287  0.0945 -0.0153 -0.0167
18199W        W35047   1.884   6.935  11.926 -0.1292 -0.3389  0.2595
18200W        W35048   7.950  13.448   3.714 -0.0747  0.0505 -0.1552
18201W        W35049  15.336   1.886  10.150 -0.0700  0.1054  0.4491
18202W        W35050   8.412  17.138   4.629 -0.0675  0.2353  0.2739
18203W        W35051  12.742  16.754   4.801 -0.0128 -0.1426 -0.1505
18204W        W35052   0.213   5.131   5.079  0.1863  0.2306  0.0567
18205W        W35053  10.686   0.012  11.807  0.2120 -0.0416  0.1411
18206W        W35054   1.817   6.381  14.694 -0.0013  0.1412  0.2171
18207W        W35055   4.977  14.203   4.039  0.1287  0.0064  0.2343
18208W        W35056   4.739   8.279   4.579 -0.1289  0.2013 -0.0423
18209W        W35057   9.527   0.118   3.529 -0.1166  0.0223 -0.0006
18210W        W35058   7.352   9.345   4.798 -0.0475 -0.1558  0.0001
18211W        W35059   5.176  13.833   0.620 -0.2752  0.3705 -0.1572
18212W        W35060  12.761   6.179  12.883  0.1123  0.1779 -0.3083
18213W        W35061  16.420   1.838   1.138  0.4211  0.1231  0.1537
18214W        W35062   3.395  13.808  11.129 -0.1295 -0.2140 -0.0615
18215W        W35063   2.066   8.815   0.626 -0.0599 -0.2021  0.0548
18216W        W35064   7.914  16.470   0.653  0.2481 -0.0296  0.0593
18217W        W35065  16.105   9.200   4.221 -0.0502 -0.0468 -0.0026
18218W        W35066   4.470   4.243  12.391 -0.0773 -0.3533  0.1220
18219W        W35067   1.121  11.815  13.803 -0.1643  0.1083 -0.0879
18220W        W35068   4.978  15.565   2.093  0.0772 -0.1589  0.0365
18221W        W35069   6.216  12.405  15.304  0.2347  0.0492  0.4583
18222W        W35070   8.482  15.219  13.206  0.1176  0.2878  0.3045
18223W        W35071   1.633  15.042  15.135  0.0175  0.2419 -0.2177
18224W        W35072  16.709   4.195  12.939  0.0688 -0.1620  0.0550
18225W        W35073  14.034  12.353  13.679 -0.0510 -0.0306  0.0111
18226W        W35074   6.809  15.907  12.283 -0.0085  0.0529 -0.0298
18227W        W35075   9.599   2.473   1.157  0.0574  0.0154 -0.1977
18228W        W35076   4.862  16.105   2.161 -0.1944 -0.2788  0.1256
18229W        W35077  13.674   5.763  15.835  0.0342 -0.1378  0.2082
18230W        W35078   6.719  16.827  15.509 -0.1244 -0.0452 -0.1376
18231W        W35079  13.940  11.402  14.104 -0.2675 -0.0434 -0.0924
18232W        W35080  14.768  16.586  11.954 -0.0368 -0.0750 -0.0011
18233W        W35081   0.716   3.805   3.920  0.1770  0.1327 -0.0819
18234W        W35082  10.821   4.412   3.811 -0.1206  0.4533 -0.1206
18235W        W35083  12.927   8.470   3.588  0.1458 -0.3082  0.2416
18236W        W35084   5.619  17.394  11.227  0.1753 -0.0609  0.0827
18237W        W35085  17.628  13.347  15.016  0.0946  0.0274 -0.2046
18238W        W35086   4.491  14.845  11.459 -0.1049  0.1915  0.0722
18239W        W35087   8.403   5.578   1.074 -0.0932 -0.0724  0.0704
18240W        W35088  11.916  15.734   0.311 -0.0183  0.3135 -0.0153
18241W        W35089  14.888  13.234   1.690 -0.0152  0.1293  0.1060
18242W        W35090   9.590   2.998   1.045 -0.1727 -0.0088 -0.1054
18243W        W35091   4.698  12.694   4.240 -0.2019  0.4883  0.2107
18244W        W35092  16.182  12.580   1.566  0.0984  0.1524 -0.2240
18245W        W35093   3.577   2.125   4.730  0.1305 -0.0679 -0.0970
18246W        W35094   2.768  16.911   2.818 -0.0473  0.2194  0.1160
18247W        W35095  12.814   3.707   3.955 -0.1179  0.2090  0.3075
18248W        W35096  17.925  15.528   5.218 -0.0413 -0.0596  0.3223
18249W        W35097  15.739   6.678  11.545 -0.1533  0.0603 -0.0423
18250W        W35098   5.796   8.318   3.206  0.0061  0.0659 -0.0393
18251W        W35099   7.132  17.078   2.417  0.1215 -0.0334  0.0365
18252W        W35100   7.885   4.488  14.095 -0.1395  0.0249  0.1280
18253W        W35101   7.293  13.914  15.426 -0.1395  0.1149  0.0196
18254W        W35102   2.990  16.928   0.545 -0.2046 -0.1443  0.4539
18255W        W35103  14.879  12.131  10.578 -0.0615 -0.0714 -0.0689
18256W        W35104  12.884  13.579   0.375  0.1158 -0.0092 -0.1597
18257W        W35105   0.337   1.288   4.815 -0.1359 -0.1392  0.1974
18258W        W35106   8.853  13.411   4.035 -0.0180  0.0401  0.1197
18259W        W35107   8.400  13.364   4.484  0.3257  0.2607  0.0314
18260W        W35108  15.862   6.246   5.075  0.4325 -0.0499  0.2086
18261W        W35109  13.074   4.667   3.932  0.1741 -0.0528 -0.0720
18262W        W35110  15.331   1.368   2.323 -0.1308  0.3701  0.0184
18263W        W35111   1.728  10.755  13.814 -0.2647  0.1311 -0.2215
18264W        W35112   7.971   3.629   5.264  0.0861  0.3078  0.0602
18265W        W35113  13.250   3.401  11.853  0.2350 -0.1660 -0.3638
18266W        W35114   8.115  10.384   3.031  0.2833  0.0450 -0.0162
18267W        W35115   2.384  12.271   0.430  0.5358 -0.2017 -0.0691
18268W        W35116  17.709   1.483  16.036 -0.0791  0.2900  0.0983
18269W        W35117   7.017  16.535  13.904 -0.2846 -0.0667 -0.1818
18270W        W35118  12.362   0.544  12.879  0.1702  0.0567 -0.0286
18271W        W35119   6.259  11.950   5.125  0.4093  0.2624 -0.1418
18272W        W35120   0.858  12.813  16.263  0.2364 -0.0410 -0.0739
18273W        W35121   5.303  16.243   5.470 -0.0241 -0.0089 -0.0081
18274W        W35122   0.983   4.211  13.330 -0.1837 -0.1451  0.1222
18275W        W35123  12.110  15.096  12.863 -0.0312  0.1745 -0.3545
18276W        W35124  10.988   1.819  14.157  0.1925  0.0244  0.1380
18277W        W35125   8.143   3.936  14.139  0.2178 -0.1217  0.1226
18278W        W35126   8.633  17.093  15.349 -0.1189 -0.0270  0.3689
18279W        W35127  13.767   7.999  15.826 -0.2489 -0.0578 -0.1137
18280W        W35128  15.965  16.327  14.475 -0.1552 -0.2358 -0.4386
18281W        W35129   4.557   8.712   3.360  0.1761 -0.0010  0.2405
18282W        W35130   4.176   7.028   1.545 -0.0382 -0.1959 -0.1997
18283W        W35131   7.870  10.315  13.717  0.2751  0.0974  0.1904
18284W        W35132  10.672  16.290  16.118 -0.0061 -0.0732  0.1527
18285W        W35133  17.036   0.477  11.220 -0.0613 -0.2542  0.3413
18286W        W35134   2.447  12.658   1.244 -0.1620  0.1514 -0.3098
18287W        W35135  11.496   1.988   5.056 -0.2560 -0.2137  0.0072
18288W        W35136  10.832   2.571   0.108 -0.3103  0.3736 -0.0609
18289W        W35137   5.486  17.968   5.110  0.0260  0.2900 -0.0202
18290W        W35138   7.020   4.474  14.299  0.0006  0.0215  0.0076
18291W        W35139   6.447   6.257  11.550 -0.0245 -0.0534  0.0809
18292W        W35140   8.799  12.227  15.402  0.0669 -0.1979 -0.1681
18293W        W35141   1.637  14.441   2.332 -0.1915 -0.3059 -0.0900
18294W        W35142  11.299   0.464   3.846  0.0090 -0.1640  0.0017
18295W        W35143   5.473   8.651   2.896  0.1945 -0.1425  0.1152
18296W        W35144   3.937  15.538  15.690  0.0568  0.0332  0.1011
18297W        W35145  16.059  13.996   3.567  0.1379 -0.1194  0.1542
18298W        W35146   4.553   1.974   3.161  0.1139  0.1438  0.2427
18299W        W35147   4.294   1.194  13.477 -0.2175  0.0310 -0.4001
18300W        W35148   8.307  11.112  12.626 -0.0211 -0.1328  0.0402
18301W        W35149  16.555   1.701  15.416  0.0245 -0.1012  0.0978
18302W        W35150  15.931  17.026   4.017  0.0909 -0.0830  0.0034
18303W        W35151   7.712   7.200  14.153 -0.1033  0.1116 -0.0838
18304W        W35152   5.250   3.073   3.383 -0.0005 -0.2497 -0.0353
18305W        W35153  13.565  12.525  13.833  0.1074  0.1394  0.0067
18306W        W35154   4.476  17.388   2.102 -0.2440  0.0279  0.2726
18307W        W35155  17.551   4.594  15.113 -0.1173 -0.0310  0.1985
18308W        W35156  16.506  11.566  14.101  0.2890 -0.1123 -0.2387
18309W        W35157  12.985   7.915   1.998 -0.0868  0.0731 -0.2003
18310W        W35158  16.348  15.457  14.553  0.0031  0.1434  0.2721
18311W        W35159  13.791   8.494  15.755 -0.0342 -0.1974 -0.1351
18312W        W35160   1.286   0.223   1.676  0.2904 -0.1117  0.2032
18313W        W35161  14.417   0.955   2.228  0.3179 -0.4349 -0.0405
18314W        W35162  14.020  16.577   4.440  0.1786 -0.4387 -0.0444
18315W        W35163  12.158  12.423   2.538  0.1052  0.0920 -0.0609
18316W        W35164   1.679   4.989   4.860  0.1188 -0.1148 -0.1473
18317W        W35165  10.478  14.102  14.185 -0.0542  0.0312 -0.3866
18318W        W35166  13.470  13.262   4.925 -0.0895  0.2862  0.0505
18319W        W35167  10.696   3.836  14.126  0.0650 -0.0078 -0.0062
18320W        W35168  14.436   8.623   4.209  0.0965  0.0648 -0.1931
18321W        W35169  14.940  14.865  10.502  0.0728  0.0626  0.1938
18322W        W35170   6.452   3.560  13.005  0.1028 -0.1687 -0.1432
18323W        W35171  15.446  13.015  13.484 -0.0164 -0.3078 -0.0886
18324W        W35172  10.624  10.723   3.363 -0.3307  0.1380  0.3277
18325W        W35173  10.023  13.604   0.763  0.1757  0.0164 -0.3902
18326W        W35174   9.082  13.323   6.302 -0.0911 -0.2576  0.2634
18327W        W35175  17.059  14.316  12.031  0.0926  0.2084  0.0268
18328W        W35176  10.916  15.969   0.136  0.0631  0.0643 -0.0559
18329W        W35177   1.992   2.317  12.473  0.3959 -0.0044  0.0046
18330W        W35178   1.336  12.342  15.081  0.2573  0.1969 -0.1547
18331W        W35179  17.712  14.737  15.415  0.0766 -0.1587  0.1197
18332W        W35180   7.107   3.310  15.196  0.1315  0.0731 -0.0329
18333W        W35181   6.260   1.765  13.993  0.0413 -0.1448 -0.1413
18334W        W35182   6.989  13.339  12.210 -0.1477  0.2091 -0.1624
18335W        W35183   9.504   7.285   5.349  0.0094  0.2529  0.0234
18336W        W35184   1.724   0.976  14.803  0.2464  0.0963  0.0103
18337W        W35185   5.518   2.886   2.468 -0.2933  0.2699 -0.0572
18338W        W35186   7.753  12.402   5.438 -0.1284  0.4230  0.4804
18339W        W35187  10.970  13.491   4.783 -0.0346  0.4437 -0.2018
18340W        W35188   2.545   7.348  12.726 -0.2537  0.0590  0.3474
18341W        W35189  12.598   3.390  13.393  0.3075 -0.1377  0.1571
18342W        W35190   4.171   7.257  11.513  0.1197 -0.1664  0.3691
18343W        W35191  17.682  15.531  15.751  0.1753 -0.0124 -0.1216
18344W        W35192  16.350  12.104  14.157  0.0825  0.4093  0.0109
18345W        W35193  10.178   9.932   2.394 -0.0440 -0.4619  0.2747
18346W        W35194   6.133   4.078   1.579  0.0040 -0.0747  0.1583
18347W        W35195  12.675  16.110  11.616  0.1619  0.3807  0.3800
18348W        W35196  15.685   2.385  12.530 -0.3618  0.3993 -0.0373
18349W        W35197   6.066  13.195  12.075  0.2079  0.0051 -0.1782
18350W        W35198  12.974  12.088  13.266  0.0223  0.0127  0.2975
18351W        W35199   2.388   5.138   1.659 -0.0041  0.1182 -0.0485
18352W        W35200   3.403   1.346  13.170 -0.2843  0.1225  0.4236
18353W        W35201  16.081  11.302  13.745 -0.1294  0.2622  0.1474
18354W        W35202   6.027   1.447   4.318 -0.1223  0.0457  0.2262
18355W        W35203   3.031  13.551   3.911  0.1796  0.0239 -0.1114
18356W        W35204  16.676   1.496  12.282 -0.1317 -0.4156  0.1315
18357W        W35205   6.961  13.437   4.953  0.3290  0.0087 -0.0748
18358W        W35206  10.402   3.176  14.014  0.0375  0.0077  0.2268
18359W        W35207   6.913   7.457  12.042  0.0227 -0.2547  0.0219
18360W        W35208  13.259   6.424  14.136 -0.1212  0.2876 -0.0032
18361W        W35209   8.636  10.751   2.930 -0.1885 -0.1217  0.1220
18362W        W35210   9.689  11.881  11.769  0.3318  0.3499 -0.0846
18363W        W35211  14.418  11.821  14.605  0.0536 -0.1596  0.0397
18364W        W35212  14.331  15.880   1.975  0.0851  0.1473  0.0929
18365W        W35213  12.289   8.993  15.567 -0.5460  0.1946  0.0899
18366W        W35214  14.159   3.149  12.189  0.0310  0.4763 -0.1223
18367W        W35215   1.267   9.789  13.122  0.1321 -0.2426  0.1020
18368W        W35216  17.827  17.929   4.357  0.0443  0.2371 -0.1049
18369W        W35217  12.236   2.166   3.991 -0.1976  0.3001  0.0698
18370W        W35218  15.078   3.557  15.002  0.1380  0.1874 -0.0903
18371W        W35219  17.552   1.917  15.729 -0.1214  0.1647  0.0015
18372W        W35220  15.696   5.380   1.937  0.0984 -0.5238  0.3328
18373W        W35221  16.957   6.003   1.191  0.0865 -0.1011  0.1217
18374W        W35222  17.535   1.165  11.613  0.2127  0.3287 -0.1021
18375W        W35223   9.113   7.499   1.799  0.3683  0.0287  0.0229
18376W        W35224  10.949   6.767   0.198  0.0878 -0.0217 -0.2213
18377W        W35225  12.601  15.880  15.664 -0.3611  0.0398  0.2031
18378W        W35226   4.567  12.294  13.713 -0.3473  0.2100 -0.2865
18379W        W35227   8.802   1.516  13.057 -0.2582 -0.1389  0.0624
18380W        W35228   0.309  10.791  14.835  0.0032  0.1706  0.0916
18381W        W35229  15.978   7.459  12.106 -0.1971  0.2549  0.3199
18382W        W35230  17.112  15.243  15.209 -0.0921  0.0642  0.2410
18383W        W35231   1.056   7.554  12.034 -0.1559  0.0574  0.1547
18384W        W35232   1.765   0.163  11.501 -0.1493 -0.0608 -0.0932
18385W        W35233   4.604   4.654  16.223 -0.1450  0.1150 -0.0483
18386W        W35234   3.208   6.558   0.027 -0.4070 -0.1195 -0.0165
18387W        W35235  17.077  15.989   0.315 -0.0033  0.0743 -0.2403
18388W        W35236   6.146   7.849   4.543  0.3146  0.5275  0.2170
18389W        W35237   5.740  12.193  13.539 -0.0955  0.0876 -0.0228
18390W        W35238  16.759  17.949   1.605  0.1600 -0.1005  0.2606
18391W        W35239   2.758   9.500   4.425  0.2711 -0.0717 -0.1841
18392W        W35240  12.157   4.433   5.079 -0.0127  0.0933 -0.1642
18393W        W35241   8.653  16.545   2.004 -0.1973  0.1049  0.0916
18394W        W35242  11.047   3.443   3.935  0.0195  0.0008  0.1594
18395W        W35243  17.851   5.083   4.861  0.1636 -0.1989 -0.4282
18396W        W35244  17.218   9.368   0.823  0.1569 -0.0399 -0.0195
18397W        W35245  11.212   9.084  13.344  0.0122 -0.2215  0.0772
18398W        W35246   4.553  12.926  13.209  0.0324 -0.2409 -0.0800
18399W        W35247   5.048  17.054   6.424  0.0569 -0.1247  0.2993
18400W        W35248  13.294  14.933   2.400 -0.2622  0.0741 -0.0606
18401W        W35249   1.294   8.813   1.205  0.1297 -0.4632 -0.1144
18402W        W35250   7.097  16.404   3.819  0.1458 -0.0688  0.0697
18403W        W35251  16.155  11.485  15.737 -0.1284  0.0056  0.0262
18404W        W35252  15.660   3.007  10.988 -0.3257  0.2657 -0.0670
18405W        W35253  10.754  13.382  11.700 -0.0688 -0.0567 -0.1231
18406W        W35254   2.416   8.861   1.176 -0.1234  0.1744  0.3785
18407W        W35255   8.876   5.578   1.279  0.0209  0.0584  0.1292
18408W        W35256  14.139   3.358   0.694  0.1863 -0.0416  0.1105
18409W        W35257   4.969   7.039   0.470 -0.1454  0.1131 -0.2736
18410W        W35258  15.729  13.330  11.934  0.3216 -0.0896 -0.1507
18411W        W35259  17.857   0.954  11.961  0.0382  0.1591  0.0471
18412W        W35260   7.293  12.226   1.907 -0.3602  0.1132 -0.0773
18413W        W35261   1.056  12.866  11.390 -0.0336  0.0803  0.1387
18414W        W35262  11.863  10.178   3.148 -0.0119  0.1966  0.1908
18415W        W35263   6.443  10.155  14.670 -0.0892  0.2096 -0.0376
18416W        W35264  11.618  10.690   1.618  0.2487  0.0493 -0.2143
18417W        W35265  11.339   0.156  13.631  0.0644  0.0033  0.0815
18418W        W35266  15.409  13.791   5.285  0.1498  0.3500 -0.2377
18419W        W35267   8.707   4.153  13.996  0.1337 -0.2244  0.0990
18420W        W35268   0.260  11.589  11.706 -0.0032 -0.2700  0.1853
18421W        W35269   8.910  16.584   1.560  0.3078 -0.0292 -0.1659
18422W        W35270   7.563  17.700   0.205 -0.1568 -0.2085  0.0302
18423W        W35271   8.310  14.134  11.932 -0.1408 -0.1699  0.2804
18424W        W35272  11.619  16.268  12.836 -0.1888  0.2569  0.1637
18425W        W35273   9.059  14.889   3.001 -0.0253 -0.0169  0.2314
18426W        W35274   4.203   5.609   3.435  0.4371 -0.3470  0.0375
18427W        W35275  10.842  14.509   3.868  0.0347  0.1713  0.3063
18428W        W35276  12.975   4.039  16.233 -0.2316  0.1440  0.0543
18429W        W35277  11.934   3.510   5.045 -0.0909  0.1887 -0.3127
18430W        W35278  14.815  11.486  14.405 -0.1282 -0.0353  0.0704
18431W        W35279  17.480   2.784  14.568  0.0603  0.0337  0.0729
18432W        W35280   5.829   9.840   1.034 -0.2478 -0.2704  0.1934
18433W        W35281  15.257  11.051   4.422  0.1183  0.1053  0.1563
18434W        W35282   9.493  13.660   5.236  0.0469 -0.1407  0.3990
18435W        W35283   2.850   3.040  13.696 -0.0296 -0.2108 -0.2516
18436W        W35284   1.552  10.873  10.976  0.0013 -0.0804  0.0616
18437W        W35285  17.059   3.593  13.950  0.0535  0.2310  0.1212
18438W        W35286   5.208  13.182   5.545 -0.2632  0.1592 -0.1015
18439W        W35287   3.731  10.147  14.257  0.1562  0.0904 -0.1542
18440W        W35288   8.639  12.076   4.386 -0.1495 -0.3784 -0.3601
18441W        W35289   2.076  12.677   0.418  0.1424 -0.0987  0.1698
18442W        W35290   5.211   8.277  12.091 -0.0946  0.1537  0.0372
18443W        W35291   0.096   9.900  13.289 -0.0685  0.1625  0.3726
18444W        W35292  17.385  13.897  14.379  0.5437  0.0466  0.0282
18445W        W35293   0.069   9.439  15.554 -0.1924 -0.0473  0.1917
18446W        W35294  10.170  13.265   2.163 -0.0048  0.0393  0.0529
18447W        W35295  15.743   0.876  14.090  0.5185  0.0767  0.2227
18448W        W35296   3.404  10.146  15.156  0.0431  0.1655  0.1968
18449W        W35297   3.678   9.130  14.350  0.0190  0.1415 -0.0899
18450W        W35298   9.953   5.088  13.013 -0.1322 -0.3687  0.0014
18451W        W35299   8.429  15.805   2.801  0.1348  0.0852 -0.0753
18452W        W35300   5.289   1.531   1.845  0.0835 -0.0901  0.1425
18453W        W35301   5.286   3.504  12.880 -0.0608  0.0592  0.0904
18454W        W35302   7.864   3.903  14.939 -0.0975 -0.2658  0.0575
18455W        W35303   0.455  13.130  15.972 -0.2418  0.0086 -0.1775
18456W        W35304   3.536   1.809   0.517 -0.1258 -0.0243 -0.0081
18457W        W35305   4.988  11.824   2.582  0.0242  0.2191 -0.0581
18458W        W35306   2.495  17.859   1.873 -0.1944 -0.0149  0.0951
18459W        W35307   3.053   0.234  16.206 -0.0609 -0.0302 -0.0881
18460W        W35308   0.563   2.966   3.482 -0.2622 -0.1834  0.0141
18461W        W35309  13.836   2.970  16.089 -0.0087 -0.0050  0.1600
18462W        W35310  14.999   1.149   4.500 -0.1743  0.0863 -0.0508
18463W        W35311  14.461   2.273  16.112 -0.0792 -0.2439  0.0984
18464W        W35312   3.200   3.700  12.024  0.0032 -0.2823 -0.0393
18465W        W35313  10.459   7.363   9.980 -0.2539  0.0781  0.0679
18466W        W35314   4.764   4.496   5.562 -0.0422 -0.1622 -0.0760
18467W        W35315   6.134  15.661   4.585  0.0461 -0.3363 -0.2811
18468W        W35316   1.742  10.424  11.919 -0.2653  0.2382 -0.0945
18469W        W35317   6.940   6.653   5.062 -0.2819  0.0606 -0.1300
18470W        W35318  16.465   5.243  11.436 -0.0423  0.0639 -0.2518
18471W        W35319  15.375  11.560   3.667  0.0040  0.2091  0.2162
18472W        W35320  17.100   5.330  12.490  0.1019  0.2086 -0.4048
18473W        W35321   3.535   0.227   4.354  0.0858  0.3968 -0.0972
18474W        W35322   9.733  14.415  14.227  0.0360  0.0819  0.1713
18475W        W35323  17.777   6.068   4.565 -0.2407 -0.0231  0.1016
18476W        W35324  17.737   9.274   3.351  0.0020  0.0653 -0.3377
18477W        W35325   0.526   1.026   3.597  0.0188 -0.0951 -0.0779
18478W        W35326  16.349   5.298   0.050 -0.4899  0.2060 -0.0178
18479W        W35327   1.255  15.613   0.162  0.2453  0.1598  0.0335
18480W        W35328   5.767  16.497   3.389 -0.1311  0.0116 -0.0170
18481W        W35329   2.264  13.749  12.008  0.1434  0.1221  0.1446
18482W        W35330  14.472  14.478  14.361 -0.1665  0.0660  0.0542
18483W        W35331   6.039   8.108  11.012  0.0328  0.3119  0.2233
18484W        W35332  15.479   6.506   3.452  0.0780 -0.1524 -0.3182
18485W        W35333   0.751  16.996   3.995 -0.0317  0.1563  0.1553
18486W        W35334  10.283  16.552  11.360 -0.0628  0.0529  0.2752
18487W        W35335   6.812   4.393   0.806  0.0257  0.0894 -0.1463
18488W        W35336   8.911   6.346   2.911  0.1022  0.0925  0.0202
18489W        W35337   5.844  17.277  14.074 -0.0001  0.0761 -0.1734
18490W        W35338   7.641  16.791   5.955 -0.2808  0.2800 -0.0610
18491W        W35339   5.411  17.701   0.422 -0.0002  0.0653 -0.1131
18492W        W35340  14.923  17.253   0.622 -0.1799 -0.0976 -0.0869
18493W        W35341  12.770  14.021  11.907 -0.2754  0.1872  0.0273
18494W        W35342  13.914   6.933   1.783  0.0077 -0.1467 -0.3696
18495W        W35343  17.524  16.244  12.933 -0.0440 -0.2488  0.0056
18496W        W35344  13.595   3.010   4.856 -0.0814 -0.3681 -0.0907
18497W        W35345   3.881   4.942  15.653  0.1265 -0.0982 -0.0245
18498W        W35346   4.198   6.850  12.918 -0.0472  0.2515 -0.2243
18499W        W35347  14.144  17.309  14.364 -0.0960  0.0933  0.2554
18500W        W35348  11.703   1.118   4.998 -0.1863 -0.1605  0.0133
18501W        W35349   1.819   7.283  14.349  0.3177 -0.2916  0.0628
18502W        W35350  13.033   2.561   2.883  0.3495 -0.0086 -0.0596
18503W        W35351  14.197   6.195  13.631 -0.3583  0.2629 -0.0226
18504W        W35352   3.261   1.416  12.696 -0.1497  0.1625 -0.1977
18505W        W35353  14.231  13.836  15.393  0.0311 -0.1219  0.2829
18506W        W35354   6.357   2.368   2.901  0.0513 -0.0208  0.0732
18507W        W35355  14.399  15.905  15.652 -0.0786  0.1605  0.1428
18508W        W35356  14.879  16.171  11.602  0.2983 -0.2652 -0.0480
18509W        W35357   2.293   3.475  16.261  0.2458  0.0163 -0.1258
18510W        W35358  16.760   4.956   5.174 -0.1548  0.0022 -0.2114
18511W        W35359  15.354  14.364   1.083 -0.1733  0.0465 -0.1538
18512W        W35360  13.874   9.865  15.515  0.0731  0.2676 -0.2259
18513W        W35361   3.637  16.199   3.687 -0.3481  0.0226 -0.0161
18514W        W35362   9.273   5.767  12.897  0.2041 -0.1977  0.2006
18515W        W35363  16.861   8.133  12.817  0.0088 -0.3766  0.1513
18516W        W35364  12.057   8.505   2.643  0.0565  0.2012  0.0018
18517W        W35365   0.907   6.814   2.575  0.1025 -0.0381 -0.2069
18518W        W35366  10.054   8.081   3.542 -0.0107 -0.0179  0.0503
18519W        W35367   7.362  11.783  15.281  0.0575  0.2468 -0.0609
18520W        W35368  15.958   0.367  13.138  0.1712  0.3077 -0.2160
18521W        W35369  16.484   6.495  12.868  0.1357 -0.2405 -0.4188
18522W        W35370  10.672   5.231   0.804 -0.0216 -0.1824 -0.0351
18523W        W35371  12.488   3.244  12.315 -0.1898 -0.0851 -0.3264
18524W        W35372   3.604  15.742  12.130  0.4536 -0.2885  0.0814
18525W        W35373  13.139   2.849   3.250  0.0633 -0.1646 -0.1232
18526W        W35374  14.556   3.485  14.856  0.0504  0.1454  0.2895
18527W        W35375  17.321  16.517  14.228 -0.0630  0.1432 -0.0349
18528W        W35376   4.805  14.082  11.600 -0.2760 -0.0675 -0.4160
18529W        W35377   5.229   8.204  13.994  0.2297 -0.0657  0.2775
18530W        W35378   9.965  14.886   6.305  0.1201 -0.0066  0.1508
18531W        W35379  15.073   3.039  12.758 -0.0646 -0.3002  0.2350
18532W        W35380   0.797  13.923   4.336  0.0869  0.3506 -0.1964
18533W        W35381  14.475  11.590   3.226 -0.0953  0.1073 -0.1279
18534W        W35382   9.531   8.605  14.453 -0.1807  0.1250  0.2450
18535W        W35383   2.414  11.534  15.686  0.0040 -0.0194 -0.1757
18536W        W35384   5.681   2.920  14.025  0.0369  0.2422 -0.2465
18537W        W35385  17.976  10.925   0.516 -0.1855  0.0360  0.1781
18538W        W35386  12.314  10.480  14.373 -0.0476  0.0114 -0.1568
18539W        W35387   3.746  16.751  12.661  0.1839  0.1595 -0.1812
18540W        W35388  13.684  16.497  14.696  0.0744 -0.0060 -0.0805
18541W        W35389   8.001   8.186  13.544 -0.1049  0.1323  0.0170
18542W        W35390   7.065   5.055  14.486  0.3312 -0.1205 -0.4010
18543W        W35391   5.470   4.098   3.058 -0.1305 -0.0214 -0.0506
18544W        W35392   3.945   3.795  14.192 -0.1244  0.1963 -0.0925
18545W        W35393   2.747   5.742  15.317  0.3741 -0.2782  0.1215
18546W        W35394  10.169   7.055  10.898  0.1306  0.1335  0.1921
18547W        W35395   2.523   0.771   5.395  0.2409  0.0895  0.1894
18548W        W35396   6.159  15.841   5.772 -0.3348 -0.1024  0.1634
18549W        W35397   8.412  14.082   2.514  0.0916  0.2863 -0.0127
18550W        W35398   1.601   2.452  12.920 -0.1832 -0.1949  0.1558
18551W        W35399  15.141  17.256   2.074 -0.3718  0.1247 -0.1805
18552W        W35400   3.312   6.986   0.219  0.2113 -0.1620  0.0313
18553W        W35401  15.889   4.872  16.271 -0.2761  0.1456 -0.1392
18554W        W35402   6.145   6.866   2.520  0.1925 -0.0564  0.1574
18555W        W35403  11.716   4.180  15.848  0.2296  0.3372 -0.0871
18556W        W35404   1.958   9.415   3.904  0.0202  0.1547 -0.2315
18557W        W35405   6.290   3.682  13.990  0.2479  0.1987  0.0668
18558W        W35406   1.527  16.578   0.474 -0.0096  0.4912  0.0166
18559W        W35407  17.199   2.906   3.450  0.0140  0.1141 -0.0262
18560W        W35408  16.105  13.854  13.308 -0.0122 -0.0813  0.0745
18561W        W35409  14.794  17.843  13.355  0.0289 -0.2292  0.4208
18562W        W35410   2.488   4.874   4.578 -0.0771 -0.1906 -0.1591
18563W        W35411   6.604   4.219   5.473 -0.0652 -0.2489  0.2504
18564W        W35412   2.441  17.529   2.223 -0.1235 -0.1566  0.0710
18565W        W35413   7.868  17.643  13.736 -0.0354  0.0771  0.0143
18566W        W35414  15.141  16.068  13.254 -0.0294 -0.0931 -0.1061
18567W        W35415   6.288   0.953  13.525 -0.1128  0.1231 -0.2637
18568W        W35416   7.319   7.262  12.288 -0.3039 -0.2605 -0.2783
18569W        W35417  15.880  17.882  11.885  0.2681  0.0427 -0.1688
18570W        W35418  12.934  16.302  14.912  0.0654  0.1502 -0.0519
18571W        W35419   8.847   4.132   0.212 -0.1779 -0.1303  0.1867
18572W        W35420  14.043   0.659   2.034 -0.2156 -0.1502 -0.1354
18573W        W35421   4.138   4.469  13.684  0.2135 -0.1032  0.0751
18574W        W35422  17.394  16.503   3.181  0.3206  0.1539 -0.1785
18575W        W35423   8.796   7.253   0.795  0.2793 -0.1826 -0.0180
18576W        W35424  15.448   0.523   2.824 -0.0006 -0.0338 -0.1224
18577W        W35425   6.433  11.181   4.949  0.0868 -0.1876 -0.2057
18578W        W35426  16.455   4.567   2.933 -0.0737  0.0217  0.0281
18579W        W35427   8.231  11.604  12.480 -0.1550  0.0101 -0.0151
18580W        W35428   6.694  11.850   0.204  0.0264 -0.0758 -0.2562
18581W        W35429  14.542   0.441  15.728  0.4636  0.1859 -0.0632
18582W        W35430   9.482  13.049   0.004  0.5888  0.1667  0.3313
18583W        W35431  13.995   3.880   0.831 -0.2943 -0.0899 -0.0783
18584W        W35432  16.140   3.338   3.966  0.0761 -0.1410  0.2283
18585W        W35433   0.526   1.909   3.581  0.2111 -0.1098  0.3178
18586W        W35434  15.876  18.002   1.517  0.1549 -0.0892 -0.0457
18587W        W35435  16.482   2.572  11.929  0.0342 -0.0050  0.3558
18588W        W35436  10.673  17.404   4.731  0.2733 -0.4620  0.0739
18589W        W35437  13.971  14.698   3.169 -0.0992 -0.0826  0.4268
18590W        W35438   1.152   2.347  14.885 -0.1475  0.1180  0.0835
18591W        W35439   6.017   7.875  13.438 -0.2269 -0.0503 -0.0587
18592W        W35440   1.208  16.498   1.253 -0.0465  0.1418  0.1948
18593W        W35441  16.065  11.377  11.282 -0.2289  0.2335 -0.2490
18594W        W35442  17.433  12.894  11.846  0.1502  0.0090 -0.1546
18595W        W35443  11.205   4.410  12.455  0.3094  0.2662  0.0921
18596W        W35444   7.815  16.527  13.518  0.0028 -0.1430  0.3379
18597W        W35445   8.817  15.244   4.334  0.2169 -0.0616 -0.3249
18598W        W35446  13.875  16.809  10.771 -0.1528  0.0459 -0.1292
18599W        W35447   2.464  10.050  11.159  0.3918 -0.2921 -0.3745
18600W        W35448   6.825   3.567   4.922  0.0775 -0.0484 -0.2761
18601W        W35449  11.356   3.423  15.962  0.0636 -0.1071  0.2535
18602W        W35450  17.616   4.307  13.674 -0.0891  0.4755  0.2099
18603W        W35451  12.891  14.570  13.948 -0.1010 -0.6026  0.1826
18604W        W35452   2.458   6.024   4.385 -0.1360  0.0099  0.2632
18605W        W35453   0.882   6.395   1.681 -0.2070  0.1299 -0.0283
18606W        W35454   6.572  10.337   0.677  0.3737 -0.2179  0.0303
18607W        W35455   1.845   7.032  15.810 -0.0329 -0.0041  0.0335
18608W        W35456   0.151  12.681  15.012 -0.0998  0.2369 -0.0906
18609W        W35457   0.201  12.719  12.875  0.0777  0.1002 -0.1090
18610W        W35458   3.554  11.597   2.258  0.1435  0.0948 -0.2552
18611W        W35459  14.616  14.246   1.848 -0.2039  0.0059  0.1526
18612W        W35460  10.110   7.293   0.262  0.0967 -0.2747  0.0607
18613W        W35461  15.822   3.811  10.448  0.1802 -0.1557 -0.2139
18614W        W35462  11.189   9.450  11.986 -0.3250 -0.0223 -0.0655
18615W        W35463   6.852   1.231   1.469  0.1191  0.1961  0.1842
18616W        W35464  11.552  12.830   3.722 -0.2731 -0.1312 -0.0885
18617W        W35465   2.183  11.276  11.889  0.0934 -0.0499  0.1577
18618W        W35466   1.779   3.261  12.387 -0.1237  0.0905  0.0131
18619W        W35467   9.258   3.995  14.669 -0.0648 -0.2032 -0.0901
18620W        W35468   8.649   4.254  13.382  0.0947 -0.0883  0.4833
18621W        W35469   9.704   0.049  14.021  0.1551 -0.1233 -0.1047
18622W        W35470  17.047  15.173  11.750 -0.0810  0.1688 -0.1032
18623W        W35471   4.346  12.079  11.407  0.1035 -0.0568 -0.0827
18624W        W35472  10.192   4.251  11.368 -0.1502  0.1194 -0.0622
18625W        W35473  17.355   6.928  15.565 -0.2382  0.1296 -0.0373
18626W        W35474  10.431   4.252   2.826  0.1633  0.1308 -0.0514
18627W        W35475  10.831   0.090  12.677 -0.0178 -0.2187  0.1476
18628W        W35476   1.786   3.677  12.042  0.1303  0.0244 -0.0617
18629W        W35477   1.737  14.472   0.770 -0.1299  0.0554 -0.2072
18630W        W35478   4.457   0.366   4.107  0.1800 -0.0540 -0.0060
18631W        W35479   2.682  18.037  11.754  0.0092 -0.0411  0.0989
18632W        W35480   1.108  12.158  16.108 -0.0526 -0.0394  0.1503
18633W        W35481   6.912   9.530   4.525  0.0563 -0.1750  0.0879
18634W        W35482  15.428   8.282  13.208  0.1003 -0.3039  0.0364
18635W        W35483   4.709   3.058   4.878  0.1853  0.3078  0.0491
18636W        W35484  13.426   3.787   2.265 -0.1046 -0.0597  0.0041
18637W        W35485   8.751   9.317  13.262  0.1268  0.1553  0.0675
18638W        W35486   2.158   3.575  13.376  0.0659  0.2176  0.1617
18639W        W35487  17.758  15.950  13.450  0.1422 -0.1690  0.0164
18640W        W35488   2.756   1.569   3.155 -0.2826 -0.1918  0.4547
18641W        W35489   0.845   4.418  12.874 -0.1435  0.0496  0.1053
18642W        W35490  15.466   3.753  15.291  0.0526 -0.2626  0.1542
18643W        W35491  12.192   3.920   1.799 -0.1697  0.0965  0.2051
18644W        W35492   2.473   5.872  13.195  0.0957  0.0497 -0.0160
18645W        W35493  15.331  14.620   4.321 -0.1000  0.0676 -0.1518
18646W        W35494   9.828  15.479  15.598  0.1862 -0.0007  0.3291
18647W        W35495  11.574   7.607  12.476  0.2012  0.1119  0.0486
18648W        W35496  14.822   8.639   4.642 -0.2903  0.0581 -0.0755
18649W        W35497   8.374   8.441   0.614  0.0839 -0.0246  0.0829
18650W        W35498   3.134   3.984  13.740 -0.1949 -0.2374  0.4538
18651W        W35499  16.162  11.582   4.677  0.4306  0.1815  0.1120
18652W        W35500   6.638   4.049  14.165 -0.1355 -0.0439  0.3818
18653W        W35501   4.574   4.746   3.236 -0.0319 -0.0708 -0.0168
18654W        W35502  15.728   2.356   3.531  0.0476 -0.3850 -0.1711
18655W        W35503  10.358   4.140   2.294  0.0833  0.2897  0.0446
18656W        W35504  17.102  17.503  15.464 -0.3084 -0.0274  0.0845
18657W        W35505   8.370   9.169   2.267 -0.3026 -0.1090  0.0062
18658W        W35506   9.609   8.275  13.362  0.2726 -0.0989 -0.1130
18659W        W35507  15.382   7.860   1.739 -0.1733 -0.0251  0.1555
18660W        W35508  13.268  17.910  16.147  0.0918  0.0351 -0.1061
18661W        W35509   3.046   0.107   2.769 -0.2719  0.0626 -0.1368
18662W        W35510  16.560  11.223  12.534  0.2120  0.2247 -0.0338
18663W        W35511  11.316  13.890  13.692  0.0106  0.0701  0.1266
18664W        W35512   2.666   2.660   3.129  0.0092 -0.1470  0.0116
18665W        W35513   7.427  10.092  14.738  0.0146  0.0431 -0.3645
18666W        W35514  13.973   8.921  14.206 -0.0368 -0.2702 -0.1237
18667W        W35515   4.922  17.627   4.179 -0.0630 -0.0218 -0.1046
18668W        W35516   4.888  15.193  12.010 -0.0687 -0.1280  0.2258
18669W        W35517  14.536  16.766   2.404  0.0878 -0.3293  0.4417
18670W        W35518  11.290   5.884   3.020 -0.2565  0.2554 -0.0659
18671W        W35519  16.220   4.510  12.067  0.1421 -0.1442 -0.2203
18672W        W35520  10.242  15.239   5.363  0.0758 -0.1609 -0.4415
18673W        W35521   0.066   0.597  13.162 -0.1800 -0.0246 -0.3648
18674W        W35522  13.737  17.794  11.484 -0.1207 -0.0393 -0.0999
18675W        W35523   8.327   9.087  15.771 -0.2351  0.1891 -0.0475
18676W        W35524  10.620  16.338  14.234 -0.2826 -0.3729 -0.0102
18677W        W35525  10.231  15.123   0.192  0.1935 -0.1290 -0.3361
18678W        W35526   9.722  12.008   4.824  0.0968 -0.1119  0.4401
18679W        W35527  15.883   6.257  14.513 -0.0181  0.0695  0.3232
18680W        W35528   8.019  13.210  14.642  0.4177  0.2964  0.0636
18681W        W35529  14.356   0.774   2.716  0.0580 -0.4064 -0.2260
18682W        W35530  15.268  16.831   2.811 -0.0824  0.0470  0.0926
18683W        W35531  10.859  11.024   2.637  0.0140 -0.2582 -0.0712
18684W        W35532  14.271  11.954   2.924 -0.2196  0.0517 -0.2666
18685W        W35533   3.054   5.924   0.140  0.3287 -0.0193  0.0070
18686W        W35534   3.517  15.083   4.615 -0.0390 -0.3395  0.1330
18687W        W35535  13.250  13.273  14.221 -0.1868  0.0136  0.0664
18688W        W35536   6.495  16.234  11.996 -0.0501 -0.0701  0.1579
18689W        W35537  11.809  14.883   3.464  0.0906  0.2360 -0.1668
18690W        W35538  11.504  10.371   2.866 -0.3302 -0.1403 -0.1165
18691W        W35539   9.001   8.302  15.627  0.0125 -0.0950 -0.1159
18692W        W35540   1.942   7.786   6.332  0.3248  0.1895  0.2080
18693W        W35541  17.089   3.904   1.986 -0.4604  0.3068 -0.1990
18694W        W35542  12.939   0.336   3.738  0.1193  0.1310  0.0865
18695W        W35543   6.847   2.537  13.332  0.0078  0.0298 -0.2565
18696W        W35544   6.103   3.866   4.814  0.0476 -0.0663 -0.3487
18697W        W35545  14.155   9.892  12.565 -0.2065 -0.0248 -0.4699
18698W        W35546  16.715   1.679   5.625  0.0612 -0.1043  0.1258
18699W        W35547   4.291   5.050   5.085 -0.2381  0.0899  0.1293
18700W        W35548  13.673   2.290  13.962  0.1506  0.0946 -0.0080
18701W        W35549  15.160  13.004   4.767 -0.2758  0.0225  0.2443
18702W        W35550   1.794   7.672  12.565  0.2628 -0.1796 -0.0322
18703W        W35551  13.692   0.004  14.750 -0.0247 -0.1321 -0.0721
18704W        W35552   9.655  10.267   3.694  0.0020 -0.0627  0.1834
18705W        W35553   4.889   5.641  11.872  0.0740  0.3645  0.0562
18706W        W35554  14.748  16.356   2.198  0.0691 -0.1800 -0.0673
18707W        W35555  13.224  15.218   0.719 -0.0030  0.2238 -0.1589
18708W        W35556   0.385   1.209  14.002 -0.3252  0.3553 -0.2017
18709W        W35557  11.527  14.577   0.771  0.1633 -0.0772  0.2054
18710W        W35558   9.264  10.535   3.596 -0.1354  0.0051 -0.0271
18711W        W35559  13.625  16.981  14.973 -0.0643  0.0643  0.1152
18712W        W35560   8.627   3.745   1.633  0.0597  0.1430  0.1921
18713W        W35561   2.748   4.938  13.484 -0.2396 -0.0562 -0.0583
18714W        W35562   8.166  17.169   4.146  0.0249 -0.1734  0.0065
18715W        W35563  17.584   8.195   2.646 -0.4304  0.1601  0.1380
18716W        W35564  12.857   3.407   3.127 -0.0752 -0.0084 -0.0606
18717W        W35565  15.268  11.757   0.174  0.1626  0.1074 -0.0402
18718W        W35566   7.804   5.814   2.500 -0.2066  0.1512 -0.0113
18719W        W35567   5.140  17.178  12.502  0.1891 -0.2868  0.0689
18720W        W35568   4.120  17.372   0.480  0.1954  0.0707 -0.2019
18721W        W35569   7.727  16.396  14.686  0.2000  0.1445  0.2578
18722W        W35570   9.397   5.813  16.214 -0.2078  0.1136  0.3147
18723W        W35571  13.712   7.936  12.358 -0.1043 -0.0378  0.2841
18724W        W35572   7.219  11.541   4.132  0.1699  0.1759  0.0926
18725W        W35573   2.276  12.428  10.159  0.1754 -0.0203 -0.0978
18726W        W35574  11.343   7.807  14.696  0.1400 -0.3688  0.0099
18727W        W35575   8.378  14.740  12.716 -0.0149  0.1449 -0.0990
18728W        W35576  13.177  11.597  11.399 -0.0546 -0.0759  0.1019
18729W        W35577   4.585   6.911   3.721  0.1009 -0.0348 -0.2266
18730W        W35578  14.286  16.178   1.595  0.3844 -0.1432  0.2998
18731W        W35579   4.797   0.693  12.292  0.2968  0.0576 -0.1454
18732W        W35580   1.849   5.938  13.813 -0.1109  0.0953  0.0983
18733W        W35581  10.505   8.315   4.416  0.0867  0.0577  0.1461
18734W        W35582  15.722  10.041   4.500  0.3255 -0.2519 -0.0618
18735W        W35583  10.037  13.514  14.146  0.1281 -0.1949  0.4566
18736W        W35584  10.011  17.764  14.292  0.1440  0.0692 -0.2678
18737W        W35585   5.604  11.373   4.997  0.0485  0.0109 -0.1808
18738W        W35586   5.925   2.793  10.703 -0.0367 -0.0376 -0.0816
18739W        W35587   1.940  17.940   4.013 -0.2458  0.0624 -0.0984
18740W        W35588  13.288  16.047  10.887 -0.1172  0.1245 -0.5858
18741W        W35589   0.343   6.800  10.928 -0.0755 -0.1033  0.1627
18742W        W35590  10.327  12.144  12.306 -0.1051  0.2946 -0.0832
18743W        W35591   8.883   8.262   5.208 -0.1096  0.2986 -0.1626
18744W        W35592   2.027   9.333   5.425  0.0973 -0.0874  0.0809
18745W        W35593   9.197  16.476   0.634 -0.0554  0.0603  0.1619
18746W        W35594   3.185   8.800  11.402 -0.1054 -0.0486  0.1120
18747W        W35595   8.154   8.440   4.617 -0.1757  0.0854 -0.2262
18748W        W35596  12.170  12.507   4.794  0.3348 -0.1869  0.3793
18749W        W35597   9.836   2.523  14.740  0.0020  0.0265  0.2128
18750W        W35598  16.283  11.088   4.823  0.0190  0.0678  0.0750
18751W        W35599   1.406   9.316   3.296  0.0298 -0.0606  0.0731
18752W        W35600  10.389   3.447  16.231  0.1052  0.1789 -0.2867
18753W        W35601  17.727  10.614   0.772  0.0319 -0.1611  0.0112
18754W        W35602   2.472   4.917   1.045 -0.5047 -0.0275  0.0235
18755W        W35603  12.071  10.972  11.318 -0.2757 -0.0996 -0.1453
18756W        W35604  15.292  13.474   1.469 -0.0865  0.0634 -0.2453
18757W        W35605   3.387  14.165   4.965  0.0530 -0.0990 -0.2010
18758W        W35606  10.088   8.543  16.201  0.0706  0.2047 -0.2280
18759W        W35607  13.201  17.322  14.563 -0.1879  0.1835  0.2350
18760W        W35608   3.593  16.431  15.057  0.0492 -0.1443  0.0075
18761W        W35609  11.038   8.560   3.652 -0.1483  0.0161  0.1139
18762W        W35610  14.546  15.096  10.829 -0.2663 -0.0585  0.1804
18763W        W35611  15.470   4.763  15.039 -0.4906  0.1684  0.1380
18764W        W35612   7.979   5.842   4.557  0.0880 -0.1173  0.1400
18765W        W35613   8.487  12.762   3.505 -0.1670 -0.4000  0.0055
18766W        W35614  15.871   1.112   1.019 -0.0291 -0.1811  0.1541
18767W        W35615  17.778  15.539   0.952  0.4011  0.0994 -0.3683
18768W        W35616   8.908   7.761   0.493 -0.0008  0.0969  0.0685
18769W        W35617   0.593  14.703  15.409  0.0475  0.0182 -0.0537
18770W        W35618   9.922  16.590  12.212  0.2398  0.1842  0.0340
18771W        W35619   1.602   8.519   1.476  0.0260  0.1529  0.1455
18772W        W35620  16.992  12.143  12.424  0.2195 -0.1001  0.1613
18773W        W35621   6.821  13.843   5.272  0.0882 -0.0850 -0.4194
18774W        W35622  10.224  11.498   2.721  0.0588 -0.3885 -0.0019
18775W        W35623  10.031  13.450   4.747 -0.0035 -0.0029  0.2928
18776W        W35624  12.298   1.259   3.479 -0.0069 -0.2573  0.1036
18777W        W35625   9.389   7.076   3.366  0.0787  0.2423  0.0139
18778W        W35626   5.237  15.928   0.435 -0.3486 -0.2266 -0.1584
18779W        W35627   7.920   1.921  13.536  0.2586  0.0403  0.1665
18780W        W35628  12.449   4.883  15.028  0.3067  0.2483  0.0153
18781W        W35629   8.276  15.046  12.241 -0.1318  0.0146 -0.1715
18782W        W35630  16.111  12.710   2.638 -0.0030 -0.0596 -0.3507
18783W        W35631  12.536  10.145  14.085 -0.0626  0.0569 -0.0503
18784W        W35632  18.016  15.210   4.838 -0.0202 -0.1878  0.0202
18785W        W35633  16.922  10.551   0.602 -0.4476 -0.0675  0.1117
18786W        W35634  15.462   1.258  16.115  0.0640  0.1697  0.0847
18787W        W35635   9.801  11.282  12.056 -0.1367 -0.1845  0.0216
18788W        W35636   3.221  15.993   2.648  0.0098  0.0616  0.0626
18789W        W35637  10.549   2.104  13.488  0.5898  0.2391  0.0190
18790W        W35638  17.450   7.277   2.814  0.0268 -0.1667 -0.2263
18791W        W35639   3.047  10.978  15.063 -0.1553  0.0741  0.1607
18792W        W35640  10.869  15.334  14.993 -0.0691 -0.0741  0.0252
18793W        W35641   4.911  16.310  14.542 -0.1399  0.0367  0.2374
18794W        W35642   9.523   8.305   4.232 -0.3197  0.3176  0.2746
18795W        W35643   1.108  18.027   2.996  0.0222 -0.0390  0.1798
18796W        W35644  15.366  13.854  14.348  0.0226  0.2698 -0.3924
18797W        W35645  15.735  16.952   4.564 -0.0562 -0.0539 -0.1561
18798W        W35646   8.449  14.252  15.399  0.0435  0.1442 -0.2878
18799W        W35647   6.251  17.898   1.677 -0.0780  0.0953  0.1311
18800W        W35648   7.307  16.381  14.280  0.2339 -0.1151 -0.2307
18801W        W35649   6.903   2.933   2.107 -0.1046  0.0519 -0.2675
18802W        W35650  15.845   1.325  14.747 -0.1206  0.0257  0.1948
18803W        W35651  16.241  16.764  14.595  0.0235 -0.0860  0.2831
18804W        W35652   3.235  10.569  10.300 -0.1921  0.0468 -0.0281
18805W        W35653  15.354   2.000  15.788 -0.0935 -0.0824  0.1374
18806W        W35654  12.375  13.509   1.540 -0.1292  0.2644 -0.2381
18807W        W35655   4.425  17.626  14.430 -0.0566 -0.0089 -0.3032
18808W        W35656  10.894   6.854  11.775  0.0278  0.0470 -0.0219
18809W        W35657   7.608  11.873  11.683  0.1077  0.0625 -0.1093
18810W        W35658   1.890   2.850   3.385 -0.1833 -0.0492 -0.0692
18811W        W35659  14.395  12.190   4.775 -0.2263 -0.0137  0.0645
18812W        W35660   1.538   3.985  11.637 -0.2984 -0.0905 -0.0062
18813W        W35661   5.755   0.617  12.277 -0.2220  0.0670 -0.2364
18814W        W35662  11.137   9.561   0.892  0.0707  0.1210  0.1691
18815W        W35663  17.662  13.452  15.558  0.2761  0.1609 -0.1829
18816W        W35664   7.329  11.867   0.739  0.5881 -0.0407 -0.1534
18817W        W35665   4.100  17.653   2.349  0.3182  0.0946  0.0948
18818W        W35666   8.359  15.496  11.905  0.0289 -0.0542  0.0183
18819W        W35667  10.551   3.592  13.718 -0.0794 -0.1167 -0.2886
18820W        W35668  11.851  11.473   4.902  0.0616 -0.0730  0.2126
18821W        W35669   0.547   4.002  15.746 -0.0596 -0.2112 -0.0151
18822W        W35670   3.410  15.350   1.897  0.1140 -0.1540  0.2914
18823W        W35671  15.148   9.683  15.948  0.0116 -0.3147 -0.3164
18824W        W35672  13.010  18.000  11.934 -0.0566  0.0441  0.1102
18825W        W35673   9.857   3.046   0.607 -0.0344  0.1469 -0.1436
18826W        W35674   3.316   3.750   4.669 -0.0890 -0.0922 -0.0840
18827W        W35675  17.275   9.282  14.060  0.0230  0.0077 -0.0776
18828W        W35676   1.093  10.881  15.155 -0.1160 -0.0917  0.1042
18829W        W35677   8.297  15.727   2.343  0.2181  0.0860  0.1544
18830W        W35678  13.176   8.247  14.570  0.1569  0.1410 -0.0249
18831W        W35679  13.864   8.363  13.228  0.1752 -0.0960  0.2312
18832W        W35680  11.347   4.820  11.202 -0.1081 -0.2285  0.0455
18833W        W35681   4.635  12.351  13.211 -0.2968  0.2701 -0.0727
18834W        W35682   5.590   7.061  13.047  0.0917  0.3306 -0.1925
18835W        W35683  17.174  16.259   0.721  0.0132  0.0850 -0.2716
18836W        W35684  13.851   1.703   2.071 -0.0709  0.3202 -0.1904
18837W        W35685  17.565   9.001  14.382  0.1626 -0.0209  0.0508
18838W        W35686   3.819  11.613  15.124  0.2391  0.0263 -0.1761
18839W        W35687  15.161   9.164  14.143 -0.1889  0.3522  0.2855
18840W        W35688   1.270   2.294   0.820 -0.4355  0.0324 -0.2236
18841W        W35689   1.091   8.361  16.082 -0.2504 -0.1463 -0.1549
18842W        W35690   8.133   7.795   0.117  0.1426  0.2379  0.0977
18843W        W35691   0.040  14.181  14.886  0.0891 -0.1887  0.0612
18844W        W35692   7.141  14.607   0.862 -0.2470  0.1037 -0.0832
18845W        W35693   2.218  11.528   4.480  0.0275 -0.0523 -0.1178
18846W        W35694   3.430   8.677  13.326  0.4244  0.1659  0.2459
18847W        W35695  15.744  17.033  14.711 -0.3241 -0.1570 -0.2699
18848W        W35696   1.079   3.091   3.065  0.1494  0.3805  0.3277
18849W        W35697  14.516   0.702  12.828  0.1914 -0.2473  0.0668
18850W        W35698  16.460   2.059   3.300  0.0392  0.0495  0.0898
18851W        W35699  11.759   1.099  13.356  0.2778 -0.2211  0.0316
18852W        W35700   9.048  17.488   1.659  0.4913  0.3851 -0.0420
18853W        W35701  16.385  10.055  13.354 -0.0473  0.3620 -0.3308
18854W        W35702  10.241  13.325  16.071 -0.0576 -0.3002 -0.1211
18855W        W35703  15.251  12.099   3.563  0.1733 -0.3305  0.1455
18856W        W35704   3.367   3.374  11.639  0.2861 -0.2252  0.1119
18857W        W35705  12.665   9.213  13.527  0.0438  0.0237 -0.1218
18858W        W35706   3.889   7.982  12.471  0.2763 -0.0261  0.0063
18859W        W35707   1.501   7.163   2.091 -0.0469 -0.0411  0.1469
18860W        W35708  17.762   6.668  10.754  0.0795  0.2932 -0.1896
18861W        W35709  12.359   8.209  11.351  0.1311  0.3017  0.2110
18862W        W35710   3.551   0.344   0.660 -0.0259 -0.0023  0.2824
18863W        W35711   3.461   0.491   3.877 -0.3266 -0.0858 -0.1398
18864W        W35712   9.532  11.919   3.868 -0.0474 -0.2609 -0.1764
18865W        W35713  10.337   9.392  14.582  0.1113 -0.0761 -0.3239
18866W        W35714   7.898  17.926   4.521  0.0649 -0.0715  0.1981
18867W        W35715   6.322   2.653   4.263  0.1344  0.0356 -0.2590
18868W        W35716  12.699   5.936  14.948  0.0782  0.1055  0.2359
18869W        W35717  12.379  12.132  12.853  0.0448  0.0604 -0.0813
18870W        W35718  14.773   3.930   3.117  0.1240 -0.2609 -0.1874
18871W        W35719   3.505  14.529   1.329 -0.1907  0.0063  0.1349
18872W        W35720   2.697   0.397  15.188 -0.0037 -0.0980  0.1242
18873W        W35721   6.804   7.547   6.056  0.1560 -0.0253  0.0724
18874W        W35722   9.859   7.103  15.099 -0.1313 -0.1603 -0.1347
18875W        W35723   3.435  10.672  15.004 -0.2590  0.0923  0.1723
18876W        W35724  11.163   1.308   0.619  0.0199 -0.1392 -0.3871
18877W        W35725   5.447  10.535   0.662  0.0265 -0.1133 -0.0178
18878W        W35726   9.611   5.911  12.118  0.1317  0.0145 -0.0312
18879W        W35727   6.674  16.622  12.237 -0.1667  0.1560 -0.0462
18880W        W35728   9.888   9.253  14.347 -0.1417 -0.2104  0.0495
18881W        W35729   5.256   9.445   1.750  0.1757  0.0576 -0.2052
18882W        W35730   5.553   5.963  13.054  0.1920  0.0170 -0.0444
18883W        W35731  17.525  17.283  15.306 -0.3941 -0.1882 -0.0670
18884W        W35732  10.325  11.751   3.183  0.2349  0.2992 -0.1669
18885W        W35733  10.664   8.956   3.552 -0.0554  0.1509 -0.2796
18886W        W35734   3.851   2.302   2.652 -0.1298 -0.0174  0.1324
18887W        W35735  16.078  17.817   2.992 -0.2731  0.0847 -0.3069
18888W        W35736  11.391   9.870   9.970  0.1003 -0.0683 -0.0440
18889W        W35737  16.608  17.335  11.826  0.0407  0.2989  0.0146
18890W        W35738   9.794  12.423  13.230 -0.1358 -0.2137  0.2099
18891W        W35739   4.907  10.478   5.685 -0.2773  0.1323  0.1872
18892W        W35740  15.216   3.250   3.710  0.0807  0.4211 -0.1930
18893W        W35741  15.646  15.855  11.930  0.1781  0.1706 -0.3758
18894W        W35742  14.217   0.222  11.279  0.3052 -0.1544 -0.0623
18895W        W35743  15.896   6.772  15.610 -0.0410 -0.1540 -0.1077
18896W        W35744   2.780   2.322   1.866 -0.2847 -0.4554 -0.3994
18897W        W35745  14.738   0.569  11.262  0.1193 -0.1586  0.0065
18898W        W35746  14.644  16.285  10.771 -0.0202 -0.3386  0.1452
18899W        W35747   3.716   2.897  15.205  0.1951  0.1042  0.0834
18900W        W35748   5.569   0.049   5.573  0.2972 -0.2093  0.1337
18901W        W35749  14.905  11.169  13.813 -0.1768 -0.2644  0.3773
18902W        W35750  10.097  13.319  12.602  0.0744  0.1582 -0.0104
18903W        W35751  13.245   0.687   5.169  0.1570  0.1634 -0.3201
18904W        W35752   1.259   2.934  14.875  0.1518  0.0386 -0.0474
18905W        W35753  14.698   6.156  15.556 -0.0496  0.2174 -0.0768
18906W        W35754   9.697   0.255   5.177  0.0949 -0.1519  0.1935
18907W        W35755   6.341   2.925  12.586 -0.0785 -0.1969 -0.1942
18908W        W35756  10.223   6.456   4.032  0.1127 -0.0608 -0.1223
18909W        W35757  13.661   1.128   4.645 -0.1962  0.1143  0.1901
18910W        W35758   2.405   3.562   1.572  0.1234  0.0335 -0.2696
18911W        W35759   1.256   4.159  13.748  0.3258 -0.0866  0.1498
18912W        W35760  17.212  13.299   2.722 -0.4662 -0.2675 -0.1003
18913W        W35761   3.960   6.756  14.607 -0.0568  0.2491 -0.2516
18914W        W35762  10.040   8.578   1.378 -0.1122 -0.1371  0.1987
18915W        W35763  15.683   1.441  12.118  0.0652 -0.3178 -0.1082
18916W        W35764   5.220   6.111   9.999 -0.0535  0.1549  0.0411
18917W        W35765  13.912   6.624  15.534 -0.3054 -0.2458  0.1741
18918W        W35766  13.757   0.395  15.795  0.1094 -0.0184 -0.0116
18919W        W35767  10.287   1.058   1.900  0.0546 -0.0590  0.3178
18920W        W35768   4.145   2.865   4.971 -0.1583  0.0361  0.0990
18921W        W35769   4.650   5.032   1.349 -0.1933  0.0575 -0.0533
18922W        W35770  13.589  14.794  13.433  0.0637  0.1212 -0.2514
18923W        W35771   5.657  16.570  14.083 -0.0748  0.0707  0.2526
18924W        W35772   2.758  15.994   2.850 -0.0529 -0.3952 -0.0659
18925W        W35773   5.204   1.075   0.941 -0.1993  0.0491  0.1108
18926W        W35774  13.019  14.425  15.968  0.1788  0.1098 -0.1056
18927W        W35775   5.594   1.368  15.901  0.1317  0.1023 -0.2060
18928W        W35776   8.488  15.337   3.841  0.0175 -0.1114  0.0289
18929W        W35777   7.660   7.742  15.361 -0.0202  0.2047  0.0214
18930W        W35778   5.330   3.709   2.808 -0.3375  0.1416 -0.2064
18931W        W35779  16.101   5.688  11.342  0.1150 -0.0354 -0.0292
18932W        W35780   3.478  10.434  10.716 -0.0220  0.1056  0.1194
18933W        W35781  10.305   4.270   3.343  0.0704 -0.3510 -0.1789
18934W        W35782   3.842   4.184  15.026  0.0995 -0.0961  0.2083
18935W        W35783  14.256   0.570  12.447 -0.0159 -0.0764  0.3698
18936W        W35784  17.126  12.605   0.541 -0.4484 -0.0641 -0.0806
18937W        W35785   5.480  10.622  13.100 -0.4361 -0.1684  0.0676
18938W        W35786   5.322   8.650  14.665 -0.1287  0.2143 -0.1097
18939W        W35787   2.750   1.394  13.004 -0.1538 -0.0835  0.1076
18940W        W35788  17.260  13.326  11.882 -0.0432  0.0718  0.2510
18941W        W35789   2.521   4.097   5.018  0.2082 -0.0238 -0.0324
18942W        W35790  17.314  15.393  12.757  0.0454 -0.3426 -0.0366
18943W        W35791   4.907   0.175   1.624 -0.2326 -0.0017 -0.2270
18944W        W35792   1.638   7.502   1.687 -0.0373  0.2175 -0.2079
18945W        W35793   1.787  13.469   4.403 -0.0996 -0.1418 -0.0968
18946W        W35794   5.261   7.479   1.996  0.1676  0.2786  0.4056
18947W        W35795  11.212  12.980   3.372  0.0805  0.2634  0.1045
18948W        W35796   1.481  16.731  14.751  0.1945  0.1816 -0.0761
18949W        W35797  13.496   6.329  14.753 -0.0631 -0.0035 -0.0606
18950W        W35798  17.523   7.169   0.921 -0.0320  0.2835 -0.0682
18951W        W35799   6.278  12.662  16.259 -0.0420  0.3931 -0.1753
18952W        W35800   0.154   2.097  14.714  0.1914  0.1026  0.1026
18953W        W35801  12.858  13.683   1.340  0.1047  0.2447  0.2705
18954W        W35802   4.179   5.525   0.970  0.2483 -0.2063  0.1105
18955W        W35803   8.277  16.625  11.517 -0.0161  0.4550 -0.0747
18956W        W35804  10.708  14.797   0.152  0.0330  0.0533 -0.0072
18957W        W35805  12.179   7.893   4.457 -0.1363 -0.1704  0.3129
18958W        W35806   3.252   1.725   1.390  0.2120  0.0464  0.0765
18959W        W35807  16.812  15.892   2.701 -0.3106  0.0038 -0.1192
18960W        W35808   7.436   5.499   1.194 -0.1088  0.0095 -0.2059
18961W        W35809   2.905  15.694   3.349 -0.0170  0.0370 -0.2141
18962W        W35810  16.384  17.393   1.103  0.0347  0.4598  0.1933
18963W        W35811  15.555   6.880  13.735 -0.0165 -0.0424 -0.0835
18964W        W35812   6.732  12.205   2.558 -0.0056 -0.1697  0.2613
18965W        W35813   4.417   8.604   4.898 -0.3339  0.1749  0.0626
18966W        W35814  13.856  13.729  14.731 -0.0928 -0.0008 -0.0833
18967W        W35815   3.233  16.832  13.862  0.0929  0.5234  0.0497
18968W        W35816   0.651  17.944  13.679 -0.0109  0.2132 -0.0135
18969W        W35817   5.680   9.940  14.274  0.0267  0.0063 -0.0853
18970W        W35818   9.126  13.713   4.904 -0.0549  0.3433  0.3481
18971W        W35819  13.588  12.427  12.339 -0.3326  0.3120 -0.1903
18972W        W35820   7.605   5.403   0.017  0.1027  0.0118 -0.3639
18973W        W35821  14.550  12.225  15.847 -0.1383  0.2297  0.0390
18974W        W35822  15.701   9.309   5.390 -0.0835  0.0492  0.0735
18975W        W35823  14.803   9.434   0.732 -0.1014  0.1391  0.0900
18976W        W35824  12.584  11.541   0.267 -0.3026 -0.1246  0.0874
18977W        W35825  12.120   0.877   1.036  0.1049 -0.1214 -0.5045
18978W        W35826  13.500  12.609   4.887 -0.2086 -0.0381 -0.1070
18979W        W35827   8.326  14.526   0.484  0.2606  0.0130  0.0601
18980W        W35828  12.285   6.421   1.696  0.2707  0.1101  0.0207
18981W        W35829   5.447   4.285   4.416 -0.2060 -0.1534  0.1618
18982W        W35830   9.090  11.682   3.948  0.1834  0.0106 -0.1569
18983W        W35831   5.655  16.870   0.029 -0.1109 -0.3514  0.2161
18984W        W35832   7.117   8.777   1.888  0.0357  0.3109 -0.0360
18985W        W35833   3.576   4.466  15.508  0.1309  0.3329 -0.0221
18986W        W35834  13.738  16.836  12.996  0.1880 -0.1352 -0.0056
18987W        W35835   2.758  14.396  13.643  0.0209  0.0819  0.0872
18988W        W35836   6.495   1.580   1.465  0.0546  0.0346 -0.1305
18989W        W35837   8.734   3.612  13.276  0.0912  0.2234 -0.0808
18990W        W35838  16.712  14.534   1.408 -0.1975  0.3675  0.0112
18991W        W35839   6.597  17.798  15.796 -0.2452 -0.1389  0.0031
18992W        W35840  14.547   5.298  12.737 -0.1543 -0.0572 -0.2193
18993W        W35841  16.968  16.814  10.861  0.1670 -0.4242 -0.0113
18994W        W35842  10.362   5.919  11.905 -0.1812  0.0948  0.2627
18995W        W35843  16.290   8.404  14.330  0.1861  0.1941  0.0763
18996W        W35844  12.443   1.890  11.090 -0.1539 -0.1494 -0.3663
18997W        W35845   1.497  15.803  14.198 -0.1705 -0.0806  0.3279
18998W        W35846  11.028  14.375  15.003  0.1428 -0.3026 -0.1559
18999W        W35847   9.377   2.079  11.053  0.0006  0.2239 -0.0065
19000W        W35848   9.812  15.397   1.647  0.0001 -0.2375  0.0203
19001W        W35849  13.407   7.916  14.141 -0.1618 -0.0221 -0.1249
19002W        W35850   8.218   2.033   1.080  0.0086 -0.2444 -0.0599
19003W        W35851   7.148   1.346  15.668 -0.2226  0.3436 -0.1104
19004W        W35852  13.334   2.771  11.841  0.0564 -0.4003 -0.1162
19005W        W35853  14.785   8.605  14.292  0.0528  0.0862 -0.1876
19006W        W35854  15.447   8.356  11.108 -0.1366 -0.0517 -0.2192
19007W        W35855   3.528  13.853  15.436  0.1667 -0.4398  0.1450
19008W        W35856  15.567  10.444  15.059  0.0465 -0.1372 -0.0824
19009W        W35857  10.689   4.954   3.259 -0.1216  0.1977 -0.0614
19010W        W35858   5.484   1.693  15.115  0.1858 -0.1223  0.0436
19011W        W35859   4.479  11.845   4.331 -0.1105 -0.1703 -0.2740
19012W        W35860  15.402   4.879  10.073  0.1816 -0.2700  0.1194
19013W        W35861  15.838  17.559  15.117  0.1831  0.1594 -0.0816
19014W        W35862   2.598   3.419   2.075  0.0031 -0.1069  0.2792
19015W        W35863  10.858   1.579   4.884 -0.1132  0.3942  0.1649
19016W        W35864   0.414  14.874   3.658 -0.3044 -0.1592 -0.1168
19017W        W35865   0.944   5.562   0.354  0.3184 -0.1335  0.2385
19018W        W35866   9.871  16.365  11.572  0.0004 -0.3520 -0.0959
19019W        W35867  11.054  13.344  14.169  0.1086  0.0313 -0.1274
19020W        W35868   3.847  12.668  14.640  0.1389  0.0363 -0.2059
19021W        W35869   8.778  14.221   4.367  0.1004  0.0358  0.4178
19022W        W35870  12.421   4.170  13.607 -0.0674 -0.0659 -0.0691
19023W        W35871   9.352  14.431  16.273 -0.3743 -0.1952  0.1312
19024W        W35872  16.878  11.629  12.649 -0.1409  0.2162  0.3739
19025W        W35873  13.530  10.242   3.655 -0.0082  0.1040  0.0422
19026W        W35874  13.069   0.719  14.509  0.4704  0.0366  0.2792
19027W        W35875  12.358  17.809  15.397 -0.0562  0.1867 -0.0831
19028W        W35876   7.922   5.379   3.360  0.0936 -0.1180 -0.2345
19029W        W35877  10.503   5.908  10.414  0.0433 -0.1031  0.1710
19030W        W35878  17.129   4.814  11.220  0.1587 -0.0542  0.0732
19031W        W35879  12.805   4.259   1.209  0.0507  0.0202  0.1015
19032W        W35880   4.504   3.701  12.402  0.2120 -0.0513  0.0534
19033W        W35881   1.214   7.525  13.552  0.1167  0.0868 -0.2191
19034W        W35882   6.290  13.975   5.280 -0.1563 -0.0496  0.1670
19035W        W35883  14.739   0.071   4.227 -0.2728  0.0624 -0.2846
19036W        W35884  15.965   2.667   3.863  0.0539 -0.1492  0.0368
19037W        W35885  13.922   4.346   1.009  0.0417  0.0157 -0.0951
19038W        W35886  17.253   8.361  12.456  0.1735 -0.1192  0.0158
19039W        W35887  17.271   9.365  15.682  0.2674  0.2935 -0.0011
19040W        W35888   6.722   7.336  13.843 -0.2508 -0.1006  0.0891
19041W        W35889  17.580   0.184  11.390 -0.0221 -0.0671 -0.2614
19042W        W35890   5.393  10.132   1.071  0.0793  0.2796 -0.1294
19043W        W35891  11.964  14.137   0.569  0.0561 -0.2587  0.1946
19044W        W35892  17.794  12.276  11.816 -0.0354 -0.0970 -0.1269
19045W        W35893  17.012   2.815   2.250 -0.0444 -0.2399 -0.0224
19046W        W35894   2.032  12.081  11.705  0.1474 -0.1086 -0.1336
19047W        W35895   4.620  16.588   3.890  0.1523 -0.2485 -0.1014
19048W        W35896   1.567   3.998  15.850 -0.0089 -0.2129 -0.1551
19049W        W35897   5.408  15.717  13.861  0.1423  0.0506 -0.1574
19050W        W35898  14.948  12.705   1.570 -0.0791 -0.1140  0.2634
19051W        W35899   6.860  13.545  15.475  0.0246 -0.1355  0.0979
19052W        W35900  10.324  16.739   0.437 -0.1613 -0.2813 -0.1303
19053W        W35901  11.588  15.339  11.235  0.1262 -0.0689  0.0049
19054W        W35902  12.710  16.118  13.629  0.1205 -0.0319  0.3621
19055W        W35903   4.795  10.043   1.083 -0.0829 -0.1715 -0.1945
19056W        W35904  13.564  12.030  10.599  0.0837 -0.3534  0.1392
19057W        W35905   7.207   2.850   4.570  0.1750 -0.1801  0.0307
19058W        W35906  11.844   9.417  12.529 -0.1594 -0.4651 -0.1972
19059W        W35907  17.785  11.959   0.151  0.2528 -0.0175  0.2107
19060W        W35908   9.353  10.713   2.681  0.1760  0.2071  0.1856
19061W        W35909  15.378  10.925  15.163  0.3174  0.3602  0.0456
19062W        W35910  13.450   2.685  16.032  0.0638  0.0969  0.0192
19063W        W35911   4.359   7.397  13.310  0.1002  0.0522  0.2161
19064W        W35912   2.027  10.727  13.055  0.0664  0.2396 -0.0377
19065W        W35913   1.976   0.719   2.004  0.2027 -0.2295 -0.3897
19066W        W35914  10.085   4.230  12.883  0.0895  0.0041  0.1444
19067W        W35915   7.690   8.171  14.517 -0.2857  0.0093 -0.1147
19068W        W35916  13.576  15.532   1.911  0.0411 -0.2288 -0.1256
19069W        W35917   5.670   6.290  12.193 -0.0010 -0.1149  0.0406
19070W        W35918   3.004  14.194  15.713 -0.2389  0.2687  0.0606
19071W        W35919   4.102   3.257  14.225 -0.1015  0.0943  0.3488
19072W        W35920  13.422   6.533  11.039  0.1788  0.1013  0.0774
19073W        W35921   4.370  11.860   3.480 -0.0001 -0.0213 -0.0354
19074W        W35922   5.063  10.500   3.012  0.3214  0.0089 -0.0546
19075W        W35923   3.194   8.720  12.826 -0.1330 -0.1233 -0.2031
19076W        W35924   7.762  13.611   0.112  0.0078 -0.0634 -0.1172
19077W        W35925   0.255   2.590   2.887  0.1711 -0.3017 -0.1044
19078W        W35926  12.941   9.266  11.732 -0.1622  0.0894  0.1285
19079W        W35927   2.983  14.033   2.661 -0.2461  0.1316  0.3016
19080W        W35928  11.062  17.496  16.076 -0.1776  0.0180  0.1239
19081W        W35929  11.871  17.730  15.566  0.0233 -0.0019 -0.3493
19082W        W35930  15.716  11.239   3.335  0.1541 -0.1040  0.4671
19083W        W35931   6.416   3.752  11.321  0.3165 -0.0322 -0.1285
19084W        W35932   4.902   5.899   5.021  0.0486 -0.1310  0.2305
19085W        W35933   2.735  14.019  10.774  0.1366  0.1305  0.0507
19086W        W35934  15.191   1.522  14.189 -0.0799  0.1487  0.0884
19087W        W35935   4.962  14.089   0.954 -0.0340 -0.0110  0.0896
19088W        W35936   7.731  11.076   2.632  0.3642  0.1817  0.0299
19089W        W35937   9.042   1.158  15.333 -0.3723 -0.0193  0.3015
19090W        W35938   5.452  15.496   2.062 -0.1523 -0.1492  0.1292
19091W        W35939   9.044  16.218   3.339  0.3608 -0.0721 -0.0704
19092W        W35940   9.922   2.327  14.285  0.0936 -0.3796  0.2195
19093W        W35941  12.064  16.052  14.063 -0.2004 -0.0489  0.0212
19094W        W35942   9.994  16.976   4.404  0.0439 -0.2620 -0.1249
19095W        W35943   9.453   7.303  11.693  0.2013 -0.0095  0.2000
19096W        W35944  10.481   3.539  15.353  0.0656  0.2503 -0.2351
19097W        W35945  17.436  15.950   0.990 -0.3545  0.0322  0.0821
19098W        W35946   1.150   4.910   1.497 -0.2182 -0.1865 -0.1933
19099W        W35947   3.729   8.055   1.778  0.2035  0.2858 -0.1357
19100W        W35948  11.296   3.979   2.498  0.2916  0.2217  0.0547
19101W        W35949   3.218  14.225  11.504 -0.2497  0.0165 -0.1930
19102W        W35950   2.735  11.441   3.275 -0.0926 -0.0565 -0.2562
19103W        W35951   5.160   5.541   1.525 -0.0275 -0.2703 -0.1335
19104W        W35952  17.155   1.265   2.302 -0.0154  0.0726  0.2572
19105W        W35953   9.129  10.072   0.788  0.2943 -0.1330  0.0864
19106W        W35954   3.852   2.461   1.165 -0.2049  0.2956 -0.2072
19107W        W35955   5.030  15.554  15.298 -0.1147  0.0125  0.1131
19108W        W35956  17.867   9.023  10.480  0.2552  0.1113  0.0833
19109W        W35957   4.301   3.382   4.803  0.3084 -0.0178 -0.4028
19110W        W35958   9.451   8.673  12.964 -0.0025  0.3958 -0.2038
19111W        W35959  10.434  14.218  15.644  0.0787  0.1293 -0.0461
19112W        W35960  15.142  16.624  13.122  0.1547  0.0219  0.3283
19113W        W35961   6.473  16.794   1.640 -0.2901  0.5016  0.0384
19114W        W35962   7.909   0.144   2.427 -0.1997 -0.0350 -0.2853
19115W        W35963  14.756  12.818   3.179 -0.3411  0.1398 -0.0909
19116W        W35964   4.561  17.949   2.038 -0.0096 -0.1005 -0.0203
19117W        W35965  12.845   2.841  12.487 -0.0993 -0.5981 -0.3535
19118W        W35966  16.939   5.302   3.533 -0.0431  0.1350 -0.1989
19119W        W35967  10.870   5.074   3.785  0.1556  0.1189 -0.0567
19120W        W35968  12.611  17.632   4.885  0.3337  0.1182  0.1442
19121W        W35969  10.377   1.752   2.478  0.1414  0.2235  0.1075
19122W        W35970  16.070  10.818  14.526  0.0782  0.1023  0.1238
19123W        W35971  10.628   7.169   4.906  0.1252 -0.0425 -0.2572
19124W        W35972   0.120   5.477   3.580 -0.0312  0.1749  0.1937
19125W        W35973   8.705  15.281  14.930  0.2029 -0.0324  0.0956
19126W        W35974   2.940   5.975   0.845 -0.1738  0.3291 -0.0896
19127W        W35975   5.657  10.401  12.194 -0.0902  0.0195  0.1823
19128W        W35976  16.568   8.752  11.466 -0.2193  0.0735  0.1351
19129W        W35977   0.608  12.125   0.850 -0.0082  0.5849 -0.0540
19130W        W35978   6.092   9.444  12.070 -0.0625 -0.2605 -0.0135
19131W        W35979   3.697  12.922  12.037 -0.1163 -0.2137 -0.1621
19132W        W35980   9.188  15.175  13.992 -0.2041  0.0533  0.1867
19133W        W35981   2.906  12.934  13.126 -0.2782  0.1862  0.0784
19134W        W35982   1.455   2.748   3.174  0.0883 -0.1833  0.1840
19135W        W35983  13.277  17.355  13.101  0.1318 -0.1460 -0.1216
19136W        W35984  15.176   4.392   0.663  0.2769  0.1529 -0.4384
19137W        W35985  16.728  14.898   0.347  0.1995  0.0878  0.3238
19138W        W35986   8.562   3.631   5.259  0.2088 -0.1254 -0.0735
19139W        W35987  11.919  15.242  15.783 -0.1170 -0.0607 -0.0139
19140W        W35988  15.929   4.098   2.366 -0.1438  0.2835 -0.1217
19141W        W35989   2.056   9.693   2.523  0.1784 -0.0890  0.1077
19142W        W35990   3.771   3.398  13.511  0.2581  0.0429 -0.2614
19143W        W35991  16.934   9.411  13.674  0.1046 -0.1329 -0.0553
19144W        W35992  16.664  11.508   1.675 -0.2781  0.2664  0.1280
19145W        W35993   0.090   8.560   3.950 -0.1244  0.0227  0.0488
19146W        W35994  15.032   7.780  15.959  0.0169  0.1342 -0.2151
19147W        W35995   4.333   2.994   4.450 -0.1130 -0.0556 -0.1348
19148W        W35996   8.686  14.551   1.757  0.3257  0.3433  0.0771
19149W        W35997   1.478  15.067   4.794 -0.0219 -0.1523  0.0223
19150W        W35998   1.052  10.993   1.519 -0.0013 -0.0095  0.0635
19151W        W35999   4.366  17.379  12.087  0.3273  0.0483 -0.2426
19152W        W36000   4.232   4.122   1.293  0.0283  0.0380  0.1164
19153W        W36001  12.003   2.501   5.158 -0.4093 -0.1454 -0.1984
19154W        W36002   5.450   7.845   3.271 -0.1326 -0.1721  0.1678
19155W        W36003  17.772   4.411   2.902  0.0843 -0.1323  0.1376
19156W        W36004   4.583   1.832   1.828  0.0772  0.1622 -0.2054
19157W        W36005   2.445  10.948  13.968 -0.0884  0.0018 -0.1319
19158W        W36006   0.094   1.779   4.874  0.0050 -0.3247 -0.1261
19159W        W36007  12.679  14.106   0.459 -0.0194  0.0626 -0.0146
19160W        W36008  11.760   1.811  14.204 -0.0461 -0.0318 -0.1963
19161W        W36009  15.604   4.235   4.384 -0.4447  0.0367 -0.1679
19162W        W36010   0.170   0.904  15.746 -0.1788  0.0432  0.2722
19163W        W36011   4.913  12.581  12.491  0.0251 -0.0701  0.0184
19164W        W36012  16.655  10.249  15.005  0.0044  0.1473 -0.0785
19165W        W36013  18.020   4.048   0.107  0.1308  0.0285 -0.1525
19166W        W36014  17.060  13.303   1.775 -0.0433  0.2981  0.1086
19167W        W36015   8.907  16.707  15.729 -0.2640 -0.0899 -0.0322
19168W        W36016  14.574   2.861   2.925  0.1668  0.1393 -0.1431
19169W        W36017   1.259   5.932   3.693 -0.2549  0.0974  0.3348
19170W        W36018  12.651   2.889   3.100 -0.0389  0.3388  0.1924
19171W        W36019  12.954  10.048   4.444  0.2631 -0.1501 -0.0776
19172W        W36020   8.973  10.153  15.623 -0.1214 -0.6514 -0.0660
19173W        W36021  16.644   2.104   2.602  0.0331 -0.0862 -0.1443
19174W        W36022  17.283  11.552   1.449 -0.0087 -0.0740 -0.0312
19175W        W36023  11.632   9.964  14.307  0.0106 -0.0774  0.3645
19176W        W36024   2.272   1.131   1.822  0.2342 -0.2339 -0.0879
19177W        W36025   9.116  16.683   0.112  0.0569 -0.3314 -0.2590
19178W        W36026  15.706   6.506   3.949  0.0697 -0.0020  0.1255
19179W        W36027   2.845  14.770   4.195  0.2057 -0.0282 -0.1690
19180W        W36028  14.329  13.554  13.747  0.3647 -0.0451  0.0579
19181W        W36029   0.275  10.674   2.189 -0.0390  0.1788  0.1782
19182W        W36030  11.211  17.178   0.636 -0.1280 -0.0514 -0.1945
19183W        W36031   9.027   6.862   1.633 -0.0550 -0.1845 -0.3843
19184W        W36032  17.934   7.252  16.063  0.0317 -0.1136 -0.1979
19185W        W36033   3.888   4.260   4.802  0.1524  0.0252  0.1667
19186W        W36034   2.810   4.415  15.519 -0.0815 -0.0515  0.1068
19187W        W36035   4.617   1.441  11.570  0.1155 -0.1350 -0.0434
19188W        W36036   0.442   5.027  14.761 -0.0984  0.2180 -0.1152
19189W        W36037   8.507  13.048   4.849 -0.1183  0.0577 -0.2241
19190W        W36038   9.147   8.185  12.809 -0.0288  0.2677  0.1408
19191W        W36039   1.912   8.155  13.565 -0.1981  0.1231 -0.0029
19192W        W36040  13.168   0.753  12.494 -0.2910  0.3324  0.0720
19193W        W36041  14.734   7.686  12.318 -0.0276 -0.0316 -0.1735
19194W        W36042  13.010  16.479   5.194  0.2635 -0.2056 -0.4221
19195W        W36043   3.422   3.091   2.118  0.4100 -0.1416  0.1901
19196W        W36044   8.709   4.169   2.495  0.1743 -0.0148  0.2494
19197W        W36045  12.093   9.661  14.272  0.2841 -0.2030  0.0036
19198W        W36046   7.055  13.078   3.443  0.0856 -0.0343  0.1226
19199W        W36047   1.762   7.618  13.166  0.1404 -0.3129  0.0833
19200W        W36048   9.871   5.037   5.088  0.1117 -0.0929  0.0833
19201W        W36049  11.263   2.803   5.519  0.1232  0.2818  0.0590
19202W        W36050   3.918  16.131  15.527  0.1478  0.2701 -0.2658
19203W        W36051   0.356  12.228  14.828 -0.2352  0.0842 -0.4038
19204W        W36052   2.627   6.070   1.642  0.2201 -0.4102 -0.3607
19205W        W36053  17.174  17.698   4.299  0.3217 -0.2797 -0.0347
19206W        W36054   7.304  13.383   0.392  0.0740 -0.2079  0.0494
19207W        W36055   7.559   9.909  13.660 -0.2819  0.2353 -0.2516
19208W        W36056  16.467   4.037  12.454 -0.3873  0.1321  0.3049
19209W        W36057   8.732   4.087  10.138 -0.3315 -0.1529 -0.2140
19210W        W36058   4.693   8.814  13.285 -0.2254  0.1393 -0.1499
19211W        W36059  13.936  10.482  13.430 -0.1288 -0.1655  0.2574
19212W        W36060   5.880  10.001   3.906 -0.3141  0.1380  0.0660
19213W        W36061   1.538   9.805   0.895  0.2127  0.0742  0.2735
19214W        W36062   1.341   8.482   3.106  0.0491 -0.1260 -0.2176
19215W        W36063  15.626   6.486  13.314 -0.0117 -0.1201  0.1045
19216W        W36064   1.643   7.371   3.977  0.1274 -0.2708  0.0113
19217W        W36065  14.272  17.201  12.873  0.1752 -0.0149  0.1397
19218W        W36066  14.729  15.538  12.152 -0.0689  0.2374  0.1201
19219W        W36067  17.867   4.360  12.915 -0.1777  0.2197  0.2821
19220W        W36068   8.387   9.206  13.718 -0.0422  0.1596  0.1312
19221W        W36069   3.839   9.759   4.264  0.0802 -0.1368 -0.2822
19222W        W36070  10.612  16.498  14.709 -0.0088 -0.1911  0.0968
19223W        W36071   5.923  11.394  11.825 -0.0368 -0.2821  0.0911
19224W        W36072  13.444   9.995   4.213  0.1950  0.0021  0.2395
19225W        W36073   9.005  16.829   2.333  0.0351  0.2584 -0.4210
19226W        W36074   9.950  17.205   4.871 -0.0867 -0.1907  0.1651
19227W        W36075   3.890   9.250   1.226 -0.2207 -0.2119 -0.0225
19228W        W36076   8.475   1.906   3.074 -0.1676  0.1229  0.2040
19229W        W36077  15.701   0.319  13.858 -0.0171 -0.1784  0.1547
19230W        W36078   7.956  14.630  12.080  0.2149 -0.2109  0.0903
19231W        W36079   3.601  13.395  11.847 -0.1149  0.2036  0.0417
19232W        W36080  11.981   5.769   2.386  0.1037 -0.3803  0.0493
19233W        W36081  11.220  12.829   6.045  0.0910 -0.0337  0.1263
19234W        W36082   2.935  11.240   4.967  0.1393  0.2593 -0.0232
19235W        W36083   7.740  16.789   3.239  0.2467 -0.0238  0.0451
19236W        W36084   9.369  16.209   0.261 -0.0644 -0.2072  0.1492
19237W        W36085  12.160   9.620  11.660  0.0698 -0.4448 -0.2127
19238W        W36086   1.474   2.182   2.458  0.0222 -0.0261 -0.2024
19239W        W36087  17.271   4.653   0.494 -0.0200  0.4387 -0.1448
19240W        W36088   1.741  10.999  13.285 -0.0562  0.2226  0.1041
19241W        W36089   7.322  11.551  12.721 -0.2102 -0.1154  0.2722
19242W        W36090  11.379   4.575  14.311  0.0407  0.2041 -0.0155
19243W        W36091   7.954   2.903  15.226 -0.3476 -0.2140  0.2461
19244W        W36092  11.258  13.052  12.810 -0.0548 -0.2803  0.2014
19245W        W36093   1.384   0.893  11.635 -0.1580 -0.2451 -0.2017
19246W        W36094   2.889  14.288   2.170  0.0162 -0.3327  0.4332
19247W        W36095  16.951  17.329   2.783 -0.1211  0.1606 -0.0800
19248W        W36096  16.300  10.455  12.291 -0.0540 -0.0221 -0.1276
19249W        W36097   8.065  16.119  13.737 -0.1587 -0.1360  0.3267
19250W        W36098   8.692   9.646   5.042 -0.1842 -0.1830  0.0883
19251W        W36099   4.553  12.213   1.605 -0.0525  0.1993 -0.1220
19252W        W36100   8.308  13.658   0.243 -0.0783  0.4164  0.0932
19253W        W36101  16.813   8.680  12.903  0.0460  0.0027 -0.1161
19254W        W36102   2.140  11.088  15.476  0.1409 -0.0759  0.3178
19255W        W36103  17.409   1.055   0.616  0.1582  0.1641 -0.0469
19256W        W36104   7.594   1.705   3.303  0.1696  0.1244  0.2348
19257W        W36105  15.473   0.231  15.422 -0.2273 -0.1651 -0.3237
19258W        W36106   1.774  11.225   4.534 -0.1486 -0.2091 -0.1047
19259W        W36107   7.992  16.587  15.152  0.1496 -0.0265 -0.1143
19260W        W36108  10.808   9.200  14.543  0.3745 -0.0780  0.1391
19261W        W36109  14.241   2.887   2.490 -0.1920  0.3150 -0.0740
19262W        W36110   7.834  13.132  11.473 -0.2774 -0.0487  0.2667
19263W        W36111   2.316   3.884   5.444  0.1337 -0.0995 -0.2437
19264W        W36112   3.019  17.092  14.679 -0.0289 -0.1057 -0.0341
19265W        W36113   7.110   6.135  14.762  0.1658  0.0253 -0.0825
19266W        W36114  10.448  17.590  11.917  0.0958 -0.0282 -0.0997
19267W        W36115   3.332   4.298   3.412  0.4082 -0.2126  0.0050
19268W        W36116   8.488   6.376  16.046 -0.0865  0.3580  0.1824
19269W        W36117   2.499   9.360  13.086 -0.0410 -0.2130  0.1663
19270W        W36118  11.570   7.282  14.279  0.0699 -0.2466  0.0435
19271W        W36119  10.772   5.648   1.096 -0.0268  0.1450 -0.1562
19272W        W36120  12.638   5.549   4.169  0.1916 -0.0107  0.2665
19273W        W36121   4.049  11.034  15.672  0.2273  0.0539 -0.2342
19274W        W36122  15.276  14.440  12.512 -0.1595 -0.1627  0.1286
19275W        W36123  12.148  11.681  14.102 -0.1248  0.0080 -0.1643
19276W        W36124  17.284   9.750   3.034  0.0015 -0.0442  0.3169
19277W        W36125  15.279   9.785   1.537 -0.1089 -0.0351  0.2251
19278W        W36126   6.661   0.962   3.454 -0.0128 -0.2331 -0.1119
19279W        W36127   5.689   8.216  14.802 -0.0077  0.1095  0.0171
19280W        W36128  14.802   2.261   2.653  0.0963  0.1218  0.1768
19281W        W36129   6.086   4.465  14.288  0.0939  0.2322 -0.0833
19282W        W36130   2.573   9.299  14.960  0.0758  0.1143  0.1112
19283W        W36131   5.253  15.524  12.092  0.1138  0.2664 -0.0157
19284W        W36132  17.191  12.575   4.752  0.1461 -0.1279  0.4039
19285W        W36133   8.843   2.999   0.784 -0.0966  0.0498 -0.0677
19286W        W36134   3.253  15.500  13.344 -0.1669 -0.0409  0.1720
19287W        W36135   9.222  16.474  13.861 -0.0670  0.2195 -0.0035
19288W        W36136   0.728  12.509   4.622  0.2328 -0.1525  0.1637
19289W        W36137  15.652  11.991  14.283  0.3830  0.2068  0.0027
19290W        W36138  15.742  12.791   0.406  0.0376  0.2291 -0.1613
19291W        W36139   4.696   4.868   1.853 -0.1274 -0.1817 -0.0912
19292W        W36140   9.265   4.518   1.022  0.5538 -0.3086 -0.0965
19293W        W36141  13.676  11.787  12.573 -0.1247  0.0515 -0.0169
19294W        W36142   3.061  17.661   2.099 -0.0723 -0.1639  0.1936
19295W        W36143  13.484  10.363  14.748  0.0220 -0.1464 -0.0986
19296W        W36144  16.448  11.616  12.966  0.2732 -0.0323  0.0147
19297W        W36145   2.623   6.524  11.709 -0.2437  0.0245  0.1301
19298W        W36146   9.148   2.180   0.069  0.1545 -0.0003 -0.0051
19299W        W36147   2.810   0.006   0.793  0.0362 -0.2453  0.1341
19300W        W36148  10.962  14.658  13.650  0.2376  0.3765 -0.0133
19301W        W36149   4.674  14.203   3.218 -0.1929 -0.2022 -0.1780
19302W        W36150  13.822   2.756   3.856 -0.0881 -0.0293  0.1123
19303W        W36151   8.202   3.742   3.072 -0.0397 -0.0053  0.0072
19304W        W36152   1.726  12.957   3.005 -0.1802 -0.0401  0.0044
19305W        W36153  11.870  15.525   5.292 -0.0171 -0.1094  0.1680
19306W        W36154   2.678   5.880   5.251  0.2647 -0.2112 -0.1129
19307W        W36155  11.932   3.750   1.345 -0.0107  0.0422 -0.1162
19308W        W36156   6.102  16.691  13.324  0.0998  0.0925  0.1741
19309W        W36157  15.242   4.439  13.758 -0.0582  0.0614  0.1626
19310W        W36158   1.809  15.430   4.865  0.0564 -0.2069  0.2659
19311W        W36159   5.391  11.080   1.784  0.4871  0.0585  0.0315
19312W        W36160   4.824   9.625  12.105 -0.0339  0.1495 -0.2586
19313W        W36161   9.036  14.373   2.346  0.2358  0.0246  0.0400
19314W        W36162   6.659  12.434   0.743 -0.0174  0.0100 -0.2331
19315W        W36163   2.775  16.269  10.816 -0.0074  0.0961 -0.1633
19316W        W36164  12.628   1.554  14.578  0.1645 -0.0448 -0.0872
19317W        W36165   6.098  17.024  11.594  0.0427  0.2372  0.1978
19318W        W36166   5.457  17.778   2.164 -0.2282  0.0862 -0.2101
19319W        W36167   0.514   0.176  11.608 -0.2470  0.0129  0.0810
19320W        W36168   2.672  13.493  12.240 -0.0931  0.0856 -0.2497
19321W        W36169   6.361  17.949   4.976 -0.1516  0.0442  0.1474
19322W        W36170  17.286  12.608  13.337  0.0365  0.1475 -0.2706
19323W        W36171  15.737  11.526   1.208 -0.0077 -0.5468 -0.2239
19324W        W36172  14.904   8.986   1.097 -0.1104 -0.1510 -0.0884
19325W        W36173  16.983   5.906  13.361  0.2732 -0.0243  0.1082
19326W        W36174   8.267   8.425  15.002 -0.2858 -0.1226 -0.1008
19327W        W36175   0.491  15.253   3.241  0.0305  0.2935  0.1676
19328W        W36176  13.819  18.009   0.743  0.2252  0.0027  0.0000
19329W        W36177   2.287  11.615  11.483  0.3565 -0.0214 -0.2418
19330W        W36178  11.302  17.387  11.667  0.1123  0.1807 -0.1146
19331W        W36179   0.135   9.353   0.951 -0.0679  0.0667  0.0964
19332W        W36180  17.749   0.502  11.729  0.0663 -0.0444  0.0307
19333W        W36181  17.775  15.053  15.792  0.0958  0.0004 -0.3440
19334W        W36182   5.783  12.326  13.038 -0.3419 -0.1889  0.1120
19335W        W36183  10.638  14.399  14.545  0.0847  0.2120 -0.2133
19336W        W36184  10.526   6.102   1.794  0.2088  0.1426  0.1379
19337W        W36185   4.130   3.932   4.441  0.0582  0.1866  0.0986
19338W        W36186  10.548   4.453  15.441 -0.1033  0.1338  0.1047
19339W        W36187   3.010  13.247   4.473  0.1676  0.0772 -0.0565
19340W        W36188   9.664  17.231   3.757 -0.1251  0.1936  0.0953
19341W        W36189  13.574   5.128  12.710  0.3001  0.4264 -0.0110
19342W        W36190  17.161  10.249  15.294 -0.1153 -0.0852  0.1757
19343W        W36191   9.559   4.296  13.199  0.3878  0.2853 -0.0515
19344W        W36192   3.805  13.231  13.355 -0.2712  0.2610  0.2214
19345W        W36193   1.207   8.942   2.962  0.1089  0.0254 -0.0040
19346W        W36194   3.287  15.309   0.952  0.0864  0.1844 -0.0597
19347W        W36195  15.959   9.374  13.026 -0.1034 -0.0194 -0.1949
19348W        W36196  13.237   7.622   1.633  0.0637 -0.4109  0.1315
19349W        W36197   6.271   7.620   3.688 -0.4065 -0.0628  0.0773
19350W        W36198   2.047   0.409   1.358 -0.1737 -0.0397  0.0401
19351W        W36199   9.040   5.144   1.390  0.1032 -0.0660  0.0302
19352W        W36200   4.228   8.467  11.991 -0.1869  0.2855  0.0147
19353W        W36201  11.537  17.561  15.103  0.0127  0.1717 -0.0843
19354W        W36202  10.306   1.141  14.549 -0.0622  0.0600 -0.1518
19355W        W36203   0.628   5.412   3.748  0.3578 -0.1859 -0.0015
19356W        W36204   1.038   8.198  13.119  0.2042 -0.0984  0.2593
19357W        W36205  17.874   1.240   4.171 -0.0090 -0.2073  0.2569
19358W        W36206   8.420   8.141   5.414  0.1642 -0.0552 -0.0330
19359W        W36207  15.795  13.813  11.316  0.1338 -0.2519  0.3783
19360W        W36208   4.375  12.465  11.833 -0.0551  0.3427 -0.2446
19361W        W36209   9.192  17.941  13.240  0.1398  0.2620  0.1464
19362W        W36210  15.509  17.440  13.233 -0.1498 -0.1331 -0.1782
19363W        W36211  16.798  16.825   1.413 -0.0313 -0.2814  0.0440
19364W        W36212  17.094   3.394  15.115 -0.2358 -0.0108  0.2074
19365W        W36213   9.704   9.972   2.280  0.1909  0.0724 -0.0516
19366W        W36214  10.214  13.913   3.325  0.3282  0.0900 -0.2308
19367W        W36215  10.947   4.309  14.332 -0.0871  0.2132 -0.4282
19368W        W36216   2.239   8.121  14.364 -0.1590  0.1701  0.0926
19369W        W36217   4.761   7.768  15.086  0.0185 -0.1316 -0.1895
19370W        W36218  10.748  11.028  13.377  0.3982  0.0264  0.2116
19371W        W36219  10.742   5.931   2.172  0.2653  0.0318 -0.0803
19372W        W36220  12.491  12.708  14.137 -0.0440  0.3171 -0.2169
19373W        W36221   3.562   2.627   2.047  0.0455  0.0856  0.1277
19374W        W36222   8.768   5.918   3.578  0.0476 -0.0148 -0.0743
19375W        W36223   3.461  11.446  13.286  0.0667 -0.0681  0.1795
19376W        W36224   0.539   8.345  13.842  0.1916 -0.0041  0.0970
19377W        W36225  17.199   5.681  11.233 -0.0570 -0.3553  0.0486
19378W        W36226   5.393   2.224   5.531  0.1210  0.0892 -0.0057
19379W        W36227  12.078   0.225   5.899  0.1000  0.1002  0.1025
19380W        W36228   4.205   0.751  13.218 -0.1106  0.1306  0.3079
19381W        W36229   8.321   5.371   0.573 -0.1307 -0.1649  0.0020
19382W        W36230  15.346  13.038  14.949 -0.3719  0.1428 -0.1437
19383W        W36231  15.919  13.809   4.052  0.2477 -0.1929  0.3578
19384W        W36232  12.237  12.145  11.685 -0.1925 -0.1508  0.1715
19385W        W36233  12.319  14.217   3.748 -0.3584  0.0891 -0.0131
19386W        W36234   9.965   3.139   6.172  0.0186  0.0562  0.4291
19387W        W36235   2.309  10.287  13.183 -0.1014  0.1096  0.2171
19388W        W36236   0.670   6.216  14.046 -0.0993  0.0378  0.1633
19389W        W36237  15.424   3.565  12.178  0.1711 -0.3458  0.1099
19390W        W36238   3.742  12.661   0.201  0.0594  0.0066  0.2198
19391W        W36239  12.909  11.420   4.644 -0.0167  0.0121  0.0459
19392W        W36240   9.007   3.828  13.782  0.0798 -0.2399 -0.2823
19393W        W36241  13.350   6.303   3.224 -0.3429 -0.1987 -0.1315
19394W        W36242   9.608   3.792  13.299  0.1449  0.2401  0.0253
19395W        W36243   6.546   2.203   0.303 -0.3693  0.0479  0.3204
19396W        W36244  16.235  10.954  12.283 -0.0152  0.1360 -0.4156
19397W        W36245  14.862   5.376   4.177 -0.0889  0.2158  0.2473
19398W        W36246  11.357   2.541  11.799 -0.0187 -0.0395  0.0571
19399W        W36247  17.386   9.681   3.942  0.0766 -0.4161 -0.0302
19400W        W36248  17.596  13.360  10.632 -0.1094  0.2947  0.0597
19401W        W36249   6.003   4.102   4.412  0.1098  0.3518 -0.0230
19402W        W36250   5.179  17.194   4.783 -0.1478 -0.2763  0.4235
19403W        W36251   6.949   6.197   2.783  0.0866 -0.2255 -0.0300
19404W        W36252  13.403   1.908   2.190 -0.0413 -0.0744 -0.0239
19405W        W36253  13.454   2.950   4.218 -0.2618  0.0291 -0.0273
19406W        W36254   0.197   4.047  14.804 -0.0455  0.0029  0.0291
19407W        W36255  14.211   3.094   2.005  0.0047  0.0398 -0.1506
19408W        W36256   8.884  11.449  15.666 -0.0173 -0.0392  0.0381
19409W        W36257  11.868  17.070  14.361 -0.2747  0.0807  0.1870
19410W        W36258  14.719   3.599  15.935 -0.3292 -0.0882  0.1089
19411W        W36259  15.871   1.382  14.245 -0.1552 -0.0946 -0.2145
19412W        W36260  16.920  13.490  15.194  0.0763 -0.1144  0.1201
19413W        W36261  15.688  10.670   1.037  0.2100  0.1822  0.2148
19414W        W36262   2.496   8.641   0.349 -0.1389  0.0442 -0.1995
19415W        W36263   2.532  15.964  14.753 -0.0567  0.4860  0.2448
19416W        W36264  12.498   3.706   5.912  0.3594 -0.0037 -0.1232
19417W        W36265   7.979  13.589   4.860 -0.0145  0.3038 -0.2745
19418W        W36266  14.735  17.422  13.067 -0.2607 -0.1867 -0.3091
19419W        W36267  14.070  15.416   1.886  0.2017 -0.3012  0.1113
19420W        W36268   9.159   3.827  12.062 -0.2239 -0.0816 -0.1144
19421W        W36269  13.188  14.074   3.094 -0.0248 -0.0641  0.0146
19422W        W36270  16.671  10.125  11.059  0.1422 -0.1002  0.0356
19423W        W36271   3.944  14.738   4.664 -0.0213 -0.0244 -0.1847
19424W        W36272   3.702   8.940  11.381  0.3193  0.2459 -0.1332
19425W        W36273   2.088   6.681  14.409  0.2907  0.0366  0.2489
19426W        W36274   8.287  14.845  15.281  0.0886  0.3044 -0.4813
19427W        W36275  14.117   7.831  13.144 -0.0009  0.3496 -0.1634
19428W        W36276   3.221  17.013   2.173 -0.0367 -0.1268 -0.0221
19429W        W36277   1.656   1.026   3.466 -0.2639  0.1727 -0.2183
19430W        W36278  13.534   9.407   4.128 -0.1249 -0.1158 -0.3386
19431W        W36279   9.801   9.650   1.433  0.1912  0.1743 -0.0829
19432W        W36280  16.961   4.820  11.759  0.1009  0.0205  0.1419
19433W        W36281  11.701  14.067   0.040 -0.1313 -0.0068 -0.1248
19434W        W36282   2.544  14.472   2.579 -0.0435  0.2586 -0.3055
19435W        W36283   8.516   2.142  15.412  0.1157 -0.1416 -0.0782
19436W        W36284   1.167   9.569   5.063  0.1042  0.2478 -0.3239
19437W        W36285   1.291   2.197   0.092  0.0246  0.0607 -0.1003
19438W        W36286   6.065   8.618  13.543  0.0079  0.1976 -0.0972
19439W        W36287  11.051  17.527  13.222  0.0939  0.1036 -0.1025
19440W        W36288   1.474   7.681  11.652 -0.0638  0.0901 -0.1222
19441W        W36289   7.518  13.220   3.680 -0.0800  0.1799 -0.2025
19442W        W36290  16.262  14.922   4.728 -0.0884 -0.0438 -0.3081
19443W        W36291  14.993   7.402  13.406 -0.0283  0.2402  0.1346
19444W        W36292  11.186   0.362  14.107 -0.0057  0.1505  0.0463
19445W        W36293   7.412  10.717   1.097 -0.0327  0.0770  0.2026
19446W        W36294   5.498  14.900   4.270 -0.1294  0.1296 -0.1524
19447W        W36295  10.478  11.088   3.051  0.0002  0.3052  0.1213
19448W        W36296   3.819   9.856  15.332  0.0002 -0.1596  0.1173
19449W        W36297  15.896  10.613  12.542  0.0696  0.0130 -0.0205
19450W        W36298  11.412  17.012   1.753 -0.0416  0.1158 -0.0474
19451W        W36299   3.660   0.914  14.170 -0.1306 -0.2409  0.0593
19452W        W36300   7.628   7.189   1.227  0.1669  0.2241  0.0581
19453W        W36301   8.151  17.174   2.022 -0.1447 -0.0493  0.0916
19454W        W36302  15.289  11.685   0.996 -0.2394 -0.2901 -0.3039
19455W        W36303   0.589   5.035  14.245  0.0658 -0.0954 -0.1054
19456W        W36304  12.388  13.727   1.128  0.2442 -0.0693 -0.0800
19457W        W36305  15.973   5.134  13.350  0.0179 -0.1894  0.3128
19458W        W36306   0.195  11.373   3.326 -0.3891 -0.1882 -0.5269
19459W        W36307  14.935  17.762   0.607 -0.0352 -0.0768  0.1011
19460W        W36308  15.589   9.053  14.451  0.1101 -0.0013  0.0886
19461W        W36309   1.775   1.821   2.289  0.1969  0.2098 -0.0068
19462W        W36310  17.035  10.508   4.361 -0.1931  0.0401 -0.0357
19463W        W36311  13.915  14.758  15.074 -0.0591 -0.0783  0.1016
19464W        W36312   0.548   3.459  15.010  0.2994 -0.0631 -0.0529
19465W        W36313  15.900   0.388   0.612 -0.4048  0.1284 -0.0123
19466W        W36314  10.791   7.357  15.418 -0.1570 -0.0996 -0.0512
19467W        W36315  10.251  12.630  14.370 -0.3300  0.4222 -0.0261
19468W        W36316  16.398   4.010   1.049  0.0275 -0.1124  0.0424
19469W        W36317  12.032   4.621  13.493  0.1914  0.0956 -0.3024
19470W        W36318   7.763  11.325   3.766  0.0628 -0.3027  0.2180
19471W        W36319   1.975  11.267  13.724  0.0149 -0.3233  0.5888
19472W        W36320  16.345  17.855   1.421 -0.2050  0.0280  0.2866
19473W        W36321  17.741   6.260  13.695 -0.1227 -0.1901 -0.4992
19474W        W36322  15.698  15.902  12.639  0.1766  0.1522 -0.2304
19475W        W36323  12.899   2.363  15.414  0.2742 -0.0815 -0.2163
19476W        W36324   0.608  12.901   2.987 -0.3953 -0.2499 -0.0553
19477W        W36325  11.658   5.375  12.829  0.1055 -0.1020 -0.0375
19478W        W36326  16.807   7.608   0.417 -0.2384 -0.2762 -0.0340
19479W        W36327  12.435  10.987  14.209  0.1642  0.1709  0.2095
19480W        W36328   8.162  10.552  15.734  0.1605  0.1639  0.1020
19481W        W36329   6.447  12.855   4.339  0.0145 -0.0954  0.1893
19482W        W36330   4.761   2.871   0.459 -0.1898 -0.1429  0.1903
19483W        W36331   5.924   8.574  14.013 -0.1799 -0.1631 -0.4760
19484W        W36332   1.026   1.696   0.838  0.3235  0.0537 -0.0852
19485W        W36333  15.205  10.682   4.121  0.0630 -0.1657 -0.1384
19486W        W36334  13.925  17.208  15.346  0.2179  0.3393  0.1044
19487W        W36335   1.434   9.608  10.886 -0.1761  0.0170  0.0660
19488W        W36336  14.580   9.169   0.097  0.0781  0.1203 -0.0192
19489W        W36337   5.463  16.926  14.428  0.1290  0.2267 -0.0914
19490W        W36338  17.356  14.717  11.575  0.0862 -0.0721  0.3187
19491W        W36339   3.609   1.081  12.585  0.0590  0.1914 -0.4779
19492W        W36340  17.531   5.402  13.594 -0.2542  0.1863  0.2113
19493W        W36341  17.567  10.561  13.538 -0.1312  0.1108  0.2273
19494W        W36342  10.680  12.383  11.654  0.0522 -0.1263  0.5666
19495W        W36343  15.128   9.860  12.795  0.2948 -0.2000  0.1537
19496W        W36344   9.789  16.538   5.894 -0.0838 -0.2416 -0.1838
19497W        W36345   8.230   5.659  13.714 -0.1167 -0.1304 -0.0341
19498W        W36346   3.423   6.635   0.698  0.1004 -0.0417  0.1080
19499W        W36347  13.835  11.520  15.402 -0.2024  0.1726 -0.0188
19500W        W36348   3.301  12.206  14.535  0.0936  0.1850 -0.3836
19501W        W36349   7.188  16.822   4.987  0.0929 -0.0400 -0.1294
19502W        W36350   8.853   3.135  14.822 -0.2976 -0.1288 -0.0427
19503W        W36351   9.500   0.571   2.330  0.0038 -0.0789 -0.2484
19504W        W36352   0.389  15.629  14.824 -0.0278  0.2892  0.0687
19505W        W36353  14.647  10.444  14.192 -0.0896 -0.0871 -0.0757
19506W        W36354   2.756  11.835  15.437  0.1965  0.0069 -0.0589
19507W        W36355  16.575  12.361  13.375  0.2515  0.0779 -0.0433
19508W        W36356  14.066   0.543   5.213  0.0568  0.2563 -0.1941
19509W        W36357   3.383  10.503  14.266 -0.1774  0.1340  0.2683
19510W        W36358   3.729   2.646   3.027 -0.3181  0.1232  0.3685
19511W        W36359  17.094   8.827  14.456 -0.1173 -0.0292  0.2901
19512W        W36360  15.715   6.267  12.464  0.2359  0.0543  0.0806
19513W        W36361   9.687   4.022   2.562  0.0261  0.1651  0.0928
19514W        W36362  16.005  12.525   3.971  0.4626 -0.2837  0.0233
19515W        W36363   3.592  12.492  12.430  0.0964  0.0892 -0.1588
19516W        W36364  15.289   8.021  11.691 -0.0437 -0.1156 -0.0321
19517W        W36365   7.716  15.221  13.948  0.1449 -0.3797  0.0568
19518W        W36366   6.704  10.671  12.983 -0.0676 -0.0483  0.1709
19519W        W36367   7.382  17.040  11.198 -0.1193  0.0917  0.2296
19520W        W36368   7.191  14.432   0.396  0.1272 -0.2257 -0.0875
19521W        W36369  15.400  14.373  11.632  0.2184  0.0437 -0.0781
19522W        W36370  11.780   8.392  15.007  0.0277 -0.1635  0.2543
19523W        W36371  12.394   3.221  11.824  0.1273 -0.0354  0.2283
19524W        W36372   6.822  10.054   1.039  0.0020  0.1772 -0.0762
19525W        W36373  15.137  16.578   0.152  0.3415 -0.0079  0.2917
19526W        W36374   3.672  12.719   3.301 -0.1662  0.1879  0.3279
19527W        W36375  11.992   3.443  14.823  0.1082  0.1550 -0.1397
19528W        W36376  11.459   3.267  15.057  0.3374  0.0019 -0.0679
19529W        W36377   0.069   3.993  11.539 -0.0028  0.3194 -0.0286
19530W        W36378   4.482  16.254   0.640  0.0378 -0.0947  0.1298
19531W        W36379   5.833  10.315   4.346 -0.0494 -0.0021 -0.1216
19532W        W36380   4.635  16.626  15.786  0.4007  0.3279  0.0851
19533W        W36381  11.773   7.863  14.955 -0.2814 -0.2068 -0.2532
19534W        W36382   0.687  17.932   2.588 -0.0751  0.0303  0.0435
19535W        W36383   7.851  12.652  11.468  0.0326  0.0657  0.1521
19536W        W36384  10.957  17.249  11.327  0.0232  0.0014  0.1329
19537W        W36385  15.614   9.496   2.547 -0.0410  0.0441 -0.1551
19538W        W36386   8.633   3.654  15.485  0.1086  0.1870 -0.0242
19539W        W36387   2.599   8.032   5.665 -0.1278 -0.1600  0.1138
19540W        W36388  10.093   2.146   4.551 -0.2393 -0.0565  0.2566
19541W        W36389  12.358   5.990  13.884  0.1495  0.0177 -0.0770
19542W        W36390   8.715   3.292  11.251 -0.3105  0.1147  0.2944
19543W        W36391  15.141   0.590  14.470 -0.0128  0.1197  0.0697
19544W        W36392  17.087   5.564   0.133  0.2286  0.0809 -0.3597
19545W        W36393  16.455  13.550  11.691 -0.5298 -0.0669  0.3750
19546W        W36394   1.133   8.088   2.728 -0.4189  0.0935  0.1544
19547W        W36395  15.697  14.959   3.572 -0.0383  0.0435  0.1988
19548W        W36396   9.008  11.927   3.509  0.2996 -0.1036 -0.0462
19549W        W36397   0.848   0.171   3.891 -0.1500 -0.0407 -0.0646
19550W        W36398   7.658  15.570   5.565  0.4199 -0.1106 -0.2276
19551W        W36399  12.991   0.963  13.559 -0.0893  0.0832  0.0632
19552W        W36400  13.011  14.992   1.113  0.1237  0.1865  0.2618
19553W        W36401  17.670   0.860  13.763  0.0455 -0.0668  0.0530
19554W        W36402  16.560  11.287  16.055  0.0560  0.1141  0.0562
19555W        W36403   7.734  12.031   2.697 -0.0738 -0.0628  0.1583
19556W        W36404   0.893   6.004  10.497 -0.0779  0.0644 -0.1404
19557W        W36405  11.753   7.285  12.880 -0.2594  0.0142  0.0844
19558W        W36406   0.947   2.894   2.551  0.2601 -0.2589  0.2996
19559W        W36407   1.230   7.592   5.800 -0.1145  0.3134 -0.2033
19560W        W36408   8.008   8.400  11.364 -0.1181  0.1764 -0.1036
19561W        W36409   1.392   0.297  13.260  0.2177  0.2534 -0.0600
19562W        W36410  17.346  10.299   0.905  0.2026  0.0209 -0.1015
19563W        W36411   0.706  11.166   2.985 -0.1035  0.1177  0.2236
19564W        W36412   8.194  17.980  15.899 -0.1397 -0.2732  0.0081
19565W        W36413   4.713  13.160  14.898  0.1608 -0.0960 -0.1329
19566W        W36414  15.040   2.982  11.704 -0.2065 -0.0018  0.2819
19567W        W36415   4.358  14.468   2.955  0.0714  0.3678 -0.3801
19568W        W36416   0.258   7.497  12.288  0.2305 -0.0275 -0.1798
19569W        W36417  14.913  11.707  12.579 -0.2336 -0.1419 -0.1510
19570W        W36418   7.455   8.581   0.604 -0.1102  0.0442  0.0909
19571W        W36419   4.596   4.947  12.215 -0.0785 -0.1389 -0.1378
19572W        W36420   5.152   1.763  16.016 -0.2843  0.0913  0.1353
19573W        W36421  13.692   1.816   2.658 -0.1834 -0.0368  0.0495
19574W        W36422   2.431   9.574   0.235 -0.1630  0.0165 -0.1202
19575W        W36423  10.040   2.369  12.403  0.1043 -0.0867  0.0898
19576W        W36424   0.321  13.814   3.258 -0.1110  0.2761  0.0663
19577W        W36425  11.175  13.293   0.613 -0.1988 -0.0444 -0.0680
19578W        W36426  13.323   6.917  11.871  0.0473 -0.2638 -0.1220
19579W        W36427  14.627  11.549   2.260 -0.0674  0.2031  0.0019
19580W        W36428  14.895   3.540  13.836  0.2147  0.1602  0.1185
19581W        W36429   8.893   6.977  13.316  0.3745 -0.0230  0.2213
19582W        W36430  17.850  16.443  15.110 -0.1467  0.0312 -0.2385
19583W        W36431  14.768  12.602   4.654 -0.0959 -0.0869 -0.4395
19584W        W36432   8.436  11.285   4.752 -0.0181  0.1680 -0.0439
19585W        W36433   2.528   3.331  12.726 -0.1680  0.0129  0.1771
19586W        W36434  12.383   7.765  12.509 -0.4304 -0.0987 -0.1346
19587W        W36435   6.736  13.603   2.754 -0.1651 -0.0851  0.1545
19588W        W36436   7.176  15.496   3.856  0.4714 -0.0973  0.2736
19589W        W36437   0.792  12.399   2.211 -0.0930  0.2303  0.0490
19590W        W36438  10.278   4.655   0.160 -0.3368 -0.0977  0.1683
19591W        W36439   3.190  15.529   2.899  0.1675  0.0319  0.1689
19592W        W36440   9.100  15.253  10.917  0.2127  0.2747 -0.1457
19593W        W36441   1.679   9.187  15.838 -0.0772  0.2045  0.0355
19594W        W36442   5.875  11.078  13.056 -0.0087 -0.0074  0.0293
19595W        W36443   8.026   9.558  13.763  0.1922 -0.0763 -0.1208
19596W        W36444   7.775   3.198   1.957  0.3252  0.0760  0.2055
19597W        W36445  14.733   3.427  11.453 -0.0296 -0.2479  0.2611
19598W        W36446  15.411  14.720  11.198 -0.3902  0.1752  0.0990
19599W        W36447  17.648  15.098   3.135 -0.0210 -0.0846 -0.0950
19600W        W36448   4.903  10.303  12.481 -0.1765 -0.1691 -0.0342
19601W        W36449   5.684   1.362   5.147 -0.1389 -0.1436 -0.0960
19602W        W36450  10.241   9.291   4.471 -0.1064  0.0674  0.1604
19603W        W36451  16.776  11.339   3.304  0.4590 -0.3243 -0.2232
19604W        W36452   0.856  14.098  12.037 -0.0201 -0.0385  0.0812
19605W        W36453   0.103  15.776   1.203 -0.1475  0.3370  0.2143
19606W        W36454   9.686  13.051  15.351  0.0878  0.4723  0.4877
19607W        W36455  16.989   6.583  12.889 -0.1144  0.0401 -0.3217
19608W        W36456   2.857   7.403   3.407  0.0279 -0.0836 -0.2220
19609W        W36457   8.579   5.553  12.378  0.0593  0.1066  0.0685
19610W        W36458   0.639   9.956   2.404  0.0237 -0.3572  0.0407
19611W        W36459   9.455  16.742   5.532 -0.2456  0.2499 -0.1857
19612W        W36460  17.918  16.907   4.382 -0.0612 -0.2956  0.1869
19613W        W36461  11.782   2.112  12.529 -0.1064  0.0504 -0.5039
19614W        W36462   6.106  10.861  14.068 -0.2466 -0.1097 -0.1812
19615W        W36463  10.864  17.125  14.522 -0.4134  0.0300 -0.2792
19616W        W36464  12.205   6.496  11.232 -0.0368 -0.0129 -0.0918
19617W        W36465   7.469   3.142  13.186  0.2453 -0.3329 -0.2306
19618W        W36466   7.516   4.550   4.936 -0.2371 -0.1172 -0.1937
19619W        W36467  10.661  11.311  12.605 -0.1643  0.2398 -0.1880
19620W        W36468  12.827   9.243   2.718 -0.3850  0.1174  0.0030
19621W        W36469   5.182   6.973  13.351 -0.3102 -0.0789 -0.2499
19622W        W36470  10.810   2.765   5.278  0.1551 -0.1604 -0.1061
19623W        W36471  11.166  15.502   2.952 -0.1587 -0.0623 -0.2703
19624W        W36472   0.784  15.306  14.869 -0.3241  0.1689 -0.0382
19625W        W36473   7.185   9.916   4.608  0.0844  0.0642  0.2965
19626W        W36474   2.946  16.499  11.170 -0.1186 -0.2917  0.4177
19627W        W36475  11.206   0.115   2.212  0.0775  0.0159 -0.0658
19628W        W36476   5.070  15.430  14.636 -0.2374 -0.1283 -0.1087
19629W        W36477  13.560   3.610   2.721 -0.1817 -0.3581 -0.3178
19630W        W36478   4.023  16.831  14.767 -0.2559 -0.0389 -0.2577
19631W        W36479   8.547   6.205   1.786 -0.1098  0.0928  0.2949
19632W        W36480   5.545   7.616   4.311 -0.3609  0.2102  0.4662
19633W        W36481   1.188  11.618  11.434  0.0678  0.1314  0.1321
19634W        W36482   5.339   3.182   2.891 -0.0024  0.2369 -0.0625
19635W        W36483  13.009  13.691  14.249 -0.3729  0.0686  0.1091
19636W        W36484   5.288  10.350   4.530 -0.1219  0.0169  0.3108
19637W        W36485   4.302   0.533   4.902  0.1256  0.1805 -0.0924
19638W        W36486   5.045   1.690   3.306  0.0741  0.0223  0.0936
19639W        W36487   4.696   6.707   5.005  0.0666  0.3199 -0.3128
19640W        W36488   7.727   0.734  16.173 -0.2134  0.0028  0.0022
19641W        W36489   8.092  14.610  13.797  0.1580 -0.2656 -0.2221
19642W        W36490  17.068  16.992  12.718  0.2386  0.0640  0.0086
19643W        W36491  15.307  17.826   1.388 -0.0384 -0.0480 -0.2077
19644W        W36492   6.923  11.521   0.899  0.2643  0.3621  0.0896
19645W        W36493  15.810   5.380   0.006  0.0264 -0.2128 -0.0336
19646W        W36494  16.390  17.739  13.761  0.1741  0.0459 -0.0161
19647W        W36495  12.497   9.430  14.134  0.2367 -0.0251  0.0792
19648W        W36496  11.895  12.422  14.578 -0.0539  0.1616 -0.3780
19649W        W36497   2.771  10.594   2.910 -0.1288  0.1116  0.0861
19650W        W36498  11.622  17.424   0.942  0.3276 -0.0332  0.1167
19651W        W36499   2.404  10.060   0.689  0.1319 -0.3316 -0.2045
19652W        W36500  14.712   2.404  12.417 -0.1061  0.2414 -0.1167
19653W        W36501  12.711   3.842  11.208 -0.0287  0.0928 -0.2610
19654W        W36502   8.166  13.421  16.076 -0.1300  0.0795  0.0405
19655W        W36503  16.326  14.209  15.460 -0.1434 -0.1100 -0.1524
19656W        W36504   5.560   0.307  11.329  0.1045  0.2870 -0.1787
19657W        W36505   4.110   6.706  14.003 -0.0201  0.5922 -0.0716
19658W        W36506   1.962  11.887   3.132  0.0906  0.0615 -0.1572
19659W        W36507   4.461   3.331   3.088 -0.1725  0.0174 -0.1503
19660W        W36508  17.124  17.928  15.738  0.1452  0.1956  0.0161
19661W        W36509   7.923   2.201   4.761 -0.0420 -0.0769 -0.2017
19662W        W36510   5.381  16.025  16.227  0.2706  0.1562 -0.0218
19663W        W36511   1.822  17.929  12.864 -0.3058 -0.1811  0.0762
19664W        W36512   5.624   9.026   1.495 -0.2172 -0.3542 -0.2166
19665W        W36513   9.587  12.199   4.304 -0.1070  0.0173  0.0764
19666W        W36514  15.258  15.147   4.642  0.2973 -0.0483 -0.4503
19667W        W36515  14.581   2.380  15.518 -0.0839 -0.1094 -0.1726
19668W        W36516   8.603  11.254   3.144  0.1099  0.1992  0.0054
19669W        W36517   0.516  10.271   3.353  0.0531 -0.1636  0.2039
19670W        W36518  12.337  14.536  14.798 -0.1183 -0.2646  0.0052
19671W        W36519   0.670  11.307   1.672  0.1043 -0.1271 -0.4283
19672W        W36520  13.071  15.853  15.455  0.1184  0.1151 -0.0650
19673W        W36521   8.909   8.247  10.651 -0.1644  0.1150 -0.2400
19674W        W36522  14.715   0.802   4.119 -0.1466  0.1273 -0.0792
19675W        W36523   2.997   4.505  13.633 -0.2395  0.2704  0.2633
19676W        W36524   2.153   2.566   1.276 -0.1976 -0.1387 -0.0457
19677W        W36525  14.092   1.566   0.184 -0.1596  0.1403 -0.0425
19678W        W36526   8.194  14.498   5.249 -0.1954 -0.2972  0.1594
19679W        W36527   8.281   8.286   0.057  0.0825  0.1953  0.2634
19680W        W36528  11.954   7.080  14.862  0.2768  0.2110  0.1815
19681W        W36529  12.830  10.278  14.511  0.1139 -0.2024 -0.3002
19682W        W36530  10.885  11.700  13.977 -0.1027  0.1843 -0.0409
19683W        W36531  11.554   3.165  15.577 -0.1039 -0.2629  0.2275
19684W        W36532  17.439   9.250   0.396 -0.0254 -0.0909  0.0334
19685W        W36533   5.431   8.055   1.869  0.2049  0.0490 -0.2074
19686W        W36534   1.268   4.572   6.266 -0.2679  0.1045 -0.2301
19687W        W36535  17.491   2.618   0.001 -0.0608  0.1201  0.2361
19688W        W36536   7.691  14.052  14.550 -0.1658 -0.0143  0.0309
19689W        W36537  10.322  11.078   2.361  0.0349 -0.4238  0.0051
19690W        W36538  16.711   5.501   2.485  0.2155  0.0064  0.0182
19691W        W36539   6.169   7.527   0.816 -0.2842 -0.0554  0.3263
19692W        W36540  15.796   6.771   1.175 -0.2722  0.0885  0.0205
19693W        W36541   5.701   0.135   6.697 -0.6030 -0.0456 -0.3300
19694W        W36542  14.275   9.122   2.264 -0.2717 -0.0662  0.0264
19695W        W36543   0.265   5.105   1.714  0.0509 -0.0670  0.0402
19696W        W36544   7.566   1.011  12.658 -0.0713  0.0496  0.0570
19697W        W36545   9.911  17.194   3.199 -0.1340 -0.0646 -0.0166
19698W        W36546  14.490   1.706  11.493 -0.1067 -0.3047 -0.2030
19699W        W36547  12.004   3.242   0.402 -0.0201  0.1526 -0.0983
19700W        W36548   9.470  13.760  12.889  0.0828 -0.0544  0.1574
19701W        W36549  11.000  14.698   2.174 -0.3526  0.2607  0.1114
19702W        W36550   5.352   9.974   3.095  0.1865 -0.0908 -0.3673
19703W        W36551  17.133  16.475   4.684  0.0638  0.0097 -0.0371
19704W        W36552  11.681  17.225   4.271 -0.0325  0.1243 -0.0660
19705W        W36553   0.819  16.507  12.539  0.1892  0.4456  0.1479
19706W        W36554   5.286  15.352   1.545  0.0179 -0.0628  0.1781
19707W        W36555  18.015   8.217   0.354 -0.0649 -0.0688  0.0666
19708W        W36556  13.942  13.902  12.113  0.3614 -0.0291 -0.3761
19709W        W36557  17.911  10.875  12.499 -0.1773  0.0165  0.1331
19710W        W36558  11.447  17.592   4.538 -0.0337 -0.0746 -0.0115
19711W        W36559  15.869   4.325  15.538 -0.0069  0.1295 -0.1324
19712W        W36560   1.722  10.743  11.451  0.1050  0.3294 -0.0509
19713W        W36561   5.062   0.587   0.293 -0.2008  0.2309 -0.2691
19714W        W36562   3.779   6.047  13.416 -0.1335  0.1181 -0.1537
19715W        W36563   4.218  16.851   3.559 -0.0134 -0.1815 -0.1092
19716W        W36564  13.064   2.234   1.884  0.0372  0.0162 -0.1303
19717W        W36565   7.271   5.662  12.555 -0.3045  0.0064 -0.1180
19718W        W36566  16.020  17.489   4.498  0.2018 -0.0262 -0.2065
19719W        W36567   2.651  15.736   0.067 -0.0283  0.2349  0.1725
19720W        W36568  11.689  15.725   1.120  0.0457  0.3665  0.1289
19721W        W36569   7.185   5.425   0.778  0.2358  0.1405 -0.0816
19722W        W36570  14.559  17.154  11.825 -0.2456  0.1618 -0.1437
19723W        W36571  14.779  10.863   0.190 -0.3493 -0.0871  0.2618
19724W        W36572   8.441  12.981   2.059 -0.0229  0.1729 -0.1547
19725W        W36573  14.237  12.724   4.925 -0.2547  0.0907 -0.2275
19726W        W36574   3.906   2.790  14.391 -0.0665 -0.1379  0.0953
19727W        W36575   5.028   0.604  11.882  0.1342  0.0787  0.1665
19728W        W36576   0.891   2.532   1.913  0.1319 -0.0828  0.0971
19729W        W36577  16.624   4.794  12.124 -0.0497 -0.2248  0.0158
19730W        W36578   0.516  13.478  14.452 -0.0137 -0.1768  0.0074
19731W        W36579  16.384  13.711   0.928  0.3468 -0.1509 -0.0020
19732W        W36580   4.640  16.150   4.737 -0.2259  0.6198 -0.1673
19733W        W36581   3.493   1.310  13.757 -0.0889  0.1849 -0.2428
19734W        W36582   4.788   6.016   2.900  0.0911 -0.2500  0.0076
19735W        W36583  11.566  13.710   1.765  0.0331  0.0263  0.1069
19736W        W36584  12.334   5.812   2.854 -0.1663 -0.1286  0.3472
19737W        W36585  10.699  11.525   2.882 -0.0399  0.0743  0.0921
19738W        W36586   9.003   4.299  16.021  0.0637 -0.0337 -0.0655
19739W        W36587   8.980  14.106   2.902 -0.2585  0.1662 -0.0634
19740W        W36588  12.731  15.241   3.606 -0.0796 -0.2349  0.1255
19741W        W36589  14.963   5.146  16.135 -0.4167 -0.0419  0.0872
19742W        W36590   4.020   7.323   0.782 -0.1930 -0.1630 -0.1366
19743W        W36591  16.780   7.234  10.380 -0.1411 -0.0051 -0.0641
19744W        W36592   7.920   4.790   2.751  0.0535 -0.0857  0.2257
19745W        W36593  15.686  17.534  14.524 -0.2849 -0.1214 -0.0070
19746W        W36594   5.630  13.616   2.485 -0.1695 -0.3932  0.3942
19747W        W36595   8.638  14.046   0.567 -0.1696 -0.0853  0.0237
19748W        W36596   3.798  14.362  11.447 -0.2512 -0.0095  0.1253
19749W        W36597   6.365  12.218  11.596 -0.1783 -0.0003  0.0303
19750W        W36598  15.766  15.737  16.156  0.1533 -0.0194 -0.2086
19751W        W36599   0.853  17.703  11.945  0.0243  0.0946  0.0825
19752W        W36600  14.900  17.630   5.041 -0.4772  0.3056 -0.1386
19753W        W36601  13.321   5.311  16.001 -0.0421  0.2639  0.0298
19754W        W36602  15.376   3.064   2.948  0.0876 -0.0850 -0.0099
19755W        W36603  16.727  17.419  13.595  0.1326  0.0491  0.0048
19756W        W36604  16.839   0.326   2.968 -0.0588  0.1790 -0.0727
19757W        W36605   3.631  15.017   2.303  0.1215 -0.2056 -0.3474
19758W        W36606   6.050   7.919   2.548 -0.0746  0.2729 -0.0322
19759W        W36607   0.618  11.664   3.081 -0.2081 -0.0847 -0.3156
19760W        W36608   6.714   8.231   1.394  0.2691 -0.0404 -0.3180
19761W        W36609   3.180   8.311  11.233 -0.1240 -0.2498 -0.1432
19762W        W36610   3.243  12.460   4.156 -0.1577 -0.1121 -0.0748
19763W        W36611  11.168  11.365  13.441  0.3458 -0.1713  0.0005
19764W        W36612  11.058  15.861  11.937  0.0306 -0.0840 -0.0158
19765W        W36613  15.692  13.228   3.499  0.3404 -0.1882 -0.1265
19766W        W36614  13.856   9.437  11.370  0.2358  0.0458 -0.1636
19767W        W36615   9.110  10.181  14.252 -0.0547  0.0054 -0.1332
19768W        W36616   7.263   7.463   2.565  0.1704 -0.1731  0.1840
19769W        W36617   7.172   2.011   2.542 -0.0128  0.3402 -0.1802
19770W        W36618  12.044   7.993  15.366  0.0334 -0.2154  0.1218
19771W        W36619   8.802  12.624   4.734 -0.1522  0.1311 -0.3166
19772W        W36620  12.384   6.232   2.216 -0.0159  0.0870 -0.0616
19773W        W36621   3.664   0.305  15.196  0.4951  0.0236 -0.1624
19774W        W36622   4.490  10.613  15.671 -0.1267  0.1315  0.1039
19775W        W36623  16.765   8.072  15.101  0.0718  0.0826  0.3742
19776W        W36624   5.365   4.712   2.525  0.0892  0.1247 -0.0579
19777W        W36625   9.164   7.115   4.114 -0.1471 -0.3072  0.1442
19778W        W36626   1.084   5.191   0.036 -0.1049 -0.4669 -0.2478
19779W        W36627  13.815  13.644  12.494 -0.1163  0.1859 -0.3278
19780W        W36628   5.488  14.834  12.450  0.1094 -0.0976 -0.1921
19781W        W36629   1.894   6.395   3.286  0.2390  0.2201 -0.1523
19782W        W36630  14.762   9.607   3.486 -0.4482  0.1742  0.1616
19783W        W36631  15.746  14.679   3.960 -0.0929  0.1829 -0.3219
19784W        W36632   7.182  13.352  14.693  0.0421 -0.1020  0.0776
19785W        W36633  13.961  16.212   2.877 -0.0573 -0.0220 -0.3136
19786W        W36634   3.089  11.768  14.422 -0.1256  0.4198  0.3609
19787W        W36635  13.945   0.199  14.175 -0.2990 -0.3081  0.0056
19788W        W36636   8.977  14.735   3.874 -0.4385  0.2310 -0.1286
19789W        W36637  16.855  14.109  15.465  0.1520  0.0624 -0.1148
19790W        W36638   1.814   5.766  15.444  0.0429 -0.1500  0.2531
19791W        W36639  10.145  12.477   1.412 -0.1405  0.1458  0.0851
19792W        W36640   1.441  13.455  16.078 -0.1026  0.2330 -0.0340
19793W        W36641   8.964   7.694  12.622  0.0728 -0.0601  0.1674
19794W        W36642  11.554   6.383  11.021 -0.3073  0.1960 -0.0931
19795W        W36643  17.939  14.611   4.847  0.2650  0.3398 -0.0387
19796W        W36644   2.726  10.041   1.910 -0.1487 -0.0401 -0.0520
19797W        W36645  15.463   5.062  11.807 -0.3743 -0.2496 -0.1254
19798W        W36646  17.672  13.583   3.706 -0.2210  0.3272 -0.3220
19799W        W36647  12.788  10.525  12.169 -0.2187  0.3066  0.0361
19800W        W36648   5.550   3.390  13.997  0.0792 -0.2702 -0.3105
19801W        W36649  15.577  14.457  14.476 -0.1936 -0.3434 -0.2748
19802W        W36650   0.797  10.464   0.537  0.0718  0.1145 -0.2430
19803W        W36651  13.890  16.075  12.827  0.1185 -0.4702  0.1552
19804W        W36652  14.046  15.177   3.296 -0.1189  0.0716 -0.3395
19805W        W36653  17.903   7.665   0.175  0.1813 -0.1487  0.0339
19806W        W36654   1.505  11.999  11.526 -0.0731  0.1071 -0.2225
19807W        W36655  17.686  10.087   4.678 -0.0931 -0.0181  0.1367
19808W        W36656  15.077   0.187  11.449  0.1285 -0.0024  0.2745
19809W        W36657   5.037   2.343  14.748 -0.1292  0.0246 -0.0750
19810W        W36658   7.362   1.873   4.369 -0.2225 -0.1795  0.0442
19811W        W36659   5.504  10.232   4.972 -0.1151  0.2257  0.1902
19812W        W36660  17.146   8.217  14.804  0.2736  0.0074 -0.2767
19813W        W36661  15.155   8.879  14.720  0.0776 -0.2886  0.1428
19814W        W36662  14.657   5.088   2.098  0.3634 -0.0807 -0.0631
19815W        W36663   8.669   1.583   5.037  0.0857  0.0447 -0.1427
19816W        W36664  15.773  11.223  12.345  0.2203  0.1983 -0.1502
19817W        W36665   2.818   4.124  12.926  0.0938  0.1139  0.0351
19818W        W36666  14.614  10.618  15.586  0.0584  0.0741 -0.2427
19819W        W36667  17.287   6.912   4.688 -0.1186 -0.0942 -0.0658
19820W        W36668   6.702  16.892   0.950  0.0017  0.3719  0.1913
19821W        W36669  17.817   0.877   2.011 -0.0035  0.2151 -0.3447
19822W        W36670   7.950   2.837   2.866 -0.0427 -0.2176  0.3327
19823W        W36671  11.037  14.262  12.303 -0.1649 -0.1455  0.0956
19824W        W36672  16.634   9.442   0.150 -0.0296 -0.1078 -0.1925
19825W        W36673   7.952   8.754   3.647 -0.0816  0.0327 -0.0967
19826W        W36674  15.739   9.859   5.364  0.2223  0.0657  0.3776
19827W        W36675   1.425  12.956  11.933 -0.0772 -0.1237  0.1054
19828W        W36676   9.002  12.528  12.635  0.3056 -0.1739 -0.0124
19829W        W36677   0.970   3.207  14.581 -0.1415  0.1099 -0.0497
19830W        W36678   3.303   9.184  12.909 -0.1043 -0.0719 -0.1135
19831W        W36679   2.041  14.829   4.702 -0.0521  0.1343 -0.2576
19832W        W36680   8.278   0.553  15.451  0.0207  0.3115  0.0553
19833W        W36681  11.443  17.360   6.138 -0.1323  0.0359 -0.0544
19834W        W36682   9.354  11.283  11.721 -0.1203  0.0916  0.2562
19835W        W36683  16.919  11.670  13.620 -0.1988  0.1745  0.1113
19836W        W36684   1.200   3.536   2.731  0.0862  0.2769 -0.2991
19837W        W36685  14.123   7.462  12.153  0.1222  0.0469 -0.1532
19838W        W36686  10.701  13.670  13.919 -0.0010 -0.0160  0.2234
19839W        W36687   0.641   3.486  12.266 -0.3177 -0.1083  0.0729
19840W        W36688   3.525   9.271  14.881 -0.0781  0.1513 -0.1630
19841W        W36689   8.335   9.760   6.005 -0.0819 -0.2188  0.0690
19842W        W36690   8.846  10.719  13.227  0.0958 -0.3778  0.2152
19843W        W36691   4.404   9.571  14.940  0.3002 -0.0340  0.1075
19844W        W36692   1.686  16.778   1.385 -0.0708 -0.3581 -0.1484
19845W        W36693  15.793   1.281   0.502  0.1376 -0.0809 -0.2351
19846W        W36694   6.299  11.575   4.525  0.1953 -0.3350 -0.0438
19847W        W36695   3.974   7.350   4.303 -0.2012  0.0339  0.0450
19848W        W36696   4.049   1.877   1.748 -0.1480  0.0924  0.1602
19849W        W36697  16.111   7.292   4.253 -0.0811  0.0621  0.0829
19850W        W36698   1.093   1.431  11.067 -0.2423 -0.0480 -0.1051
19851W        W36699   1.342   4.397   5.237  0.2673  0.0033 -0.0794
19852W        W36700   1.574   7.186  13.826 -0.0275  0.0095 -0.2179
19853W        W36701  15.066  17.581   4.061 -0.4941  0.1147 -0.0332
19854W        W36702   5.002   5.681  13.253  0.0199  0.0639 -0.4728
19855W        W36703   1.702  17.040  13.304 -0.0115 -0.1896 -0.1219
19856W        W36704   1.366   2.577  15.729  0.0949 -0.1656  0.0792
19857W        W36705   8.858   6.252  14.535 -0.0819  0.4784  0.3225
19858W        W36706   8.278   5.357  14.123  0.1211  0.0298  0.1051
19859W        W36707   2.786   1.410  12.417  0.2006  0.0335 -0.0511
19860W        W36708  14.434  15.189   3.712 -0.2059 -0.1671 -0.2022
19861W        W36709   2.284   6.218   2.206  0.0091 -0.0325  0.0499
19862W        W36710   9.703   9.771   0.146  0.0895 -0.0954 -0.0867
19863W        W36711  14.892  13.422   3.954  0.1781  0.1004 -0.0731
19864W        W36712  11.358  10.458  12.812  0.0776 -0.3425 -0.1180
19865W        W36713   9.534  11.064   2.311 -0.1023  0.1759 -0.0012
19866W        W36714  11.361   5.209   2.260  0.3429 -0.1672 -0.3669
19867W        W36715  16.096   8.653   4.038 -0.1079 -0.0068  0.0320
19868W        W36716   6.074  10.566   1.528 -0.1401 -0.0510  0.0180
19869W        W36717  10.889  16.837   4.425 -0.1290  0.0367 -0.0011
19870W        W36718   9.945   4.110   2.978 -0.2458 -0.0908 -0.0839
19871W        W36719  15.773  14.933   4.433 -0.0811  0.2183  0.2201
19872W        W36720   8.879   2.717   3.506  0.1342  0.0507 -0.2392
19873W        W36721  10.289   5.400  13.803  0.0264 -0.0321  0.1633
19874W        W36722  10.634  16.139  12.709 -0.0223  0.1461 -0.1233
19875W        W36723   2.971  17.641   1.614 -0.0574  0.0261  0.0171
19876W        W36724  13.719  17.740  15.706 -0.3786  0.1631  0.1301
19877W        W36725   8.099  11.736   2.396  0.2034 -0.4697  0.0847
19878W        W36726   4.795   3.570   4.971 -0.0350 -0.0482  0.2088
19879W        W36727  16.341   3.649  14.146 -0.0709 -0.0086 -0.0868
19880W        W36728  12.218   8.051  14.597  0.2006  0.1717 -0.1108
19881W        W36729   9.633  17.853   0.582 -0.1130  0.3561  0.1974
19882W        W36730  16.219   4.478  14.646 -0.0381 -0.1616  0.0260
19883W        W36731   3.644   9.700   2.312  0.1850  0.2323 -0.0760
19884W        W36732   4.155   4.887   3.507 -0.1630 -0.2085 -0.1982
19885W        W36733   0.619   1.557  11.607  0.0476  0.1283 -0.1485
19886W        W36734  16.987   1.206  14.789 -0.0586 -0.0449 -0.0034
19887W        W36735  15.018   0.437   4.279 -0.2854  0.2740  0.0193
19888W        W36736  13.699   7.457  13.308 -0.1822 -0.3719 -0.1313
19889W        W36737  12.304  12.879  13.650 -0.1774 -0.0101  0.3094
19890W        W36738  14.516  12.879  11.936 -0.1707 -0.0750  0.2711
19891W        W36739  10.171   3.638   4.434 -0.0076  0.0220 -0.0425
19892W        W36740  11.702  10.235  12.363 -0.3164 -0.0426  0.2164
19893W        W36741  10.778   2.575   2.120 -0.1402  0.1455 -0.0085
19894W        W36742  16.343  15.945  14.387 -0.0377  0.2272  0.3350
19895W        W36743   0.965  13.431  14.127  0.2584  0.1001  0.0481
19896W        W36744  10.516  12.648   2.892  0.0093 -0.1144  0.1660
19897W        W36745   7.791   5.779  14.002 -0.1641  0.0335  0.0235
19898W        W36746  17.869   1.951   0.797 -0.1649  0.1495  0.3750
19899W        W36747   9.658   0.934  12.609 -0.0345  0.2168 -0.0823
19900W        W36748   4.992   8.268   3.922  0.4358  0.2596  0.1408
19901W        W36749  11.376   5.956   0.573 -0.2838 -0.3045 -0.1942
19902W        W36750   2.089   1.660   2.633  0.0642 -0.1246 -0.1307
19903W        W36751  11.196  13.764   3.727  0.0185 -0.1323  0.2632
19904W        W36752   5.177  11.488   2.049 -0.0609 -0.3684 -0.0236
19905W        W36753  17.871   9.067  11.198  0.2657 -0.1853  0.1648
19906W        W36754   8.579   1.049   4.848 -0.3544 -0.0998  0.1622
19907W        W36755  13.732   6.551   1.183  0.0136 -0.1069 -0.2516
19908W        W36756  10.955  12.598  14.402  0.1810 -0.0502 -0.0824
19909W        W36757   0.283   4.074   4.146  0.1610  0.1723  0.3247
19910W        W36758   5.742  15.168   2.878  0.1043 -0.2182 -0.0712
19911W        W36759  15.921  11.320   5.065 -0.1522 -0.0588  0.1716
19912W        W36760   0.893   9.140  15.702 -0.2728 -0.0482  0.0311
19913W        W36761  17.482   4.260   4.222 -0.0660  0.0667  0.3713
19914W        W36762  17.273   2.989  13.362 -0.2149  0.0201  0.1836
19915W        W36763  11.043   1.117  12.848  0.0836  0.0285 -0.0467
19916W        W36764   8.154   7.135  13.303  0.1739 -0.1204 -0.1600
19917W        W36765   6.340  12.629  15.749 -0.1045 -0.2423 -0.0837
19918W        W36766   6.526  13.583  15.071 -0.2966  0.2421  0.1324
19919W        W36767   4.113  14.736   1.521  0.0305  0.2019  0.2312
19920W        W36768   1.121  10.624  12.641 -0.1127 -0.2625  0.0787
19921W        W36769   1.997  17.453   1.844 -0.0722 -0.1669 -0.3517
19922W        W36770   0.237   6.558  13.299  0.2444 -0.0633 -0.0269
19923W        W36771  16.110   7.259   2.153  0.0503 -0.0229  0.0592
19924W        W36772   6.010  15.070  11.251  0.1148  0.3624  0.0055
19925W        W36773   4.993   4.087   3.939  0.0463 -0.0557 -0.1295
19926W        W36774   6.418  11.728  13.085  0.0505  0.0142 -0.2872
19927W        W36775  13.399   1.393   2.931 -0.1845 -0.2451 -0.1522
19928W        W36776   7.094  14.908  13.031  0.1779 -0.1029 -0.1280
19929W        W36777  14.407  14.359   4.331  0.1694 -0.2290 -0.1605
19930W        W36778  13.926  12.941   4.205 -0.0246  0.0389 -0.1132
19931W        W36779  17.196  17.220   5.263  0.0507 -0.0534 -0.4798
19932W        W36780  12.678   2.904  13.599  0.0847 -0.2066  0.2185
19933W        W36781  16.715  11.408   2.265 -0.0255 -0.1300 -0.3221
19934W        W36782   8.094  14.473  11.601 -0.0509  0.1318  0.1251
19935W        W36783  11.019   5.647   5.152  0.0678  0.0397 -0.2226
19936W        W36784  14.728  11.612   1.578 -0.2205  0.1463  0.2728
19937W        W36785   2.264  14.775  12.287 -0.0621 -0.1426  0.0789
19938W        W36786   5.906   4.423  15.365 -0.0180  0.0253  0.1048
19939W        W36787   2.216   7.254   4.894 -0.1531  0.0575 -0.2293
19940W        W36788   9.161   7.957  14.674 -0.2652 -0.0087 -0.1868
19941W        W36789  12.027  16.313   5.217  0.0361  0.0251 -0.2047
19942W        W36790  12.041   6.538  13.324 -0.0897  0.2526  0.1835
19943W        W36791   2.010  12.162   0.106 -0.0988 -0.0385 -0.2830
19944W        W36792  10.944   7.413   4.516 -0.1023 -0.1971  0.2576
19945W        W36793  10.758  17.470  13.607  0.0939  0.0126  0.1478
19946W        W36794  16.144   1.017  11.135 -0.2043  0.0284  0.1381
19947W        W36795   9.327   9.912  16.040 -0.3058 -0.3453 -0.0465
19948W        W36796   3.198  16.656  12.720  0.4122 -0.5358 -0.2125
19949W        W36797   8.469   0.164  12.350  0.3298  0.0275  0.0668
19950W        W36798  14.388   6.399  14.770  0.1651 -0.1320  0.0586
19951W        W36799   9.109   3.724   1.470 -0.0468 -0.1253 -0.4867
19952W        W36800  15.411   2.582   4.681 -0.0669 -0.3956  0.1145
19953W        W36801   7.550  12.081  14.907  0.0337 -0.0694  0.0272
19954W        W36802   1.839   0.871   2.562 -0.0690  0.1733  0.0948
19955W        W36803   1.201  11.330  14.110 -0.0094 -0.1126 -0.1814
19956W        W36804   6.983   3.977  13.345 -0.2465 -0.0456 -0.0059
19957W        W36805   3.795  12.321   2.974 -0.0975  0.1237 -0.0017
19958W        W36806  16.026   4.841   3.316 -0.0710  0.0443  0.1611
19959W        W36807  13.699   9.760   3.750  0.1268 -0.1622  0.0147
19960W        W36808  17.282   2.485   1.806  0.0500  0.1202  0.2801
19961W        W36809  11.748  14.817  16.103  0.0179  0.0187 -0.1645
19962W        W36810   7.918  14.600   6.232  0.2892  0.2555 -0.0801
19963W        W36811   2.696   6.921  12.434  0.0259 -0.1219  0.1710
19964W        W36812   0.916  13.727  15.303  0.0678 -0.0587  0.2109
19965W        W36813   1.634   1.299   0.444 -0.3578  0.0404  0.0739
19966W        W36814   9.765   3.886  14.958 -0.0281  0.0229  0.2367
19967W        W36815   3.606   9.217  10.426 -0.3273  0.4877 -0.1695
19968W        W36816  17.507   2.393  14.204 -0.2712  0.0398  0.1198
19969W        W36817   9.854   1.232   1.178 -0.1779  0.0284 -0.0333
19970W        W36818   9.971  17.620   2.905 -0.1852 -0.1773 -0.1529
19971W        W36819  14.321  16.590  13.089 -0.0619 -0.1178  0.1825
19972W        W36820   8.530   1.710   2.130  0.1375 -0.0358 -0.2376
19973W        W36821  10.310  15.537  12.598 -0.0689  0.0480  0.0332
19974W        W36822  14.298  12.742   4.432 -0.2440 -0.1047  0.0121
19975W        W36823  17.828   7.786  11.180 -0.2237 -0.3037 -0.0204
19976W        W36824   7.870   2.011   6.067 -0.2145  0.0861 -0.1368
19977W        W36825  17.080   2.167   3.945 -0.1433  0.2358 -0.2514
19978W        W36826  14.582  14.857   2.471 -0.0742 -0.1981  0.0562
19979W        W36827   9.480   7.584  14.387 -0.0817 -0.2430  0.2198
19980W        W36828  17.082   6.574   4.244 -0.0490 -0.2749 -0.2504
19981W        W36829   0.180   2.701   5.988  0.0458 -0.0089 -0.1901
19982W        W36830   1.450   0.440   1.162  0.0391 -0.0089  0.3160
19983W        W36831  15.682  11.334   0.173  0.3582  0.0148  0.2538
19984W        W36832   5.477   7.293   2.447 -0.3330 -0.2243 -0.1208
19985W        W36833  14.048   1.161   3.860 -0.0897  0.2946 -0.2440
19986W        W36834  11.624   9.001   1.404  0.0815 -0.4466 -0.2805
19987W        W36835  12.763   9.616   4.193  0.5245  0.0933  0.1590
19988W        W36836   2.232   3.493  11.838  0.0154 -0.1953  0.2195
19989W        W36837  14.903  12.208  12.557 -0.0829  0.1494  0.0313
19990W        W36838   8.253   9.757  15.074  0.1032 -0.2896  0.1499
19991W        W36839   1.286   5.079   5.911  0.1299  0.0585 -0.1142
19992W        W36840  17.571  14.998   1.604 -0.1089 -0.2007 -0.3123
19993W        W36841   2.729   0.302  14.369  0.0086  0.0361 -0.2201
19994W        W36842  17.757  12.631   3.424  0.3237  0.0937 -0.3047
19995W        W36843   3.680  14.912   3.663 -0.1338  0.1448 -0.0559
19996W        W36844   5.719   0.667   6.300  0.3708 -0.1354 -0.1356
19997W        W36845  17.382   0.957  14.754 -0.0781  0.0572  0.0000
19998W        W36846   3.588  15.949   1.442  0.1784  0.2992  0.3349
19999W        W36847   1.572   5.392   2.258 -0.1664 -0.3295 -0.1569
20000W        W36848  14.640   6.184   1.561 -0.4997 -0.2157  0.3014
20001W        W36849   0.051   1.561  15.675 -0.0404  0.2778  0.0458
20002W        W36850   4.990   0.195   2.153 -0.0054  0.2243  0.0088
20003W        W36851  13.098  15.118   3.240  0.2889 -0.0077 -0.1059
20004W        W36852  14.142   3.375  15.161  0.1188 -0.0351  0.2763
20005W        W36853  12.549   0.897  12.066  0.1295 -0.2618 -0.1791
20006W        W36854   6.107   5.042   4.842  0.1129  0.0531  0.0159
20007W        W36855  12.125   7.034   2.707  0.0096  0.0868  0.3429
20008W        W36856  13.993  14.623  14.214  0.1781  0.2572  0.0593
20009W        W36857  17.354   1.806   3.616 -0.0535 -0.3004 -0.1355
20010W        W36858  11.612  10.374  10.022  0.0294 -0.0036 -0.2596
20011W        W36859   1.368   6.061  14.255 -0.0671  0.1526  0.0548
20012W        W36860   6.074   6.065  14.581  0.0880 -0.3349  0.2762
20013W        W36861   6.456   3.175  16.132 -0.2780  0.2926  0.0379
20014W        W36862  17.362  11.099  14.341 -0.1315 -0.0263 -0.3294
20015W        W36863   9.458  14.133  15.315 -0.0118  0.0591  0.0982
20016W        W36864  17.041  15.726  13.086 -0.0558  0.1640  0.0817
20017W        W36865  10.517   6.000  12.695  0.0663 -0.0193  0.2559
20018W        W36866   8.814  12.422   2.762 -0.2313 -0.2059 -0.1573
20019W        W36867  10.812  13.778   5.264  0.0505 -0.0288  0.1412
20020W        W36868   2.156  13.014   0.846 -0.0747  0.1878 -0.1337
20021W        W36869   9.531   8.317  13.856  0.1609  0.2960 -0.3576
20022W        W36870   4.098   9.603   4.827  0.2996  0.0599  0.2990
20023W        W36871  17.711  14.184   4.742  0.3091 -0.2378  0.1932
20024W        W36872   9.118  17.899   3.844  0.0583  0.1674 -0.0939
20025W        W36873  11.182  13.111  11.712 -0.0786 -0.3797  0.3235
20026W        W36874   0.418   3.008  11.349 -0.4718 -0.0633  0.0600
20027W        W36875   4.381  11.062  14.856 -0.1780 -0.1705 -0.2582
20028W        W36876  10.430  12.974   5.121 -0.1875  0.1245 -0.0780
20029W        W36877   7.340   3.538   3.694  0.2433 -0.0510 -0.3463
20030W        W36878   3.846  17.717  10.409  0.1442 -0.0908  0.0124
20031W        W36879   8.553   7.411   0.187  0.2061 -0.1017  0.0713
20032W        W36880  13.010   4.273  11.396  0.1303 -0.1997 -0.1089
20033W        W36881   8.468   0.780  13.839  0.1219  0.1816 -0.2079
20034W        W36882   4.089   0.184  14.364  0.1754  0.1278 -0.0279
20035W        W36883  12.524   8.671   0.906  0.2108 -0.1301 -0.0556
20036W        W36884   3.358   1.237   1.282 -0.0947  0.1372  0.3226
20037W        W36885   0.788   6.774   0.598 -0.1810 -0.0648 -0.0303
20038W        W36886   0.520  15.207   0.661  0.2160  0.0528 -0.0124
20039W        W36887  14.219   7.980  12.265 -0.2499 -0.1448  0.0805
20040W        W36888  14.421  13.911  11.953  0.2078 -0.0938 -0.1674
20041W        W36889  10.434   6.342  14.257 -0.0492 -0.0883  0.1435
20042W        W36890   5.894  12.732  12.679  0.3877 -0.0614 -0.2826
20043W        W36891   9.156   2.487   3.176  0.2732 -0.0755 -0.1025
20044W        W36892   5.648   1.140   4.730 -0.4448  0.2080 -0.0159
20045W        W36893  11.746  16.609   1.643 -0.2124  0.1178 -0.0559
20046W        W36894  10.989   5.417  15.999  0.1471  0.0372  0.1227
20047W        W36895   7.106   2.785   0.773 -0.0838 -0.2672 -0.2582
20048W        W36896   0.019   7.650   3.369  0.3868 -0.0439  0.2799
20049W        W36897   2.315   9.554  12.397  0.2922 -0.2115  0.2971
20050W        W36898   5.343   5.625   5.770 -0.1562  0.0762 -0.0158
20051W        W36899  16.107  16.743  15.382 -0.0670  0.1727  0.1810
20052W        W36900  13.178  11.834   4.762  0.1058 -0.0959  0.1266
20053W        W36901   5.808   6.792   5.173 -0.0228 -0.4095  0.0689
20054W        W36902  16.389  17.129   1.549  0.0484 -0.1325  0.5488
20055W        W36903  10.582   4.573  12.545  0.0657  0.1924 -0.1785
20056W        W36904   0.745  14.333  11.516  0.0960 -0.0636  0.0651
20057W        W36905   1.211  10.187   2.255 -0.2098  0.0805  0.0801
20058W        W36906  16.763  13.247  14.669  0.0228 -0.0441 -0.1309
20059W        W36907   5.448  18.023   3.595  0.1355  0.1776 -0.4204
20060W        W36908   5.576   4.393  12.853 -0.0355 -0.1392 -0.1768
20061W        W36909   5.589   3.059  13.029  0.1136  0.0214 -0.0638
20062W        W36910   9.126  16.535   4.881  0.1439 -0.2199  0.0906
20063W        W36911   2.792   4.237   3.401 -0.0579  0.0212  0.1035
20064W        W36912   7.518  15.245  11.408  0.0215  0.0782 -0.0777
20065W        W36913   8.587   8.368   4.318  0.1511  0.3019 -0.0750
20066W        W36914   5.173   4.931  12.069 -0.1674 -0.2024  0.2882
20067W        W36915   0.517   8.383  15.321  0.0422  0.0984  0.0903
20068W        W36916   0.671   3.508  15.940 -0.2386  0.2255 -0.0875
20069W        W36917  11.421   3.574   1.317  0.2160  0.2822 -0.1404
20070W        W36918   5.764  11.324  11.221  0.0860  0.0478  0.2468
20071W        W36919   8.615  12.249   0.391  0.2368 -0.2228 -0.3338
20072W        W36920   4.133   0.135   3.156  0.1008  0.2655 -0.0397
20073W        W36921   0.258   1.843   2.005 -0.1818 -0.1944 -0.4069
20074W        W36922   0.842  13.049  14.530  0.3906  0.0321  0.1404
20075W        W36923  10.909   4.978   0.366  0.0071 -0.0318  0.3538
20076W        W36924   3.783   7.974  14.048 -0.1485  0.0163 -0.0738
20077W        W36925   8.829   7.566   1.386  0.2678 -0.2858 -0.0058
20078W        W36926   7.584  17.299   5.790 -0.1108  0.1713 -0.3800
20079W        W36927  13.885   5.358  12.163  0.3604 -0.2478  0.0013
20080W        W36928   4.403   2.243  13.596 -0.2975 -0.0845 -0.0881
20081W        W36929   5.096   2.159   3.157  0.1041 -0.1513 -0.1010
20082W        W36930   9.073   4.841  15.306  0.0395 -0.1588 -0.0860
20083W        W36931   6.672   5.299   0.260  0.0912 -0.0011  0.0023
20084W        W36932   6.274   4.438   0.194  0.1157  0.1044 -0.2890
20085W        W36933   9.691   1.726   2.794  0.4244 -0.0621 -0.0807
20086W        W36934   9.568  14.948   2.854 -0.4491  0.0777  0.1345
20087W        W36935   9.501  14.727  14.542  0.2395 -0.0410  0.0319
20088W        W36936   5.467  17.183   0.382  0.1399  0.0175 -0.0595
20089W        W36937   0.891   7.435   5.488  0.3681  0.2934 -0.1639
20090W        W36938  13.271   4.899   4.489 -0.1744  0.0791 -0.0864
20091W        W36939   6.028   8.879   1.048 -0.1618  0.0578  0.4738
20092W        W36940   6.129  13.566  13.305  0.3088 -0.1857 -0.0645
20093W        W36941   0.565   7.693   3.372  0.0802 -0.3872  0.2247
20094W        W36942   6.430  13.440   0.918  0.2744 -0.4252  0.0800
20095W        W36943   7.817   3.447  12.848  0.0705 -0.1893 -0.3948
20096W        W36944   6.672   6.528   4.668  0.2440 -0.2468 -0.0456
20097W        W36945   0.965   9.115  12.576  0.0674  0.0519  0.1246
20098W        W36946  16.869   2.566   0.083  0.1185  0.0795 -0.0953
20099W        W36947   9.461  13.551  11.175  0.0041 -0.1547  0.2344
20100W        W36948   7.487   9.912  12.002  0.0076 -0.0181 -0.1488
20101W        W36949   7.567   0.436  12.155 -0.0156 -0.1660 -0.1316
20102W        W36950   2.644   0.613  13.792 -0.1609 -0.2830  0.1398
20103W        W36951  11.794   8.510   4.722 -0.2482 -0.0150 -0.3097
20104W        W36952  17.987   4.735   2.582  0.0409  0.2976 -0.2732
20105W        W36953   0.589   6.929  11.467 -0.2028 -0.1492  0.2565
20106W        W36954  15.426  17.691   0.277  0.2354  0.0744  0.0528
20107W        W36955   9.136  13.765  15.512  0.0646 -0.0892  0.0480
20108W        W36956   2.625  14.738  11.780  0.0510 -0.1722 -0.0768
20109W        W36957   0.306   7.964   3.672  0.1473  0.1338 -0.3832
20110W        W36958   3.912  16.950   2.722 -0.0970  0.0160  0.4162
20111W        W36959   7.486   1.897   3.830 -0.2729  0.0893 -0.3136
20112W        W36960   1.423   4.730  12.089  0.0376  0.0834  0.0683
20113W        W36961  10.499   2.530   4.404  0.2897 -0.1263 -0.0249
20114W        W36962  16.114  13.821  15.688 -0.2801  0.0064  0.0588
20115W        W36963   6.226   0.223   4.476  0.0850 -0.0977  0.0387
20116W        W36964  13.973   8.604   2.152 -0.2510  0.1043  0.0656
20117W        W36965  15.675   2.689  14.887 -0.0084 -0.0840  0.0023
20118W        W36966   0.816   2.938   4.338 -0.1069 -0.1570 -0.2076
20119W        W36967   0.907  17.165  13.254 -0.3190 -0.1118 -0.1052
20120W        W36968   0.578  12.035  11.089  0.1645  0.1450 -0.1790
20121W        W36969  10.259   4.120   5.692 -0.0432  0.4845 -0.1950
20122W        W36970  16.130   7.629   3.525 -0.0989 -0.0238  0.1509
20123W        W36971  14.523   2.754   4.872 -0.1116 -0.0724 -0.1748
20124W        W36972  17.884   0.346   2.633  0.3754 -0.0762 -0.0016
20125W        W36973  17.050   1.558  15.162  0.1652  0.2212 -0.3666
20126W        W36974   0.286  15.690   2.982 -0.1279 -0.2066 -0.0471
20127W        W36975  11.895   5.077   2.353  0.1484  0.3278 -0.0823
20128W        W36976  16.376   3.066  11.171  0.2577 -0.0835 -0.1209
20129W        W36977   6.138  10.911   0.663  0.1611  0.1421 -0.2466
20130W        W36978   7.411   3.336  11.651  0.1103  0.0358  0.1580
20131W        W36979  13.725   4.840   2.198 -0.1276 -0.0726 -0.1955
20132W        W36980   8.963  12.824   2.140 -0.2615  0.3324 -0.1108
20133W        W36981   6.550   0.150  15.442  0.0970 -0.2198  0.5046
20134W        W36982   9.983  10.332   1.968 -0.1149 -0.0200 -0.1111
20135W        W36983   8.221   3.187   5.453  0.1548 -0.0432  0.0030
20136W        W36984   1.699   0.144  13.739 -0.0504 -0.0550  0.2597
20137W        W36985  15.358   1.765  11.480 -0.0055 -0.0505  0.3602
20138W        W36986   3.196  14.270   5.388  0.0593 -0.0079  0.0125
20139W        W36987   8.821   4.211   1.001 -0.4706  0.0051 -0.0076
20140W        W36988   4.236   7.418   1.231 -0.0981 -0.2565 -0.0814
20141W        W36989   2.007   8.633  12.350 -0.1526  0.2291  0.1711
20142W        W36990   6.785  13.144   2.984  0.0382 -0.1937 -0.1963
20143W        W36991   1.569  13.216   1.575  0.2185 -0.3414  0.0447
20144W        W36992   6.039   9.552  12.557 -0.1439 -0.3384  0.2355
20145W        W36993   4.651  11.136  12.882  0.2332 -0.3983  0.0661
20146W        W36994  12.940   4.542  16.246  0.2910 -0.0929 -0.0617
20147W        W36995   3.216  10.351   2.420  0.1001 -0.0799 -0.1801
20148W        W36996  13.827  16.196   5.125 -0.1531  0.0404  0.2028
20149W        W36997  17.151   1.005  11.323  0.0447  0.0177  0.1022
20150W        W36998   9.045   6.760   3.191 -0.1261 -0.4784  0.0388
20151W        W36999   3.232   9.672  16.088  0.0437  0.0241 -0.1109
20152W        W37000  13.206   7.405   2.124 -0.0236  0.0621  0.0549
20153W        W37001   8.744   1.706  13.977  0.2259 -0.0017  0.0170
20154W        W37002  12.890  14.558  11.912  0.1381 -0.0312  0.1662
20155W        W37003   1.381  14.543  16.131  0.1808 -0.2796  0.3495
20156W        W37004   5.455   8.253  11.213 -0.2218 -0.0891 -0.0549
20157W        W37005  17.369   4.986   4.050  0.1202 -0.0766 -0.0490
20158W        W37006   4.442  10.666   5.666 -0.0046  0.1971 -0.0453
20159W        W37007   9.464   5.494  15.855  0.2257 -0.2182  0.0306
20160W        W37008  12.447  10.278   2.163  0.1128  0.2343  0.3309
20161W        W37009  14.378   9.112  15.903  0.3380  0.3933  0.1584
20162W        W37010  12.411  10.362  14.863 -0.1249  0.4033 -0.2166
20163W        W37011   0.356  14.645  11.636  0.0335  0.6981 -0.2734
20164W        W37012  16.489   7.425  13.725 -0.0143  0.0607  0.1485
20165W        W37013  15.477   3.008  13.665  0.0206  0.2270  0.1172
20166W        W37014  16.456   3.363  16.144 -0.1809 -0.0823 -0.3720
20167W        W37015  16.624  16.018   4.235  0.1077 -0.0107  0.2978
20168W        W37016   7.885  17.203   2.925 -0.0627  0.0512 -0.1011
20169W        W37017   6.537   0.653  14.292  0.1254  0.3342  0.2381
20170W        W37018  11.297   1.248   3.279  0.2081  0.1684  0.0033
20171W        W37019   4.181  12.994  11.919  0.0235 -0.0034 -0.0441
20172W        W37020   6.304   6.680   5.541  0.3513 -0.1937 -0.3194
20173W        W37021  10.897  17.694   3.721 -0.0764  0.1425 -0.0540
20174W        W37022   4.453  13.834  11.910  0.0067 -0.1490  0.0069
20175W        W37023   5.997  14.656   0.395  0.0698  0.2348  0.3312
20176W        W37024   4.420  16.927   4.219  0.2831  0.2877 -0.2596
20177W        W37025  11.475  14.433  15.148 -0.2881  0.3224  0.0749
20178W        W37026   9.067   4.215  11.672 -0.2511  0.1245  0.3208
20179W        W37027   2.481   2.051   2.769  0.1751  0.2112 -0.1319
20180W        W37028   9.776  14.465   2.798  0.1514 -0.0104 -0.2404
20181W        W37029  14.587   7.231  11.316  0.0608  0.2030  0.0897
20182W        W37030  15.078   2.470  15.711 -0.0528 -0.1953  0.4256
20183W        W37031   7.949   7.880   4.039 -0.0856  0.3171  0.1280
20184W        W37032   1.625  10.191   1.579  0.0531  0.0089 -0.0310
20185W        W37033   4.854   5.536  10.929  0.1538 -0.0812 -0.1784
20186W        W37034  17.664  13.691  16.043  0.0824  0.1473  0.0565
20187W        W37035   2.222   5.847   1.816 -0.2047  0.0310 -0.0293
20188W        W37036   0.405  11.878  13.857 -0.1859  0.1784  0.2743
20189W        W37037   0.558  17.803   0.272  0.1397 -0.1427 -0.1895
20190W        W37038   1.740  14.179  15.257 -0.0399  0.1181  0.1173
20191W        W37039   1.455  11.805  14.184 -0.1132 -0.3798  0.2307
20192W        W37040   1.320   4.207   4.778 -0.1285  0.0700 -0.3067
20193W        W37041   3.826  17.329  13.436 -0.0433  0.2042  0.2698
20194W        W37042   1.571   1.112  15.693  0.2336 -0.0649 -0.0890
20195W        W37043   6.667   8.717  15.972 -0.0714  0.0517  0.2681
20196W        W37044   7.290   6.707   2.080 -0.1309 -0.1873  0.0113
20197W        W37045   4.193   1.572   3.212  0.0772 -0.0775 -0.4043
20198W        W37046   3.522   1.323   2.499 -0.3380 -0.1639  0.3484
20199W        W37047   6.362   3.248   3.260 -0.0036 -0.0122  0.2060
20200W        W37048   4.031   2.515   2.129  0.1343  0.0509  0.0641
20201W        W37049  16.553  16.054  13.939 -0.0740 -0.2624 -0.1292
20202W        W37050  11.949   5.295  14.410  0.0845 -0.3903 -0.2143
20203W        W37051  16.138  16.294   1.529  0.0619  0.0407  0.0933
20204W        W37052  17.061  14.129   1.207  0.2755 -0.0616  0.1256
20205W        W37053  16.575   2.211   0.860  0.2358  0.2231 -0.2717
20206W        W37054  15.569   9.043   3.492  0.1018  0.0433 -0.2077
20207W        W37055   1.825   2.334   1.526 -0.0637  0.2670  0.0838
20208W        W37056   8.424   0.286  14.186 -0.2124 -0.2417 -0.1760
20209W        W37057  12.180  15.693   4.967 -0.3679 -0.3625  0.0036
20210W        W37058  17.638   3.284   0.473  0.1983 -0.2023 -0.0169
20211W        W37059   4.446  12.346   2.071 -0.0841 -0.1817  0.2825
20212W        W37060  13.719  14.903  12.256  0.2182  0.1514 -0.2469
20213W        W37061   1.162   6.425  13.955 -0.3052  0.0847 -0.3548
20214W        W37062   5.529  10.531  16.223 -0.0602  0.0599 -0.0053
20215W        W37063  14.927  11.421  15.830 -0.2112 -0.0402  0.3781
20216W        W37064   2.829  17.211   5.302 -0.0170  0.1136  0.0684
20217W        W37065   7.924   5.680   0.801 -0.0733  0.3495 -0.1064
20218W        W37066  15.218   2.577  14.857 -0.0551  0.1782  0.0444
20219W        W37067   6.843  10.305  12.569  0.2253 -0.0279 -0.0363
20220W        W37068  10.681   8.069  12.117  0.0541  0.1604 -0.3936
20221W        W37069  16.674  10.395  11.954  0.0508  0.1931 -0.0775
20222W        W37070  12.252   6.068  14.993 -0.1139  0.3791 -0.2068
20223W        W37071  17.163  14.146   3.077 -0.0080  0.1361 -0.0699
20224W        W37072  15.497   0.872   1.873  0.0303  0.0480 -0.1756
20225W        W37073  17.448  11.100   3.818  0.4538 -0.3018  0.1836
20226W        W37074   5.414  16.855  12.242 -0.2168 -0.1292 -0.1095
20227W        W37075  10.525   2.137  16.066  0.1010  0.0899  0.0741
20228W        W37076  16.864   6.790  14.687 -0.1643 -0.2920 -0.2183
20229W        W37077  14.087   8.688  16.164  0.0041 -0.0282  0.0647
20230W        W37078   0.264   2.258  16.134 -0.1293 -0.0330 -0.1280
20231W        W37079   4.324   2.212  10.979  0.2217 -0.2702  0.1122
20232W        W37080  12.630  15.106   0.304  0.0320 -0.0427  0.1154
20233W        W37081   0.130  11.693   4.433 -0.1573  0.0279 -0.1899
20234W        W37082   2.234   4.379   5.356  0.2018  0.0571 -0.1138
20235W        W37083   0.334   8.423   1.271 -0.1268  0.0819 -0.0053
20236W        W37084  11.237   6.717   2.124 -0.3248  0.0248  0.5264
20237W        W37085  12.646   1.997   2.017  0.0561  0.0695 -0.1153
20238W        W37086   7.571   8.199  15.628 -0.2382  0.3394  0.1894
20239W        W37087   9.329  11.888   1.725 -0.1841  0.0655 -0.0178
20240W        W37088  16.356   3.051   0.984  0.1686  0.0707  0.2178
20241W        W37089   1.572  14.321   1.733 -0.1867 -0.2224 -0.0923
20242W        W37090  10.940  12.771  12.534 -0.1991 -0.0166  0.0956
20243W        W37091   1.016   2.021   4.453 -0.0088  0.2412 -0.0303
20244W        W37092  15.692   7.963  12.973  0.3806  0.1152  0.1144
20245W        W37093  10.292  10.812  11.157 -0.1102 -0.0281  0.0820
20246W        W37094  15.614   3.716  11.380  0.0901  0.2503  0.0769
20247W        W37095  10.052   2.708  15.534  0.0911 -0.0645 -0.1384
20248W        W37096  12.335  16.684  12.336  0.2988 -0.3078 -0.0367
20249W        W37097  16.933  12.067   3.031 -0.1413 -0.1090 -0.0491
20250W        W37098   9.763   4.548  12.233 -0.1591  0.3264  0.1928
20251W        W37099  15.570  13.717  15.624 -0.1192 -0.3612  0.1210
20252W        W37100  17.382  14.650   3.037  0.1510 -0.0531 -0.0529
20253W        W37101  13.581   6.831  14.759 -0.0704 -0.0392  0.1463
20254W        W37102   8.808   9.136  16.049  0.2759 -0.0533  0.0124
20255W        W37103  16.189   1.012   2.428  0.0071 -0.1805  0.0508
20256W        W37104   8.192   2.267   0.303  0.1260 -0.0506 -0.0413
20257W        W37105  12.265   5.604   3.722 -0.1108 -0.3851  0.5878
20258W        W37106   3.263   6.903  15.399 -0.2208  0.0524  0.1375
20259W        W37107  17.143   6.001   5.522 -0.2892 -0.1059  0.1850
20260W        W37108   7.894  17.451   0.491 -0.0885  0.0545  0.1275
20261W        W37109  14.246  15.829   0.624 -0.0039 -0.0329 -0.0500
20262W        W37110  17.149   4.518   4.414  0.0401  0.0229 -0.0065
20263W        W37111  16.616   9.164   0.836  0.0045 -0.2766  0.0876
20264W        W37112   4.020  11.648   0.487  0.0823  0.2056 -0.2284
20265W        W37113  13.543   8.624  16.193 -0.0056  0.2120 -0.2023
20266W        W37114  17.153  12.013   1.244  0.2019 -0.0342  0.2349
20267W        W37115   4.350  14.304   4.701 -0.0120 -0.0748 -0.0327
20268W        W37116   9.945   6.510   1.872 -0.2629  0.0074 -0.2296
20269W        W37117   3.009  12.035  11.965  0.0307 -0.0102 -0.1944
20270W        W37118   6.975   3.683  12.256  0.1416  0.2190  0.0740
20271W        W37119  16.017   7.832  15.282 -0.1290 -0.0343  0.2009
20272W        W37120  10.571   8.562   2.258  0.0087 -0.0045  0.0099
20273W        W37121  14.657   9.589  15.992 -0.1215 -0.0529 -0.3948
20274W        W37122   9.737  13.077   3.081  0.1564 -0.1799  0.0619
20275W        W37123   8.274   3.206   3.106 -0.2258 -0.0845 -0.1337
20276W        W37124   4.415   3.718  13.896 -0.0487  0.0491  0.4256
20277W        W37125   1.087   9.953  15.596  0.0207  0.4290 -0.1219
20278W        W37126   7.725  10.549  11.090  0.4213 -0.3769 -0.0248
20279W        W37127   5.958   4.562   2.858 -0.2178  0.2249 -0.0606
20280W        W37128  11.673   9.584   2.201 -0.0594 -0.1903  0.0326
20281W        W37129   3.477  15.176  12.036  0.3268  0.1277 -0.1055
20282W        W37130   6.697   1.122  14.389 -0.1715  0.2188 -0.3506
20283W        W37131  13.088   4.742   1.261  0.1471 -0.0338  0.2667
20284W        W37132   4.938  16.062  13.856  0.0484  0.3093  0.1789
20285W        W37133  15.806   7.403   0.303  0.1405 -0.0741  0.0197
20286W        W37134  11.207  14.371   5.380 -0.0067 -0.1957 -0.2406
20287W        W37135   7.244  11.143   4.665  0.1537  0.2315 -0.0215
20288W        W37136  10.902  17.735  12.095 -0.1388  0.0016  0.2929
20289W        W37137   0.103  15.142   0.412 -0.1868 -0.2647  0.0566
20290W        W37138  13.362  11.738   1.297  0.0840  0.0129  0.2195
20291W        W37139  12.458   7.613   0.231  0.0049  0.0895 -0.0181
20292W        W37140   1.289   8.322   4.531  0.0807  0.2576 -0.1532
20293W        W37141  14.165  17.038   2.195  0.1862  0.0762 -0.2716
20294W        W37142  14.078  16.646   2.536  0.4645  0.0020 -0.2542
20295W        W37143  12.165   6.987  13.899 -0.0678 -0.0055  0.1224
20296W        W37144  17.358   4.641  15.602  0.0300 -0.0138  0.1315
20297W        W37145   7.681   6.900   0.075  0.0017  0.0201 -0.0518
20298W        W37146   4.900   3.578   4.082 -0.1619 -0.0993  0.4239
20299W        W37147  16.001   4.248   1.365 -0.0431 -0.1620 -0.1274
20300W        W37148  12.139  13.165  11.856  0.1202  0.4065 -0.4109
20301W        W37149   5.975  17.619   1.060  0.0018  0.0852 -0.0748
20302W        W37150   9.904  14.300  14.956  0.0734  0.2152  0.1779
20303W        W37151   6.934   3.242  11.908 -0.2113 -0.0868  0.2647
20304W        W37152   3.389  17.372   1.806  0.1386 -0.1307  0.0090
20305W        W37153  11.754   7.471   2.675  0.1786  0.0874  0.1941
20306W        W37154   9.079   0.389   3.002  0.1232 -0.3044  0.0872
20307W        W37155  16.047   1.570  12.454  0.1724  0.2310 -0.1722
20308W        W37156  17.875   5.478   5.213  0.1375  0.1076  0.0817
20309W        W37157   6.624  11.326  16.257 -0.0180  0.0718  0.1184
20310W        W37158   6.736  10.108   3.742  0.0537 -0.0688 -0.0772
20311W        W37159  15.510   2.375  10.195  0.1308  0.4335 -0.0166
20312W        W37160  13.403  16.201   4.298 -0.2263 -0.0377  0.0851
20313W        W37161   8.173   0.120   3.194 -0.2413  0.0638  0.1472
20314W        W37162   3.306   4.447   1.897  0.0095 -0.4224  0.5293
20315W        W37163   9.653   9.969  12.871 -0.0111 -0.0726 -0.1459
20316W        W37164   6.960   0.344  15.595 -0.2710 -0.0082 -0.0552
20317W        W37165   9.700  12.144  12.148 -0.0042 -0.0983 -0.0483
20318W        W37166   4.171  13.057  12.818 -0.3539  0.1634  0.1251
20319W        W37167  17.070   7.625  12.886  0.0922 -0.0536 -0.1570
20320W        W37168   7.386   6.977   2.825  0.0972 -0.2092  0.1769
20321W        W37169  12.031  11.986   1.659 -0.1640  0.0994 -0.2257
20322W        W37170   1.433  17.997   2.036  0.3265 -0.0854 -0.0296
20323W        W37171  11.765   9.139  15.256  0.0572 -0.0097  0.1890
20324W        W37172  13.425  12.279   1.408 -0.1087  0.0793 -0.0937
20325W        W37173  11.878   6.801  14.346  0.1477  0.1478 -0.0002
20326W        W37174  11.008   7.847  15.470  0.1337  0.2737 -0.2127
20327W        W37175   2.290   0.709  16.157 -0.1551 -0.2265 -0.2119
20328W        W37176  13.910  17.157   3.084 -0.1837 -0.2307 -0.1149
20329W        W37177   6.463   3.361   3.712  0.0769 -0.1736  0.1748
20330W        W37178   6.504   3.418  13.527 -0.1077 -0.2612 -0.0240
20331W        W37179  14.377   5.780  15.432  0.1337 -0.0313 -0.3911
20332W        W37180   6.420  10.842  16.101  0.1464  0.2896 -0.2951
20333W        W37181  16.636  14.837  11.156  0.2778 -0.0270 -0.0787
20334W        W37182  10.811  15.343   0.992  0.1076 -0.0231 -0.0659
20335W        W37183  16.582   8.849   4.212  0.0787 -0.0100  0.3627
20336W        W37184   7.129   7.758  13.793  0.1687 -0.1266  0.2362
20337W        W37185   7.183  12.143   0.335 -0.0596 -0.0217 -0.0771
20338W        W37186   5.423  14.046  15.597  0.1262  0.0544  0.1244
20339W        W37187  11.357  13.790  14.232 -0.0366  0.0526  0.2412
20340W        W37188  12.325   0.399  13.822  0.1524  0.3528  0.1279
20341W        W37189   6.106   0.044   1.239 -0.2275 -0.2157  0.0166
20342W        W37190  17.171   7.991   2.452  0.1187 -0.3176 -0.0865
20343W        W37191   5.776  10.087  16.054 -0.0918 -0.0823 -0.3176
20344W        W37192  15.308   2.365   2.568  0.1681  0.0281  0.5067
20345W        W37193   2.792  12.642   4.092  0.2476  0.0012 -0.0952
20346W        W37194  17.428  14.821   3.495  0.1109 -0.0154 -0.1605
20347W        W37195  17.793   3.370  15.576 -0.0178 -0.1155 -0.2136
20348W        W37196   6.059  14.218   3.050  0.2992 -0.1740  0.3842
20349W        W37197  15.161  12.063   2.871  0.3695 -0.1332 -0.1542
20350W        W37198  17.269  16.002  11.224 -0.2655  0.0074 -0.2697
20351W        W37199   0.243   5.508  14.755  0.0320  0.2481 -0.1459
20352W        W37200   8.105  16.728   2.408  0.0321 -0.0255 -0.0148
20353W        W37201  13.100   9.638  12.577  0.2005 -0.1940  0.2619
20354W        W37202  16.902   0.371  15.813  0.0762 -0.1053  0.0081
20355W        W37203  16.762   7.765  16.187 -0.2198 -0.1962  0.0142
20356W        W37204   4.003  16.423  10.373  0.3466 -0.1228  0.0754
20357W        W37205  13.407  16.284  15.577 -0.0383  0.2486 -0.2560
20358W        W37206   7.793   0.099  13.440  0.0339  0.1533  0.1596
20359W        W37207  10.752  11.837   0.303  0.1127  0.1299 -0.0477
20360W        W37208  13.979  14.237  14.996  0.1253  0.0205 -0.0795
20361W        W37209   8.200  15.130  16.219  0.1724 -0.0446  0.1293
20362W        W37210  15.848  16.513  13.564  0.0600 -0.0082  0.1019
20363W        W37211  17.860  16.672  14.095  0.0237  0.1483 -0.0084
20364W        W37212   0.009  14.433   5.279 -0.2729 -0.0861  0.0347
20365W        W37213   4.230   7.776  13.825 -0.2111 -0.1162  0.2032
20366W        W37214  16.517  16.646  10.783 -0.1711  0.4335 -0.2034
20367W        W37215   7.190   3.951  15.596 -0.2925  0.0126  0.0803
20368W        W37216   3.689   9.250   4.037  0.1830  0.4362  0.0010
20369W        W37217   0.830  11.043  15.507 -0.0338 -0.1339 -0.3311
20370W        W37218   5.547  17.581   5.389 -0.2201 -0.3176 -0.0548
20371W        W37219   2.926   1.268  14.316  0.0514 -0.0740 -0.2587
20372W        W37220   6.186   7.460  13.177  0.1042 -0.1824 -0.2651
20373W        W37221   0.158  14.041   4.987 -0.1763 -0.0285 -0.2904
20374W        W37222   9.437  15.729   5.005  0.2599  0.1947 -0.0327
20375W        W37223   4.384  16.839  14.287  0.0035  0.1740 -0.1263
20376W        W37224  13.759   7.002  14.262  0.1467 -0.2300  0.0516
20377W        W37225   4.373   3.152  11.016 -0.0047 -0.0857 -0.2511
20378W        W37226   5.571  14.668  15.268 -0.1800 -0.0853 -0.0210
20379W        W37227  12.600   6.513  16.186 -0.1708  0.3455  0.0997
20380W        W37228   4.169   0.434  12.822  0.5365 -0.3663 -0.2830
20381W        W37229  12.158   4.473  11.452 -0.0489 -0.0086 -0.0023
20382W        W37230   6.545  12.087   4.790 -0.1452  0.1905 -0.3087
20383W        W37231   0.267  12.742  16.227  0.1052  0.1386 -0.4265
20384W        W37232  17.406  13.785   2.807  0.0865 -0.0587  0.0476
20385W        W37233  15.867   0.030  12.772 -0.2461  0.1537 -0.0290
20386W        W37234  15.226  10.141  13.711 -0.2265  0.0897 -0.1141
20387W        W37235   1.001   0.645  13.414  0.0357  0.1428  0.1954
20388W        W37236   5.551  12.166   4.780  0.1713  0.0748  0.0386
20389W        W37237   4.105  13.025  15.616 -0.2469  0.0972 -0.2889
20390W        W37238  10.780   2.033  15.659 -0.0908  0.2989  0.0102
20391W        W37239   2.638   1.135  16.164  0.0875  0.2609 -0.3347
20392W        W37240  14.211  17.752  11.334  0.0402 -0.2087 -0.3418
20393W        W37241   2.285  17.540  12.801  0.0572 -0.2777 -0.1665
20394W        W37242  13.712  10.446   1.779  0.0245 -0.0077 -0.2446
20395W        W37243   9.029   2.920  11.489  0.0922 -0.3523  0.0060
20396W        W37244   8.809   8.189   0.802 -0.1830  0.4728  0.0407
20397W        W37245  11.666   9.385  14.641 -0.0834  0.1740  0.0770
20398W        W37246   1.806  11.507  13.286  0.2300 -0.1135  0.0515
20399W        W37247  17.672   9.911   3.321 -0.0291  0.4676  0.0018
20400W        W37248  13.895   8.158   3.522  0.0042 -0.3502 -0.0044
20401W        W37249   3.213   8.658   5.317  0.1341  0.0598 -0.1323
20402W        W37250   7.160   3.973  13.895  0.2362 -0.1954 -0.1685
20403W        W37251  15.057   6.358  13.985 -0.2282 -0.1314  0.1453
20404W        W37252  10.929   5.325   4.197  0.1035 -0.0158 -0.1681
20405W        W37253   3.171  11.793  16.193 -0.0763  0.1143  0.1989
20406W        W37254   6.443   1.330  16.123  0.0629 -0.2319 -0.2306
20407W        W37255   9.518  16.390  13.433 -0.0706 -0.0523  0.4949
20408W        W37256   7.794   0.048   1.532  0.1240  0.2311  0.0496
20409W        W37257   9.093   3.275   1.673  0.0645  0.0194 -0.3190
20410W        W37258  11.567   5.047   2.821  0.2624  0.0907 -0.0922
20411W        W37259  14.727   4.110   4.920 -0.0360 -0.0089  0.1728
20412W        W37260  12.330   6.762   3.117 -0.0326 -0.1531 -0.2144
20413W        W37261  12.917  10.897  16.203  0.2179  0.2192  0.1480
20414W        W37262   6.785   5.801   4.963  0.0260  0.1334 -0.3048
20415W        W37263  17.652  17.335   1.635 -0.0789  0.0057  0.1457
20416W        W37264  16.027  12.618  14.853 -0.2130 -0.0440  0.1484
20417W        W37265  13.575  17.603   2.617 -0.2920  0.1931  0.0370
20418W        W37266   3.542   7.090  11.731 -0.1696  0.0916 -0.6003
20419W        W37267   3.444  11.580  12.188 -0.0338 -0.0260 -0.1407
20420W        W37268   8.600  14.425   3.909 -0.0649 -0.2316 -0.0459
20421W        W37269   8.088   1.573   3.331 -0.2702  0.0354 -0.1630
20422W        W37270   1.397   9.135  10.711 -0.1463 -0.1359 -0.0321
20423W        W37271  10.682   8.584   5.630  0.1039  0.1543  0.0690
20424W        W37272   5.256   5.394   3.552 -0.4332 -0.1809 -0.2667
20425W        W37273   3.578  16.544  13.107 -0.0296 -0.0815 -0.4186
20426W        W37274  17.652   6.354   0.650 -0.0503  0.0167 -0.3854
20427W        W37275   2.373   8.417   0.806 -0.0971  0.0898 -0.2320
20428W        W37276   5.566  14.533   5.297  0.1111  0.1086 -0.3312
20429W        W37277   8.011   3.406  15.007  0.3491 -0.2401 -0.0368
20430W        W37278  12.821  15.209  15.472  0.3297 -0.0209 -0.1365
20431W        W37279   7.637  13.814   2.968 -0.0004 -0.0763 -0.0366
20432W        W37280  14.666  13.186  12.833  0.0052 -0.1178 -0.0191
20433W        W37281  16.135  12.606   4.841  0.0263 -0.1224  0.0850
20434W        W37282   3.134   6.267   1.875 -0.0033 -0.0316  0.1033
20435W        W37283   3.034   8.793   0.104 -0.1049 -0.3545  0.2975
20436W        W37284   5.607   0.872   5.402  0.0206  0.1101 -0.0284
20437W        W37285   0.834   3.162  15.312  0.4014 -0.2192 -0.0970
20438W        W37286  10.568   3.286   0.352  0.1071 -0.0495  0.1142
20439W        W37287   3.851   0.647  11.824 -0.3343  0.3173 -0.0994
20440W        W37288  15.705   8.056  11.442 -0.0395  0.1249  0.0919
20441W        W37289   9.556  14.637   4.733 -0.0198  0.0330 -0.1980
20442W        W37290   2.917   3.073   2.144  0.3065 -0.0324 -0.1848
20443W        W37291   3.365  10.589   1.970  0.0577 -0.2823  0.0714
20444W        W37292  12.480   9.925   1.661 -0.1350 -0.5024 -0.0612
20445W        W37293  14.555  13.293   3.280  0.1211  0.0154 -0.2212
20446W        W37294   6.596  10.049   4.652  0.1148  0.0443 -0.2636
20447W        W37295   1.450   1.930   0.521  0.0640  0.2610  0.1996
20448W        W37296   1.844  16.337   3.564 -0.0067 -0.1249  0.0587
20449W        W37297   9.211   7.116  15.247  0.1518  0.2164  0.1952
20450W        W37298  17.614  16.683  12.224 -0.2306 -0.1729 -0.2336
20451W        W37299  17.404   6.655  16.028  0.3613 -0.0676  0.0220
20452W        W37300   1.430  14.290  11.110 -0.0657 -0.0203 -0.1332
20453W        W37301   4.148   6.968  15.426  0.0538  0.0826  0.0289
20454W        W37302  12.541  17.969   5.708  0.0785  0.1377 -0.0761
20455W        W37303  15.020  16.009   3.925  0.1987  0.4258  0.0905
20456W        W37304  17.328   2.248  10.811 -0.0303 -0.0655 -0.1290
20457W        W37305  11.145   9.973   2.645  0.2303 -0.1796  0.0574
20458W        W37306   5.567   5.759  15.060 -0.1142 -0.1361 -0.1037
20459W        W37307   6.905   6.497  11.376 -0.0524 -0.0815  0.3066
20460W        W37308   5.421   1.956   2.173 -0.1791 -0.4460  0.3515
20461W        W37309  13.906   5.039  15.451 -0.1548 -0.0334 -0.0961
20462W        W37310   0.627   8.591   0.880  0.0499  0.1615 -0.2038
20463W        W37311  14.053  12.250   0.014 -0.0199  0.0851 -0.2642
20464W        W37312  17.757  16.821  16.184 -0.2309 -0.1899  0.0119
20465W        W37313  14.946   8.141   1.667 -0.0320 -0.0401  0.1131
20466W        W37314   6.526  17.647  15.325  0.2116 -0.0115 -0.3975
20467W        W37315   2.967  10.814   5.271  0.1444  0.0157  0.0953
20468W        W37316   5.118   0.146   5.335  0.0555  0.0682 -0.1551
20469W        W37317  14.077   7.332   3.531 -0.3802  0.3545 -0.0058
20470W        W37318   1.193  12.288   2.546  0.1358  0.1702  0.1182
20471W        W37319   0.778  10.561   4.672  0.2865 -0.1248 -0.2426
20472W        W37320  10.894   3.353  14.032 -0.3322 -0.0171  0.4364
20473W        W37321   8.683  12.689   5.254 -0.1314 -0.1457 -0.0163
20474W        W37322   4.820  15.998  15.200  0.1047  0.0201 -0.2215
20475W        W37323   4.084   4.422  12.721 -0.1179 -0.0526 -0.1851
20476W        W37324   5.077   4.713  15.339  0.1080  0.0110  0.1382
20477W        W37325   2.662  15.232  15.001  0.1186 -0.2602  0.0258
20478W        W37326   9.495   8.804  11.891 -0.0063 -0.3182  0.1739
20479W        W37327   3.349   3.942  12.857  0.0018 -0.3892  0.0868
20480W        W37328  11.539   5.002  15.979 -0.0767  0.1004  0.3006
20481W        W37329  12.218  17.362  15.683 -0.1686  0.2001  0.0004
20482W        W37330   1.751  17.466  15.539  0.0803  0.0036 -0.0930
20483W        W37331   4.557   4.606   2.745  0.0595 -0.0090  0.0457
20484W        W37332   6.360   1.206   0.380 -0.3966  0.2315 -0.1178
20485W        W37333  10.282   8.160   1.464  0.0498 -0.2113 -0.2697
20486W        W37334  13.075   3.319  13.244 -0.4304  0.3270  0.2329
20487W        W37335  14.869  15.785   4.850 -0.0444  0.0164  0.1120
20488W        W37336  11.439   3.074   2.514  0.0761 -0.1621 -0.3043
20489W        W37337   9.640   4.723   2.572  0.3591 -0.2095  0.1784
20490W        W37338   0.536   9.730   3.327 -0.0540 -0.1977  0.3278
20491W        W37339   9.100   9.124  14.012 -0.1510  0.0646 -0.3402
20492W        W37340   4.509   5.000  11.466 -0.1271 -0.0384 -0.1375
20493W        W37341  11.426   1.768  11.229  0.2765  0.0083  0.1802
20494W        W37342  13.911   7.174  10.513 -0.1003  0.0813  0.0596
20495W        W37343   9.230   2.411   1.540  0.0013  0.0009 -0.1111
20496W        W37344   0.491   4.060   3.104  0.2364  0.2176 -0.1119
20497W        W37345  16.110  15.713  11.730  0.0751 -0.1273 -0.3188
20498W        W37346   7.184  17.015   1.185  0.0294 -0.2727  0.1782
20499W        W37347   7.892   9.252   2.157  0.1054  0.0392 -0.0755
20500W        W37348  15.568   8.513   0.477  0.0819 -0.1398 -0.0133
20501W        W37349   8.979   9.787   4.280 -0.2880  0.1457 -0.1268
20502W        W37350   4.105  13.536  11.783  0.0767  0.4243 -0.2822
20503W        W37351  10.535   3.189   5.476 -0.1266  0.0192  0.2349
20504W        W37352   7.109   8.425   0.979  0.0967 -0.0019 -0.0110
20505W        W37353  15.961  16.788   1.459  0.0726 -0.2168  0.0529
20506W        W37354  15.685  12.657   4.419 -0.2875  0.1650 -0.0257
20507W        W37355  14.781   2.837  14.569 -0.0439  0.0276 -0.5375
20508W        W37356   2.346   4.177   1.439  0.0401 -0.0489 -0.1820
20509W        W37357  13.109  13.131  15.842  0.1373 -0.1909 -0.1524
20510W        W37358  13.098   3.951   0.912 -0.0389  0.0035 -0.1751
20511W        W37359   0.060   6.520   0.783  0.0281 -0.1761  0.1120
20512W        W37360   8.699   2.406  10.646  0.0064  0.2203 -0.1406
20513W        W37361  16.811   7.523   1.563  0.2096 -0.1333 -0.0440
20514W        W37362   9.004  12.351   1.857  0.1027  0.0782 -0.4103
20515W        W37363  16.949  17.787   2.950 -0.0014  0.0941 -0.2318
20516W        W37364   0.261  14.672   0.560  0.2270  0.1647  0.3021
20517W        W37365  11.781  14.484   4.914 -0.0631  0.2023  0.4659
20518W        W37366  13.547  10.546  13.676 -0.0467  0.2995 -0.4511
20519W        W37367  11.996   0.364   3.278 -0.2461  0.2756  0.0407
20520W        W37368  12.510  16.326   2.626  0.0440  0.1964  0.0467
20521W        W37369  17.878  11.006  13.980 -0.0822 -0.0298 -0.1724
20522W        W37370  13.969  11.974   4.552 -0.0884 -0.1784  0.0899
20523W        W37371   5.069  10.525   0.273 -0.2352 -0.2688  0.3585
20524W        W37372  10.459   8.153  13.981 -0.0356  0.2449  0.0000
20525W        W37373   7.238   1.355   3.250  0.0455  0.4366 -0.0188
20526W        W37374   4.066   7.632   0.131  0.1566  0.3198  0.2371
20527W        W37375  12.860  11.202   1.959 -0.2698 -0.0312 -0.1521
20528W        W37376   8.432   2.191   2.072 -0.3322  0.0690 -0.1725
20529W        W37377   5.599   6.314   5.136 -0.1136  0.4318  0.0804
20530W        W37378   7.755  11.982  14.443 -0.1035  0.3537 -0.0868
20531W        W37379   8.467  15.767  12.626 -0.0058  0.0180  0.0547
20532W        W37380   0.102   5.559   0.763  0.0316  0.0532  0.1122
20533W        W37381   4.967   8.992   4.061  0.1140  0.0785  0.0874
20534W        W37382  17.041   9.300  14.510  0.3265 -0.0482  0.3420
20535W        W37383   6.158   1.918   1.425  0.0331 -0.1896 -0.1261
20536W        W37384  14.167  17.716  14.003  0.0833 -0.1231  0.0171
20537W        W37385  11.509   1.632  15.187  0.1046 -0.1089 -0.0746
20538W        W37386   6.976  10.419  14.822 -0.0284 -0.1286  0.0629
20539W        W37387   1.224   2.967  11.617 -0.0397  0.1799 -0.1254
20540W        W37388   2.373  17.179  10.741 -0.3444  0.3149 -0.0722
20541W        W37389  11.302   7.062  11.603 -0.1262 -0.3113  0.0376
20542W        W37390  12.747   7.924   2.523  0.0679 -0.1393  0.0696
20543W        W37391   6.293  14.922   3.482 -0.1459  0.0845 -0.0254
20544W        W37392   7.748   9.816  15.044  0.0983  0.0690  0.0068
20545W        W37393   3.730   9.592   5.209  0.0393  0.1089 -0.0986
20546W        W37394   5.152  14.811   0.926 -0.1336  0.0752  0.1507
20547W        W37395  16.436   2.370  16.192 -0.2286  0.1039  0.2629
20548W        W37396   4.306   8.785   0.437  0.2885  0.0162 -0.2455
20549W        W37397   0.534  13.828   2.006 -0.0109  0.0129  0.0621
20550W        W37398   7.836  16.951   5.460  0.2826  0.1469  0.0055
20551W        W37399   2.859   3.163   0.688  0.0813 -0.1529  0.1233
20552W        W37400   6.511   7.238  11.943  0.0071  0.0958 -0.1888
20553W        W37401  10.366   5.502  15.314  0.0616 -0.2676  0.1638
20554W        W37402   2.833  15.962  11.983  0.1231  0.0248  0.0104
20555W        W37403   3.158   7.393  11.643 -0.0729 -0.2132  0.0692
20556W        W37404   0.065  15.804  10.155 -0.2216  0.1859 -0.2914
20557W        W37405  11.614   9.773   3.029  0.3491  0.1866 -0.0836
20558W        W37406  17.606  12.290   4.785 -0.4790 -0.0968  0.2422
20559W        W37407  16.887   5.117   1.620 -0.0340  0.2020  0.0908
20560W        W37408   6.331  14.494   0.010 -0.0115  0.1000 -0.1986
20561W        W37409   4.404   6.869  14.782 -0.2107  0.1581 -0.0975
20562W        W37410   9.011   4.269   4.202 -0.0333 -0.3099 -0.4544
20563W        W37411   4.436  10.199   0.724  0.0171  0.0132  0.2253
20564W        W37412  11.081   2.900   0.421 -0.1649 -0.2542  0.2715
20565W        W37413  12.545   1.711   3.190  0.0743  0.1800 -0.1689
20566W        W37414   5.741  13.783  15.332  0.1473  0.0592  0.2568
20567W        W37415   8.805  12.021  12.636 -0.1372  0.0060 -0.4081
20568W        W37416  13.147   3.891  11.695 -0.0958  0.1695  0.1615
20569W        W37417  12.763  14.225  13.112  0.0365  0.0137 -0.0398
20570W        W37418   3.185  11.681   4.020 -0.4360 -0.2453  0.2054
20571W        W37419  16.148   5.357   3.214 -0.0433 -0.0365  0.0160
20572W        W37420   0.981   2.162   3.336 -0.0201  0.2130  0.3021
20573W        W37421  11.150  16.029   2.214 -0.2936  0.2452  0.1708
20574W        W37422  16.385  16.566  11.892  0.1547  0.0815  0.1575
20575W        W37423  11.285  13.756   0.804 -0.2596  0.1090 -0.2535
20576W        W37424   9.519  17.507  12.911 -0.0692 -0.0794 -0.1512
20577W        W37425   6.747   0.312  13.835 -0.2324 -0.1132 -0.0785
20578W        W37426  13.469   7.828   2.046  0.0356  0.2115  0.1742
20579W        W37427   9.538   4.676  15.433 -0.1512 -0.0052  0.2087
20580W        W37428  12.811   6.357   4.813  0.0661  0.1447 -0.2094
20581W        W37429  16.696  10.462   2.728  0.0709  0.0257 -0.3226
20582W        W37430  17.610  17.600  13.198 -0.1142  0.2338 -0.0532
20583W        W37431  13.078  16.798   3.059  0.0513  0.1846 -0.0088
20584W        W37432   2.373   9.701   5.243 -0.0329 -0.1288 -0.0154
20585W        W37433  17.766   7.772   2.565  0.0955  0.0723  0.1138
20586W        W37434  10.174   1.179  12.602 -0.0275  0.0939  0.0385
20587W        W37435  17.504   5.916  13.359  0.3071 -0.2106 -0.2302
20588W        W37436   5.278   7.663  15.948  0.2532  0.0221  0.2904
20589W        W37437  11.535   0.916  12.493  0.0049  0.0457 -0.0332
20590W        W37438   2.278   7.145  14.398  0.1519  0.1207 -0.1572
20591W        W37439   5.859  15.524   5.014 -0.0299  0.1405  0.0977
20592W        W37440   2.340   4.371   3.674 -0.4609 -0.0727 -0.0096
20593W        W37441  14.615   2.770  11.988 -0.3888 -0.0277 -0.1325
20594W        W37442  10.449   9.818  14.927 -0.0267 -0.1114 -0.0952
20595W        W37443  10.008   9.448  11.223  0.0070 -0.0378 -0.1948
20596W        W37444   6.270   3.288   0.859 -0.0896 -0.0062  0.0168
20597W        W37445  18.040   0.129   0.494  0.0280 -0.1321  0.0100
20598W        W37446  10.787   7.346  14.269 -0.1228 -0.1432  0.3624
20599W        W37447   7.837   1.143   3.340  0.0602 -0.2664 -0.0374
20600W        W37448   8.919   1.338  15.851 -0.0954  0.0420  0.3421
20601W        W37449   4.067  16.706  11.622  0.0147  0.0278 -0.2759
20602W        W37450   7.766  17.645  12.299 -0.1339 -0.0772 -0.0149
20603W        W37451   4.957  12.354   2.743  0.1023 -0.3855 -0.3486
20604W        W37452   3.829   2.404  12.651  0.1452 -0.1738 -0.0928
20605W        W37453   9.862  15.046   3.758 -0.1327  0.1916 -0.2317
20606W        W37454   6.397  16.255   0.392 -0.0024  0.1535  0.0742
20607W        W37455  10.380   9.693   4.835  0.0031 -0.2903 -0.0945
20608W        W37456   2.377   2.664  14.302  0.1680 -0.2891 -0.2127
20609W        W37457   8.362   3.217  14.590 -0.0450  0.2016  0.1337
20610W        W37458  17.497   1.409  11.194  0.3216 -0.1792  0.0001
20611W        W37459   4.234  13.464   1.211 -0.2568 -0.3711 -0.1120
20612W        W37460   8.124  12.749  10.772  0.1600 -0.0223 -0.2520
20613W        W37461   1.797   0.108  15.597 -0.1718 -0.0595  0.1168
20614W        W37462   3.989   8.648  14.225 -0.0249 -0.0543 -0.0535
20615W        W37463  16.872   3.446   3.191  0.2836  0.2400 -0.1054
20616W        W37464  14.219  10.971  15.510  0.2331 -0.1388  0.2843
20617W        W37465  14.136  10.072   2.652  0.4227  0.1073  0.1901
20618W        W37466   7.874   1.127  13.064 -0.0791  0.1674  0.3204
20619W        W37467   5.583   7.701   1.587 -0.2237  0.2696 -0.0201
20620W        W37468   5.732   7.592  16.236 -0.3928  0.1060 -0.2217
20621W        W37469  17.625  16.050  14.866  0.1582 -0.1139 -0.1097
20622W        W37470  17.675   6.849  12.572  0.0304  0.1647  0.0051
20623W        W37471  15.284   6.991   2.226 -0.1131  0.0215 -0.1512
20624W        W37472   4.380   5.357  13.745  0.4262  0.1489 -0.0453
20625W        W37473   8.065   0.892   0.444 -0.0178  0.2605 -0.1134
20626W        W37474   4.654   8.214  12.942 -0.1206  0.1285 -0.0135
20627W        W37475   9.169  10.764  13.566  0.1640  0.0039 -0.0572
20628W        W37476  10.787   7.472  12.743 -0.0685  0.0452  0.3230
20629W        W37477   1.430  12.672   5.303 -0.1579 -0.2705 -0.2012
20630W        W37478   6.161   8.963  12.028 -0.0093 -0.0173 -0.3178
20631W        W37479  16.407  13.055  16.275 -0.1356 -0.1172 -0.0133
20632W        W37480  12.542  15.960  14.591 -0.3004 -0.1851 -0.1211
20633W        W37481  14.548   1.025   1.306  0.1506  0.1143  0.1287
20634W        W37482   6.272  13.966   3.795 -0.2606 -0.1982 -0.1194
20635W        W37483   2.460   5.102   2.251 -0.0305 -0.0232 -0.1968
20636W        W37484  17.220  10.264   4.802  0.0908  0.0400 -0.1810
20637W        W37485   9.335  17.276   2.109 -0.2573  0.3704  0.1335
20638W        W37486  11.812   1.143   3.363  0.0813  0.0477 -0.0964
20639W        W37487  13.703  10.823   3.070 -0.2011  0.0967 -0.2636
20640W        W37488   6.878  10.922   4.262 -0.2735  0.0798 -0.0369
20641W        W37489   8.559   1.388   3.142  0.0454  0.1300  0.1368
20642W        W37490   5.547   4.906  12.969 -0.1589 -0.1437  0.0028
20643W        W37491   1.562   5.481  14.695 -0.1513 -0.0339  0.0415
20644W        W37492   7.057  15.004  14.364  0.0689  0.1247 -0.1336
20645W        W37493  10.177  11.809  13.913 -0.3553  0.1234 -0.2644
20646W        W37494   4.003  12.540  15.177  0.3001  0.0125 -0.0445
20647W        W37495   9.156   9.896  13.745  0.3201 -0.1708  0.0484
20648W        W37496   7.925   0.789   5.684  0.2690  0.2458 -0.1758
20649W        W37497   5.839  12.714  13.903  0.0122 -0.1452 -0.1809
20650W        W37498  11.865  13.968  13.520 -0.2150 -0.1065  0.0578
20651W        W37499  13.067   8.795   2.385 -0.0144  0.0714 -0.0491
20652W        W37500   3.284  15.482   2.366  0.1820  0.3493 -0.0852
20653W        W37501   4.896  13.816   2.960  0.0529  0.2431 -0.0067
20654W        W37502   4.843   4.751  14.522  0.0162  0.1407  0.2320
20655W        W37503   3.985  17.204   0.919  0.2507  0.0066 -0.3279
20656W        W37504  16.072   9.143   1.668  0.0596 -0.1964  0.0009
20657W        W37505   1.439   5.227   3.196 -0.1496  0.1121  0.0489
20658W        W37506  12.363   2.577   4.723  0.1456  0.0455  0.2901
20659W        W37507  14.086   0.867   3.185 -0.0735 -0.2343 -0.1434
20660W        W37508  16.194   8.769  12.039  0.0156 -0.1601 -0.1136
20661W        W37509  11.081  14.318  16.268 -0.1375 -0.0823  0.0675
20662W        W37510   0.734   1.946   4.910  0.0056 -0.1565  0.4301
20663W        W37511   0.285   2.388   1.775  0.0600  0.2905  0.2645
20664W        W37512   5.749   2.914  11.224 -0.0091 -0.0524 -0.1424
20665W        W37513  12.797   1.835  15.551  0.1255 -0.0533 -0.0362
20666W        W37514   3.860  11.078   2.642  0.1196  0.1388 -0.1666
20667W        W37515   2.330  10.832   1.042  0.0687 -0.1052  0.2161
20668W        W37516   2.586  11.605   2.557  0.0207  0.1287 -0.2059
20669W        W37517  11.841   6.635   0.858  0.1359 -0.0780 -0.2316
20670W        W37518   3.210  17.036  15.125  0.0301  0.1801  0.1058
20671W        W37519   6.612  15.597  15.007  0.0835 -0.0315 -0.2690
20672W        W37520   5.290   8.938   2.459 -0.0162 -0.1866  0.1256
20673W        W37521  15.429  15.201   4.195  0.1000  0.1849  0.0947
20674W        W37522   7.800  11.294   0.100 -0.2951 -0.0158  0.3125
20675W        W37523   1.201   8.655  10.287  0.3401  0.1110 -0.0642
20676W        W37524   1.177  10.439   0.193  0.1985  0.3270 -0.1512
20677W        W37525   1.533   1.477   1.979 -0.1515  0.2537 -0.0655
20678W        W37526   0.685   1.438   0.061  0.1781  0.2397  0.2463
20679W        W37527   1.781   5.758  11.550  0.2284 -0.1058  0.0582
20680W        W37528   2.357  10.082   1.496 -0.0508 -0.0626 -0.0545
20681W        W37529   9.644   7.473   3.984 -0.0814  0.2067 -0.0889
20682W        W37530   7.856   6.791  14.636 -0.0467  0.0849 -0.0730
20683W        W37531  10.868   3.898  15.533  0.0847  0.0969 -0.0529
20684W        W37532  13.651  13.968   2.881  0.1314  0.0331 -0.3750
20685W        W37533   8.480   0.092   0.052 -0.0691 -0.1478 -0.3593
20686W        W37534   5.220  10.555   1.916 -0.1952  0.0820  0.0482
20687W        W37535   7.572  14.216   3.747  0.0718  0.0363 -0.3338
20688W        W37536   5.858   0.609  12.807 -0.1533 -0.0776 -0.1207
20689W        W37537  13.433  10.827   3.467  0.0395  0.0964 -0.0610
20690W        W37538   9.900  17.175   2.703  0.0439 -0.0019  0.0002
20691W        W37539   6.983  17.840   5.552 -0.0575 -0.0465  0.2139
20692W        W37540   1.368   9.414   0.029 -0.3002  0.0758 -0.1134
20693W        W37541  15.322   7.520   1.371  0.1791 -0.1042 -0.2205
20694W        W37542   8.716   8.999  11.279  0.2279 -0.1446 -0.1258
20695W        W37543   7.422   6.528   4.557  0.0857 -0.0778 -0.1210
20696W        W37544  17.937   8.319  11.272  0.1286  0.1662 -0.3770
20697W        W37545   3.666  14.976   1.161  0.0200 -0.2033  0.1962
20698W        W37546  16.548   9.052  13.602  0.0908 -0.1354 -0.1471
20699W        W37547   7.350  13.506  13.752  0.1652 -0.3284 -0.3037
20700W        W37548   0.420  12.885  15.422 -0.0256 -0.1107 -0.0392
20701W        W37549  13.189  14.959  15.791 -0.1831 -0.2868  0.1299
20702W        W37550  13.475  16.175  16.152  0.1263 -0.2075 -0.1352
20703W        W37551  13.191   7.103   0.893  0.2875 -0.0113  0.1746
20704W        W37552  11.960   6.057  13.587  0.0660  0.1163  0.0690
20705W        W37553  11.512   0.709   1.703  0.0202  0.0741 -0.0426
20706W        W37554   0.838   4.699   2.342 -0.0450  0.0448 -0.2681
20707W        W37555   6.828   6.887  13.752  0.1588 -0.1896 -0.1108
20708W        W37556   6.697  12.259  16.117  0.0408 -0.1689 -0.1790
20709W        W37557  13.777   2.196   0.894 -0.0867  0.1372  0.0017
20710W        W37558   6.400  14.033   1.517 -0.3815  0.1091  0.1545
20711W        W37559  15.445   0.525  12.338  0.0666 -0.1151 -0.2518
20712W        W37560   6.512  17.900   4.425  0.1351 -0.0396 -0.0635
20713W        W37561  10.242   0.368   0.478  0.0062  0.0974 -0.2701
20714W        W37562   7.960   3.130   0.287  0.0190  0.0027  0.0084
20715W        W37563   7.474   2.615  11.553  0.1161  0.1927  0.0288
20716W        W37564   9.231   2.679   2.657 -0.1386 -0.0787  0.2308
20717W        W37565  15.910   0.294  15.650 -0.1345  0.1122 -0.0987
20718W        W37566   4.662   5.035   3.698  0.1012 -0.1243  0.0172
20719W        W37567   6.283   7.384   0.282  0.5442 -0.2559 -0.0697
20720W        W37568   4.889   7.493   0.138  0.0602 -0.1770  0.2901
20721W        W37569   8.891   7.053  14.772 -0.0152 -0.3263  0.0450
20722W        W37570  15.586  16.799  12.516  0.2346 -0.1832  0.2200
20723W        W37571  17.835   9.528  10.993 -0.1595 -0.2860 -0.1197
20724W        W37572  14.759  15.979   1.747 -0.0707 -0.0268 -0.0919
20725W        W37573  15.724   1.340  11.632 -0.0654  0.1699  0.0853
20726W        W37574   3.765   5.894   5.482  0.0722  0.1218  0.2766
20727W        W37575  12.455  17.502   2.927 -0.2264 -0.2481 -0.0108
20728W        W37576  17.765   3.634  12.252 -0.1777  0.3508 -0.0143
20729W        W37577  16.663   8.589   4.747  0.0425 -0.2504 -0.2996
20730W        W37578  10.296   5.999  14.644  0.2732  0.0632 -0.1082
20731W        W37579  11.008   3.053  15.256  0.0740 -0.0432  0.1866
20732W        W37580  10.589  12.852  15.365  0.1074 -0.0513  0.0491
20733W        W37581  16.476   1.619   3.968 -0.0015 -0.2869 -0.1572
20734W        W37582  13.091  16.566  11.901  0.2941  0.2235  0.0549
20735W        W37583   0.758   2.818  14.958 -0.0004 -0.0567 -0.0926
20736W        W37584  13.782   4.738   3.007  0.4193  0.0255 -0.0100
20737W        W37585  11.632  17.435  15.940  0.1237  0.0793  0.0151
20738W        W37586   8.066  11.890  13.223  0.1621 -0.2127 -0.1189
20739W        W37587   1.834  16.865  12.765 -0.1468 -0.4347 -0.1617
20740W        W37588   0.498  10.473  11.549  0.0918 -0.0863  0.1336
20741W        W37589  16.044   2.146  13.108 -0.2495  0.2503  0.0985
20742W        W37590  16.907   8.037  11.517  0.1018  0.1935 -0.0723
20743W        W37591   8.891  15.585  13.962  0.4311  0.0753 -0.0674
20744W        W37592  13.580   3.164  11.596 -0.3304 -0.0497  0.0966
20745W        W37593   9.468   7.809   4.417 -0.4134 -0.1327  0.0437
20746W        W37594  14.342  10.406   4.673 -0.1572  0.2784  0.1305
20747W        W37595  15.578   4.363   0.227  0.4185 -0.0322  0.2331
20748W        W37596  16.487  11.377  13.469  0.0362 -0.0002  0.0376
20749W        W37597  11.068   4.785  14.671 -0.1632  0.1111  0.4826
20750W        W37598  11.580   3.322  10.862 -0.0103  0.0743  0.0579
20751W        W37599   2.843   8.210   2.077 -0.0698  0.2057 -0.2030
20752W        W37600   8.666  11.341   2.666 -0.2967 -0.0382 -0.4194
20753W        W37601  11.143  10.185   2.187 -0.1058  0.1769  0.1506
20754W        W37602   1.050   1.255  14.431  0.0346 -0.0948  0.3187
20755W        W37603  16.887   6.919   1.540  0.1768 -0.0809  0.0719
20756W        W37604  12.298  16.420  15.526 -0.2237  0.1334 -0.2635
20757W        W37605  15.101   6.801   4.594  0.0341  0.0393  0.4971
20758W        W37606   4.602   5.279  14.251  0.1408 -0.1912  0.0598
20759W        W37607   9.829  14.306  11.554  0.1799 -0.2630  0.1178
20760W        W37608   5.996   2.804   2.183  0.2335 -0.5353  0.0845
20761W        W37609  16.359  12.740  11.043 -0.4629  0.1117 -0.1353
20762W        W37610  15.217   4.922   4.810  0.1739 -0.5325 -0.0450
20763W        W37611   6.755   4.034   2.914 -0.0996 -0.1096  0.0244
20764W        W37612   3.426   3.134   2.843  0.1956  0.2257  0.1010
20765W        W37613   3.873   7.400  14.006 -0.0393  0.2888 -0.2442
20766W        W37614   2.785  17.633  12.036  0.1646 -0.1373  0.0700
20767W        W37615  14.497  12.483   3.524  0.2141 -0.1387  0.0872
20768W        W37616   4.015   0.704  15.141 -0.1492  0.0379 -0.0158
20769W        W37617  10.161   3.296  13.569  0.0093 -0.0901  0.2039
20770W        W37618   7.397  17.509   5.371 -0.1576 -0.0984  0.2160
20771W        W37619   1.854   1.335  12.385  0.2801  0.0137  0.1335
20772W        W37620   3.424   2.885  11.629 -0.0738  0.0975 -0.1740
20773W        W37621   2.132  13.476   1.480 -0.0931 -0.5245  0.2565
20774W        W37622  11.920  14.489   3.775 -0.1957 -0.3368 -0.0731
20775W        W37623   9.664   1.606  14.837 -0.2853 -0.2993  0.3787
20776W        W37624   8.469   9.761  13.745 -0.2166 -0.0006  0.0077
20777W        W37625   0.235  16.358  14.686 -0.2042 -0.0347  0.2691
20778W        W37626   5.202   4.926   2.083  0.1229 -0.2165 -0.0335
20779W        W37627   6.127  15.558   2.832  0.0355 -0.1229  0.0366
20780W        W37628  12.571   4.995  10.183  0.1918 -0.1921 -0.1871
20781W        W37629  15.346   0.498   1.205  0.0755  0.2137  0.1361
20782W        W37630   1.970   5.562   0.112 -0.1863 -0.1099  0.2982
20783W        W37631  13.395   9.953   2.455  0.1344 -0.1542 -0.1683
20784W        W37632  10.663   0.344  13.086 -0.0842  0.1344  0.0006
20785W        W37633  16.508  12.637   3.879  0.1124 -0.2061  0.1229
20786W        W37634   5.381  14.664   3.791  0.0549 -0.1412 -0.1412
20787W        W37635  13.406  11.838   2.351  0.0586  0.1036 -0.1423
20788W        W37636  11.345   4.842  12.942  0.3045  0.1580  0.0502
20789W        W37637  17.692  15.282   0.368 -0.0092  0.1447  0.0246
20790W        W37638  12.308  11.588  13.601 -0.0973  0.1313  0.2317
20791W        W37639   4.035   3.205  15.549 -0.0635 -0.4746 -0.3000
20792W        W37640  11.854  14.581   2.495 -0.1167  0.2182  0.1681
20793W        W37641   5.001   6.127   0.101  0.0820 -0.0100 -0.0246
20794W        W37642   2.909   2.341   2.756 -0.0369 -0.2934 -0.1334
20795W        W37643  13.675  14.325  16.158 -0.2013 -0.1168 -0.3796
20796W        W37644  16.772  16.705  14.556 -0.0161 -0.0887  0.0697
20797W        W37645   1.025   2.970  15.800 -0.2867 -0.1481 -0.1257
20798W        W37646  13.142   1.979  12.183 -0.0880 -0.1478  0.0304
20799W        W37647  11.332   8.974   5.356 -0.1031  0.2215  0.1307
20800W        W37648   3.963   6.248   4.508  0.1002 -0.1243 -0.1651
20801W        W37649   0.205   5.680  12.038 -0.0794  0.0210 -0.1276
20802W        W37650   5.579   4.730  12.482 -0.0434  0.0592  0.1224
20803W        W37651   9.631   4.983  11.853 -0.0837  0.0271 -0.0468
20804W        W37652  12.054   2.887  14.651 -0.0731  0.0973 -0.1063
20805W        W37653  13.062   6.679  15.644  0.1402  0.1338  0.2286
20806W        W37654  13.643   9.992  14.422 -0.2405  0.1353 -0.0671
20807W        W37655   0.827  11.762   3.913 -0.0978  0.3447  0.2738
20808W        W37656   2.956   8.488   0.451  0.1851 -0.1219 -0.2392
20809W        W37657   9.582   1.814   0.015  0.0077 -0.1242  0.1685
20810W        W37658  16.369   3.378  13.199 -0.0083 -0.2606 -0.2480
20811W        W37659   6.006  10.513  14.785  0.2838 -0.3874 -0.1454
20812W        W37660   5.939   6.340  15.500 -0.1023  0.4050 -0.1200
20813W        W37661  15.012   7.285   1.051  0.1472  0.0798 -0.3283
20814W        W37662  11.182  14.265  13.979  0.0365  0.1656 -0.1115
20815W        W37663  13.742  15.101   2.090 -0.1521  0.1896  0.0106
20816W        W37664  11.627   8.371  12.091 -0.4624 -0.1320 -0.0151
20817W        W37665   5.179  15.850   3.380 -0.4039  0.0215 -0.1475
20818W        W37666  11.386  17.780  11.952  0.0492 -0.1020  0.0144
20819W        W37667  11.085  13.945   1.903  0.1912  0.1345 -0.0393
20820W        W37668  12.661  14.832  11.541 -0.0994  0.0977  0.1843
20821W        W37669   1.333  10.585  13.509  0.1051 -0.1922  0.0163
20822W        W37670  10.140   6.845  11.792  0.0254 -0.0440  0.1044
20823W        W37671  16.969  13.735  11.828 -0.2178 -0.2743 -0.0865
20824W        W37672   4.878  13.189  13.729 -0.2910  0.4286  0.0454
20825W        W37673   4.683   6.591  13.907  0.1670  0.0048  0.1029
20826W        W37674   0.947  18.016  14.588  0.1044 -0.2661  0.0077
20827W        W37675  12.521  10.740   2.322  0.2550 -0.0312 -0.1768
20828W        W37676   5.727   0.210  13.789  0.4640  0.0206  0.2788
20829W        W37677   3.573   0.741   0.043 -0.2209  0.3410  0.3157
20830W        W37678   5.534   2.187  11.940 -0.0530  0.1066 -0.1704
20831W        W37679   8.507   2.858  11.385 -0.0536 -0.2614 -0.2695
20832W        W37680   3.632  11.805  14.251  0.3091  0.0876  0.1044
20833W        W37681  14.824  16.043  14.254  0.2450  0.1054 -0.2651
20834W        W37682   4.324   0.941  11.605 -0.0619  0.0193  0.0345
20835W        W37683  13.087   9.430  16.202  0.3010  0.1564 -0.2655
20836W        W37684  17.096   6.275  16.139 -0.0108  0.1496  0.0788
20837W        W37685   2.280  12.226  13.191  0.0549 -0.0015  0.5228
20838W        W37686   6.324   5.693  14.827 -0.2128 -0.0684  0.4865
20839W        W37687  16.097  17.398   2.762 -0.0538  0.1462 -0.3120
20840W        W37688   7.916  14.853  12.546 -0.0407 -0.2120  0.3425
20841W        W37689  11.317   1.367  12.442 -0.2628 -0.1562  0.0829
20842W        W37690  17.656  13.360   0.162 -0.0403 -0.1998  0.0855
20843W        W37691  14.271   5.138  11.134  0.5520  0.5211 -0.3160
20844W        W37692   9.761   2.356  11.087 -0.0209  0.0658 -0.2548
20845W        W37693   5.592  17.390  12.146  0.0501  0.0563  0.0435
20846W        W37694   6.651   0.901  14.851 -0.1489  0.0645  0.1432
20847W        W37695   5.736  15.358  13.749  0.3943 -0.0374  0.0176
20848W        W37696   5.190  14.919   5.652 -0.0489  0.1706  0.1347
20849W        W37697   6.340  17.079   5.791  0.0699  0.0285  0.2531
20850W        W37698   1.346  10.087  11.152 -0.1952 -0.0001 -0.1814
20851W        W37699   5.027   3.188  14.395 -0.1758 -0.5009 -0.3651
20852W        W37700   5.591   5.408   6.094  0.0933  0.1911  0.1521
20853W        W37701  15.222  15.689  12.316  0.0006  0.0575 -0.4763
20854W        W37702  14.541  17.502   3.946 -0.0990 -0.0322  0.4411
20855W        W37703   9.189   6.607  13.933 -0.1046  0.1824 -0.2990
20856W        W37704   9.789   5.051  13.532 -0.1278  0.0064  0.0538
20857W        W37705   3.506   4.546   4.945  0.1225  0.0206 -0.3530
20858W        W37706   2.584   9.173   3.225  0.0105 -0.1127 -0.1413
20859W        W37707   2.784  10.560  15.825  0.1665 -0.2923 -0.2332
20860W        W37708   9.641  10.693   1.816 -0.0119 -0.3248  0.1192
20861W        W37709  17.008   0.267  10.570  0.2635 -0.0838 -0.0515
20862W        W37710   6.208  18.002  10.807  0.2559 -0.0913  0.2559
20863W        W37711   1.831  17.085  11.935  0.3756 -0.1059  0.1695
20864W        W37712   6.316   0.140  14.128 -0.2970  0.3003 -0.0234
20865W        W37713   1.290  16.484   5.057 -0.1981  0.1640 -0.1524
20866W        W37714   7.485  12.010  15.769  0.2437  0.1968 -0.0438
20867W        W37715  10.553  11.606  16.146 -0.0452  0.2648 -0.0227
20868W        W37716  11.150  16.486  12.842  0.0038 -0.0231  0.0538
20869W        W37717   9.002   3.501  15.183  0.3837 -0.2916 -0.0533
20870W        W37718   5.683   1.739   0.385 -0.2300  0.0844 -0.1344
20871W        W37719   4.595   9.384  12.478 -0.0521 -0.0059  0.1684
20872W        W37720   3.077   1.744  13.058  0.0555  0.0120 -0.0504
20873W        W37721   6.088  16.572   0.093 -0.0571 -0.2891 -0.2195
20874W        W37722   3.570   0.899  12.123 -0.1305  0.1656  0.1255
20875W        W37723  13.699   4.690  15.769 -0.2219 -0.1165  0.0122
20876W        W37724   1.093  14.880   2.486  0.1939 -0.1042 -0.1594
20877W        W37725  11.273  17.026  14.135 -0.2271 -0.1656 -0.0514
20878W        W37726  16.191   6.821   4.357 -0.0897 -0.3406  0.5761
20879W        W37727  16.311  13.974   2.088  0.2847 -0.0370 -0.0356
20880W        W37728   8.757   7.854  13.759 -0.0036  0.0873  0.1199
20881W        W37729  14.143   4.570  12.231  0.0328 -0.4507 -0.1160
20882W        W37730  17.662   4.089  11.242 -0.0522 -0.0014 -0.0517
20883W        W37731   7.079  15.072  13.825  0.1928  0.3368 -0.2386
20884W        W37732   1.527   3.933   5.200 -0.1089  0.1928  0.1466
20885W        W37733   8.054  10.301  13.008  0.2641 -0.0026  0.1723
20886W        W37734  11.727   1.641  12.727  0.4078 -0.1799 -0.0076
20887W        W37735  12.325  10.193   3.048 -0.1460  0.0025  0.2142
20888W        W37736  14.516  16.478  14.501 -0.0624 -0.3334 -0.0062
20889W        W37737  10.932   5.829   2.648 -0.1308  0.1114 -0.0644
20890W        W37738  18.037   5.014  14.946 -0.0015 -0.2915  0.0785
20891W        W37739  10.856   7.490   1.345  0.2125  0.2473  0.0401
20892W        W37740   5.097  17.795   0.814  0.0774 -0.1401  0.0413
20893W        W37741  10.090   3.310   3.302 -0.4144  0.2333  0.1708
20894W        W37742   8.980   8.270  13.567  0.2475  0.1816 -0.2949
20895W        W37743   6.084   1.306   5.426 -0.0736 -0.1417 -0.0533
20896W        W37744   1.162  17.398   3.267 -0.2007 -0.0442 -0.1108
20897W        W37745  16.255   1.314   3.610  0.1478 -0.0435 -0.2778
20898W        W37746   6.567  13.660   4.743  0.2616  0.3235  0.0842
20899W        W37747   2.907   5.770   4.414 -0.0703 -0.0672 -0.2889
20900W        W37748   9.131  17.805   4.763 -0.0953 -0.2698 -0.1381
20901W        W37749  10.160   1.884  14.228 -0.0312 -0.0421  0.2112
20902W        W37750   1.432  15.717  15.724  0.0581  0.0431  0.1608
20903W        W37751   0.916   2.054   1.569  0.1903 -0.0728  0.1367
20904W        W37752  15.411   4.395  14.235 -0.1875  0.0661  0.1765
20905W        W37753  12.618  14.134   4.948 -0.1420 -0.1238 -0.0020
20906W        W37754  14.359   7.186   0.452  0.1463  0.1107 -0.5922
20907W        W37755   6.971   8.209   4.634 -0.0135 -0.3816  0.2972
20908W        W37756   5.026   7.465   2.461  0.3080 -0.2089 -0.2708
20909W        W37757   1.551   7.919   2.998 -0.1769 -0.0330  0.0305
20910W        W37758   8.762  17.259   0.064  0.0221 -0.0148  0.0582
20911W        W37759   6.735  12.825  16.069  0.2683  0.2725  0.0984
20912W        W37760  13.219   0.345  11.173  0.0143 -0.0540 -0.2795
20913W        W37761  15.163   8.959   4.422  0.0623  0.3561 -0.0549
20914W        W37762   3.442  14.097   1.129 -0.1248  0.3315  0.2378
20915W        W37763   7.779  15.947   0.665 -0.0620  0.0936  0.2795
20916W        W37764  11.122  11.734  14.793 -0.0478 -0.0817  0.0837
20917W        W37765   1.625   9.755  14.712  0.2428  0.0274  0.2847
20918W        W37766   4.561   4.425   3.988 -0.0322 -0.1831  0.0174
20919W        W37767   6.123   4.972  11.761 -0.2194 -0.2053  0.1037
20920W        W37768   5.302  16.382  15.103  0.3575  0.6641  0.1306
20921W        W37769   0.715  11.146   5.611  0.1315  0.1593 -0.0090
20922W        W37770   6.450   2.404   3.401 -0.2883 -0.0469 -0.2269
20923W        W37771  17.755   2.233  12.487 -0.1952 -0.1604 -0.1588
20924W        W37772  17.111   6.779   0.150  0.4229 -0.1791 -0.0365
20925W        W37773   4.045  17.126   2.287 -0.0537 -0.2508  0.0251
20926W        W37774   3.713   6.942  13.223 -0.2322  0.0111  0.0751
20927W        W37775   6.999  16.304  13.080 -0.6582 -0.2279 -0.0249
20928W        W37776  16.352   2.831   0.183 -0.0133 -0.1215 -0.1754
20929W        W37777  17.289  15.586  14.746 -0.0394 -0.0275  0.3067
20930W        W37778   9.204  13.238   1.834 -0.0741 -0.3071 -0.0257
20931W        W37779  14.373  12.228   4.269 -0.2420 -0.0755 -0.1875
20932W        W37780   7.610   0.245  12.735 -0.0661 -0.2258  0.2666
20933W        W37781  16.994   2.680   3.859  0.0819 -0.0507  0.0411
20934W        W37782   3.918  11.728  11.219 -0.0856 -0.2692 -0.0429
20935W        W37783   6.600   6.256   2.069 -0.0909 -0.3591 -0.1345
20936W        W37784  11.618   1.485  11.975 -0.0990 -0.1188 -0.3415
20937W        W37785   1.446  15.468   2.443  0.0342 -0.3453 -0.3680
20938W        W37786  15.957  13.188   0.143  0.0084 -0.3300  0.2049
20939W        W37787   3.149  17.947  13.052  0.3263 -0.0436 -0.1252
20940W        W37788   8.715  18.035   2.935  0.1618  0.3936  0.2725
20941W        W37789  12.943  11.663  12.965  0.0599  0.0789  0.0646
20942W        W37790   4.552   7.166  15.180 -0.1555 -0.1744 -0.2316
20943W        W37791  15.856   3.502  14.358 -0.1519 -0.0551 -0.0492
20944W        W37792  13.021   9.592   2.005  0.0279  0.3004  0.0461
20945W        W37793   4.274  13.637   5.344 -0.3566  0.1229 -0.2560
20946W        W37794   0.357   9.087   0.176  0.0215  0.0116  0.0185
20947W        W37795   4.980  17.558   2.038  0.0781  0.1673  0.1445
20948W        W37796  15.114   7.937  13.438  0.0024 -0.2662 -0.0763
20949W        W37797   4.518   5.355   0.490 -0.2875  0.1102  0.0914
20950W        W37798   4.515  15.598   2.239  0.3823 -0.0653  0.2673
20951W        W37799   7.767   2.032  15.330  0.0728  0.4526 -0.1498
20952W        W37800  16.055   9.359  14.498  0.0057 -0.0824 -0.0954
20953W        W37801  11.141   8.489   9.959 -0.1516  0.1991  0.0158
20954W        W37802  15.447   3.933  13.969  0.0594 -0.0182 -0.3337
20955W        W37803   7.620  11.219   4.227 -0.2119 -0.2795  0.0676
20956W        W37804  15.493   4.341  13.318  0.4350 -0.0720  0.4575
20957W        W37805   3.190  13.780  10.579 -0.0595  0.2528  0.1772
20958W        W37806   5.862   9.666  15.153 -0.0970  0.1183 -0.1865
20959W        W37807  16.808   3.809  12.136  0.1178  0.1252 -0.0739
20960W        W37808   8.731   8.576  14.903 -0.2307  0.1820 -0.0181
20961W        W37809   6.565   6.162  13.162  0.0576  0.0919 -0.2442
20962W        W37810  13.504   3.758   1.626  0.3969 -0.2180  0.1633
20963W        W37811  16.012   5.260   3.680 -0.3719 -0.1512 -0.3872
20964W        W37812   9.479   8.830   0.867  0.1832 -0.1361 -0.0513
20965W        W37813   7.203  10.583   2.927 -0.6687 -0.1244 -0.2688
20966W        W37814  17.544  15.682   1.381 -0.0247  0.2555 -0.1120
20967W        W37815   9.239  15.512   4.500 -0.0196  0.0939 -0.1940
20968W        W37816  11.021  15.601  15.423 -0.1512 -0.2581 -0.0712
20969W        W37817  15.300   9.543   3.632 -0.2936  0.0280  0.2916
20970W        W37818  14.735   6.790  14.943 -0.1718  0.2139 -0.3121
20971W        W37819  13.420   9.891  11.148 -0.1530  0.0117 -0.2921
20972W        W37820   3.244  10.986  14.097 -0.2138 -0.0087 -0.2185
20973W        W37821  15.172   6.480  10.877  0.4004  0.0816  0.0272
20974W        W37822  15.733   7.352   3.453 -0.2828 -0.2186  0.2636
20975W        W37823  12.225   4.210  13.175 -0.0197 -0.1940  0.1021
20976W        W37824   5.308  12.225   5.204 -0.1131 -0.0012 -0.0114
20977W        W37825   0.801  13.299  12.726  0.0925  0.0521 -0.2086
20978W        W37826  16.780  16.483   1.018  0.3093 -0.0908 -0.2490
20979W        W37827   0.671  10.321  14.050  0.0408 -0.0701  0.1441
20980W        W37828  17.321   1.185   4.135 -0.4375 -0.3681  0.0020
20981W        W37829  13.416   6.642  15.222 -0.1242  0.0848  0.1064
20982W        W37830  16.259  10.353   1.680  0.1775  0.0530 -0.1631
20983W        W37831   4.934   3.624  14.693 -0.0332  0.4173  0.0457
20984W        W37832  17.740   1.631  12.520  0.1220 -0.2215 -0.0703
20985W        W37833   7.442  17.659  16.006 -0.0652 -0.2625  0.1311
20986W        W37834  12.770   6.195   3.326 -0.0372 -0.2129 -0.1793
20987W        W37835  16.849   8.787  11.976 -0.0866 -0.0975  0.1985
20988W        W37836   4.502   3.490  11.955  0.2086 -0.0480 -0.0504
20989W        W37837  17.477  11.513   2.746  0.1664 -0.2429 -0.0043
20990W        W37838   6.156  17.976   0.719 -0.1719  0.1972  0.0690
20991W        W37839  14.936  17.775  14.964  0.0753 -0.0639 -0.2880
20992W        W37840  12.079   1.953  11.854 -0.0946  0.0240 -0.0048
20993W        W37841   8.332   6.739  15.198 -0.1409  0.1036 -0.2079
20994W        W37842  11.894   4.278   1.330 -0.0340 -0.2645 -0.0193
20995W        W37843   6.669  18.030   0.021  0.0516 -0.3220 -0.0815
20996W        W37844  17.925  10.690  10.858  0.0996  0.0935  0.1543
20997W        W37845   5.490   3.856  11.693 -0.2238  0.0967 -0.2863
20998W        W37846   4.425   4.269   3.116  0.3578 -0.2993 -0.1207
20999W        W37847   4.567  15.718  13.722  0.1379 -0.0944  0.1662
21000W        W37848   0.133  14.524  13.023  0.0181  0.2492  0.0573
21001W        W37849   1.693  12.394   0.600 -0.2807  0.0426  0.0815
21002W        W37850   8.425  16.839   3.861 -0.0689 -0.0158 -0.1216
21003W        W37851  11.071   5.297   3.379 -0.0087  0.0208 -0.0820
21004W        W37852   3.887   2.813  12.928 -0.0713  0.0572  0.0442
21005W        W37853  17.546   0.427   3.673 -0.0095  0.1418 -0.1044
21006W        W37854   6.302   8.574  12.410  0.0864  0.2539  0.1797
21007W        W37855   6.817   6.035   6.032  0.1909  0.2546  0.1625
21008W        W37856  16.029  15.224  15.333  0.2622 -0.1284  0.0981
21009W        W37857  15.485   6.037  12.081  0.0604 -0.1288  0.2789
21010W        W37858  13.824  12.484   4.470  0.1715  0.1840 -0.1444
21011W        W37859   2.355  13.075  11.732 -0.1854 -0.1072 -0.1623
21012W        W37860   1.568  15.385   3.288 -0.1378 -0.0171 -0.0179
21013W        W37861   1.162   0.766   0.381  0.1659 -0.1423 -0.1098
21014W        W37862   3.622  17.572   0.669  0.0306 -0.0722  0.0276
21015W        W37863  17.949   0.430  13.658 -0.1737 -0.2398 -0.0067
21016W        W37864  13.041  16.983  11.492 -0.0631 -0.0727 -0.1031
21017W        W37865   5.572   5.961  11.837 -0.0390 -0.0268 -0.0775
21018W        W37866  15.803   1.064   3.655  0.1934  0.0936 -0.0878
21019W        W37867   8.851   3.845  15.877  0.3321  0.2864 -0.1646
21020W        W37868   6.649   9.767   4.118  0.0361  0.0917 -0.0582
21021W        W37869   5.969   1.455  14.286  0.3738 -0.0755  0.0355
21022W        W37870   8.966   6.942  15.676 -0.0836  0.0746 -0.0285
21023W        W37871  16.407  14.465   3.414 -0.0975  0.1018  0.0077
21024W        W37872   4.160   4.641  11.479  0.2561 -0.0015  0.1501
21025W        W37873   9.640   1.423   4.623  0.0973  0.1811  0.0948
21026W        W37874   6.149   1.613  11.339 -0.1876  0.1045  0.3651
21027W        W37875   8.150   1.243   5.566 -0.0192  0.0463 -0.2568
21028W        W37876  14.297  12.784  14.413  0.1418 -0.1368 -0.1122
21029W        W37877  12.401   6.460   4.588 -0.2199  0.1400 -0.0137
21030W        W37878   7.298   2.317  15.541  0.1407  0.3900 -0.2873
21031W        W37879  13.938   0.460   0.749 -0.2678 -0.0824  0.2183
21032W        W37880   0.365   8.621   2.980 -0.2661 -0.1712  0.2015
21033W        W37881  11.930   2.284   2.569  0.0754 -0.2209 -0.2495
21034W        W37882   1.434  17.890   0.227  0.0785  0.1919  0.3905
21035W        W37883   2.514  17.243  14.859 -0.1692  0.0987  0.4383
21036W        W37884   9.159  15.850   1.120 -0.1675 -0.1955 -0.2121
21037W        W37885  11.919   2.609  15.481 -0.2506 -0.2615 -0.2183
21038W        W37886   1.262  10.219  13.876 -0.0229  0.0379  0.0617
21039W        W37887  15.851  15.245  14.725 -0.1037 -0.2967 -0.2430
21040W        W37888   8.578  14.560   2.247  0.0412  0.2167  0.0862
21041W        W37889  12.106   8.793  15.119 -0.2630 -0.0022 -0.1457
21042W        W37890   2.385  11.641  16.170 -0.1082 -0.0467  0.0573
21043W        W37891   6.154   9.230  15.227  0.1234  0.0080 -0.3434
21044W        W37892  13.480   7.107  12.695 -0.1627 -0.0778  0.0854
21045W        W37893   4.363   1.180   2.927 -0.0905 -0.1428  0.1430
21046W        W37894  11.951   1.467   2.157 -0.1067 -0.2965  0.1549
21047W        W37895  11.804   2.970  13.274 -0.1924  0.0345 -0.1144
21048W        W37896   4.435  15.286   3.496 -0.0472  0.1694  0.0392
21049W        W37897   2.575  13.972   2.426 -0.0763 -0.1682 -0.3144
21050W        W37898  14.947   0.500  11.875 -0.0118 -0.1233  0.1630
21051W        W37899  14.129  15.636  14.445 -0.0596 -0.0827  0.1896
21052W        W37900   2.097   8.174  14.863 -0.2145 -0.2392 -0.0270
21053W        W37901  16.132  13.857  15.104 -0.3163  0.0929 -0.1544
21054W        W37902   5.992   1.983   0.082 -0.1151  0.0499 -0.0179
21055W        W37903   6.407  11.651  15.065 -0.3544 -0.1918  0.0767
21056W        W37904   7.663   7.625   5.618  0.2483 -0.1843 -0.2625
21057W        W37905   5.990  16.760   1.492 -0.3177  0.2478  0.2333
21058W        W37906   8.291   3.266  11.601 -0.1493  0.1207 -0.0157
21059W        W37907   1.652  11.695   5.257 -0.0350  0.3066  0.2356
21060W        W37908  11.131  14.395   4.267  0.1149 -0.2389 -0.0711
21061W        W37909  16.685  12.954   3.501 -0.0251  0.1184 -0.1654
21062W        W37910   2.118   0.119   3.279  0.0009 -0.0348 -0.1155
21063W        W37911   3.502   1.830   2.618 -0.0892 -0.0580  0.1638
21064W        W37912  16.913  13.889   2.731  0.2615 -0.0666 -0.1328
21065W        W37913   2.588  11.360   0.535  0.1172 -0.1366  0.2138
21066W        W37914  16.870   9.985  16.042 -0.1862 -0.0582 -0.4476
21067W        W37915   4.839  11.750  11.386 -0.0204 -0.0976 -0.2103
21068W        W37916   6.305   0.564  11.497  0.1057  0.0337  0.2097
21069W        W37917   1.076   1.253   2.310  0.0010  0.3837 -0.1346
21070W        W37918   0.494   6.720   4.777 -0.2357  0.0581  0.0444
21071W        W37919  17.757  10.081   1.496  0.3231  0.0521 -0.2028
21072W        W37920  17.599   0.475   4.710  0.0941 -0.1118  0.0408
21073W        W37921  13.284  12.082  12.510 -0.1671  0.2821 -0.0351
21074W        W37922   4.496  16.620   1.059  0.1922  0.1926 -0.1633
21075W        W37923   7.711  18.019  11.890  0.0136  0.0770 -0.0229
21076W        W37924   8.626   8.183  10.184  0.1932  0.3914  0.0085
21077W        W37925   3.707   4.282   0.627  0.0278 -0.0981 -0.1216
21078W        W37926   1.947  16.949  10.919 -0.2926  0.3048 -0.0504
21079W        W37927   4.939   8.965  12.514 -0.1938 -0.0702  0.0802
21080W        W37928  16.094   0.344   3.447 -0.1175 -0.2776  0.0976
21081W        W37929   6.835  15.406   1.226  0.2746  0.0840 -0.2507
21082W        W37930  15.699  12.419  11.680 -0.1612 -0.1419 -0.0656
21083W        W37931  11.675   8.511  10.764 -0.0484 -0.0621 -0.2948
21084W        W37932   5.132  12.858   0.917  0.0024  0.1919  0.0203
21085W        W37933   6.091   6.718   1.922 -0.0008  0.5446 -0.1268
21086W        W37934   7.093   9.218   2.221 -0.2722 -0.2207  0.2303
21087W        W37935   3.831   5.918  15.806  0.1002 -0.2174  0.0048
21088W        W37936  14.242  14.520   2.025 -0.0614  0.0616  0.1899
21089W        W37937   5.173  11.952  11.795  0.1115 -0.2539 -0.3199
21090W        W37938  10.156  11.189  16.085  0.0637 -0.0222 -0.0163
21091W        W37939   3.535  17.813   1.978  0.2221 -0.3968  0.2990
21092W        W37940  14.566   9.187  15.302 -0.1627  0.3323  0.1848
21093W        W37941   3.229  15.773   1.762  0.0414  0.0176  0.2488
21094W        W37942   4.956   5.749   4.502  0.1395  0.0253 -0.0177
21095W        W37943  14.213  15.213   0.985 -0.0318  0.1051 -0.0658
21096W        W37944   2.846   3.542  11.680 -0.1179 -0.0005  0.1213
21097W        W37945   0.353   3.538   1.217 -0.2954 -0.3390  0.1025
21098W        W37946  15.381  11.491  12.310 -0.2201 -0.2050  0.0944
21099W        W37947   3.897  15.939  14.862  0.3219 -0.2044 -0.0351
21100W        W37948   5.341  10.155   2.613 -0.1750 -0.0674  0.1414
21101W        W37949   0.399   9.767  12.936  0.0260 -0.2109 -0.0994
21102W        W37950   9.148   8.885   0.021 -0.0657 -0.1540  0.0535
21103W        W37951   5.692   4.194  12.363 -0.1626  0.0956  0.0147
21104W        W37952   2.031   9.588   4.937 -0.3327 -0.1413  0.1255
21105W        W37953   1.376   5.719  15.624  0.0282 -0.0833  0.3369
21106W        W37954   0.974   0.215   1.134 -0.2336  0.2835 -0.1330
21107W        W37955  16.951  11.037  13.632  0.0998 -0.1291 -0.3131
21108W        W37956  13.277  18.000   0.662 -0.1305  0.1521 -0.0307
21109W        W37957   0.912  16.017   0.258  0.0547  0.2607 -0.1822
21110W        W37958  12.020  16.260   0.535  0.2800 -0.1226 -0.2583
21111W        W37959  15.195   3.049   2.455  0.0551  0.1971 -0.0446
21112W        W37960   0.338  13.897  14.108 -0.1038  0.0561 -0.0500
21113W        W37961   0.536  15.054   4.112  0.0498  0.0537 -0.1377
21114W        W37962   0.148  11.318   1.905 -0.2074 -0.0988  0.0714
21115W        W37963  13.165  12.320   0.003  0.1953 -0.1021  0.0753
21116W        W37964  11.350  17.928  16.216 -0.0354 -0.3576  0.0763
21117W        W37965   9.865  17.881  15.840 -0.2591 -0.1614  0.0259
21118W        W37966   3.766   4.617   2.645  0.0136 -0.0609  0.0376
21119W        W37967  11.688   3.076   1.069  0.0888 -0.2458  0.1470
21120W        W37968  16.166  14.095  11.495  0.1090 -0.2771  0.1153
21121W        W37969   5.507   3.801  15.494  0.1183 -0.1966 -0.0812
21122W        W37970   4.848   0.860   4.188  0.0701  0.0327 -0.0854
21123W        W37971  15.125   1.494  12.270 -0.1833 -0.0334 -0.2495
21124W        W37972   0.319   2.057   3.162 -0.0703 -0.0243 -0.1460
21125W        W37973  16.932  11.918   1.780  0.1855 -0.1180  0.3413
21126W        W37974  13.459   6.144   2.375 -0.3265 -0.0342 -0.2665
21127W        W37975   2.362   2.447  15.727  0.1251 -0.0367  0.1562
21128W        W37976  16.737  10.576  14.653 -0.0701  0.0426  0.1211
21129W        W37977   2.507  17.570  13.824  0.0161 -0.1558 -0.2791
21130W        W37978   1.047   9.965   4.648 -0.4846 -0.0202  0.2550
21131W        W37979   1.254   8.885  12.270 -0.0046 -0.0397  0.1030
21132W        W37980  14.822   8.846   2.313  0.2121 -0.3069 -0.0220
21133W        W37981   8.904   1.303   1.893  0.2735 -0.2078  0.0678
21134W        W37982   4.182  10.062  14.646  0.1224 -0.1708 -0.1665
21135W        W37983  12.602   7.303   3.939  0.1135 -0.2297  0.0132
21136W        W37984  15.430   0.372  14.829 -0.0142 -0.1881  0.1060
21137W        W37985   4.596   9.157   5.621  0.2837  0.2187 -0.1827
21138W        W37986   3.474  18.015   3.218 -0.1244 -0.3245 -0.1987
21139W        W37987  10.769   9.755  12.286  0.1232  0.1078  0.0565
21140W        W37988  16.221  17.893  13.146 -0.0073  0.0053 -0.2132
21141W        W37989  13.421  11.933   1.803  0.1188 -0.1044  0.0074
21142W        W37990   4.206   6.541  15.692  0.2344 -0.0078 -0.1241
21143W        W37991   0.456   6.996  12.428 -0.1066 -0.2256 -0.1676
21144W        W37992  13.707   9.989   1.407 -0.0824 -0.1112 -0.3748
21145W        W37993  10.372  16.096   2.856  0.1312  0.1156  0.0775
21146W        W37994   9.848   6.758  12.180  0.1577  0.3338 -0.3279
21147W        W37995  12.279  11.944   0.190  0.2187  0.0355 -0.3078
21148W        W37996   5.902   3.670   0.747  0.0439  0.2032 -0.0647
21149W        W37997   4.569  16.179  16.074 -0.1908 -0.2325  0.0521
21150W        W37998   9.058   7.545  14.045  0.0926 -0.3513  0.0031
21151W        W37999  14.181  13.488  12.944  0.2419 -0.0120 -0.0380
21152W        W38000  12.467   6.588  13.825  0.0986  0.1551 -0.0134
21153W        W38001   0.486   0.033  12.065 -0.2604  0.0893  0.2046
21154W        W38002   5.248  11.004  11.206  0.3053 -0.0159  0.2476
21155W        W38003   8.182  15.245  14.973 -0.2660  0.0319 -0.4550
21156W        W38004  10.759   9.423   0.543 -0.2742 -0.4352 -0.2779
21157W        W38005   5.865  13.990   4.072 -0.0007 -0.2581 -0.0208
21158W        W38006   0.888  12.720  13.575  0.0306  0.0956 -0.1818
21159W        W38007  14.208   4.497  13.631 -0.2037  0.2773  0.0258
21160W        W38008  11.544   3.959   1.646 -0.3122 -0.2190  0.1217
21161W        W38009  12.122   0.539  15.496  0.1008  0.5143  0.0258
21162W        W38010   1.638   9.232   5.143 -0.1836 -0.3671  0.0790
21163W        W38011  16.849  13.944  13.733 -0.1043 -0.1268  0.1511
21164W        W38012   5.175  13.704   4.624  0.1206  0.2794  0.5058
21165W        W38013  15.731  10.638  11.934  0.3289  0.0653 -0.0515
21166W        W38014   9.130   0.200  11.708 -0.0795  0.0038  0.2546
21167W        W38015  17.120   8.219  13.807  0.4110 -0.0116 -0.0249
21168W        W38016  10.190   7.889   4.436 -0.2158 -0.0538 -0.1110
21169W        W38017  11.590   7.941   3.369 -0.4223 -0.3727 -0.3632
21170W        W38018  14.156  17.188  13.834  0.1349 -0.2057 -0.2822
21171W        W38019   1.582   2.608  14.645  0.0436  0.1211  0.0020
21172W        W38020   6.951  17.222   3.393  0.1067 -0.0961  0.0693
21173W        W38021   5.030  14.726  12.255 -0.1586 -0.0994  0.2123
21174W        W38022  16.727   4.040  11.656 -0.0417 -0.0172 -0.3265
21175W        W38023   5.727  17.013   0.905  0.1177  0.3104  0.1591
21176W        W38024   4.523  16.706   0.506  0.0404 -0.0954 -0.1450
21177W        W38025  13.829   3.817   4.126  0.1842 -0.0495 -0.2531
21178W        W38026  13.508   8.432   4.377 -0.0875  0.0463  0.0456
21179W        W38027   3.519   0.016  15.759 -0.2170 -0.0908 -0.1976
21180W        W38028   0.368   3.030  10.719  0.0505 -0.1762 -0.2231
21181W        W38029  12.353   2.023   1.557 -0.1385 -0.1751 -0.1142
21182W        W38030  14.376   9.272  14.863  0.2087 -0.0020 -0.1928
21183W        W38031  15.248  13.296  13.142  0.3103 -0.1075  0.2297
21184W        W38032   5.596   7.998  12.794  0.0630  0.0330  0.1997
21185W        W38033   1.223   5.508  14.359 -0.1437 -0.0953  0.1626
21186W        W38034   3.558   8.244   5.114  0.4122 -0.1977  0.1107
21187W        W38035   2.084  13.896  13.537  0.1331  0.2122  0.2555
21188W        W38036   2.354  15.343  15.465 -0.1829  0.0360 -0.0840
21189W        W38037  13.174   9.739  11.569 -0.2084  0.0835  0.0239
21190W        W38038   8.666   9.713   1.666 -0.0100 -0.2081  0.1029
21191W        W38039   2.447   9.671  15.664  0.0465  0.1212 -0.1804
21192W        W38040   6.704  15.209  13.037 -0.3097 -0.0659 -0.1234
21193W        W38041  14.903   8.168   4.527 -0.0150 -0.1400  0.0524
21194W        W38042  12.592   8.885  16.219 -0.0494  0.2347 -0.0728
21195W        W38043  10.527  14.409  16.124 -0.1114 -0.3113 -0.0777
21196W        W38044  13.002   6.966  16.089  0.0752  0.0751  0.1350
21197W        W38045   0.649  17.370   0.602  0.0380 -0.1103  0.0316
21198W        W38046  10.026  14.372   3.233  0.3027  0.2643 -0.1836
21199W        W38047  14.904   4.543   4.788  0.0840 -0.1225 -0.0539
21200W        W38048   8.288   8.151   3.071  0.2476 -0.1078 -0.1379
21201W        W38049   3.285  15.184   3.377  0.2793  0.0008  0.3035
21202W        W38050  11.079   0.096   0.690 -0.1399 -0.2539 -0.0640
21203W        W38051   9.188  13.231  10.446 -0.1710  0.4260 -0.1161
21204W        W38052  16.827   4.461   1.946 -0.1210  0.3087 -0.2415
21205W        W38053   2.218  13.450   4.124  0.1143  0.0949 -0.1648
21206W        W38054  10.971   3.189   2.708  0.1954  0.1115 -0.1746
21207W        W38055   4.587  12.992  12.590 -0.2476 -0.0809  0.1630
21208W        W38056   6.609  16.886  14.686  0.0357  0.2216 -0.1789
21209W        W38057   1.866   3.784   3.161 -0.2229  0.0875  0.2548
21210W        W38058   3.452  10.501   3.796  0.0943 -0.0364 -0.1853
21211W        W38059   7.430   1.963  14.975  0.3099  0.5998 -0.2149
21212W        W38060   0.632   1.990  12.228  0.0644 -0.0143 -0.0154
21213W        W38061  12.135   3.758   3.334 -0.0310 -0.0415 -0.3325
21214W        W38062  15.009  15.165   0.113  0.1735 -0.1670 -0.3176
21215W        W38063   4.357  11.951   0.303  0.1458  0.0679 -0.2471
21216W        W38064  11.828   7.480   0.401  0.1523 -0.3751  0.3066
21217W        W38065   8.618   3.948  12.934  0.1122 -0.1327  0.0821
21218W        W38066  11.822   4.867  13.146 -0.0359  0.2443 -0.0871
21219W        W38067   3.593   6.389   1.342  0.2072 -0.0942  0.1298
21220W        W38068   6.412   3.460   4.674 -0.0543  0.2556  0.0281
21221W        W38069   1.461   1.892   1.726  0.0464 -0.1248  0.0935
21222W        W38070   3.748  10.794   0.575  0.1591 -0.2002  0.1494
21223W        W38071  10.751  13.070  12.094  0.0474 -0.0259  0.1452
21224W        W38072  17.119   4.679   1.534  0.1071  0.2209 -0.3533
21225W        W38073   6.954  17.890   0.904 -0.0190 -0.2346  0.0173
21226W        W38074   0.459   4.700   4.980  0.0285 -0.0520 -0.0465
21227W        W38075   3.750   5.755   2.469  0.1433 -0.1028  0.0499
21228W        W38076  17.218   7.860   0.285 -0.1073 -0.3479 -0.2940
21229W        W38077   3.117   8.857  13.645 -0.2024  0.0056 -0.1330
21230W        W38078  10.762   9.437  15.031 -0.3153 -0.0434  0.1772
21231W        W38079  17.827   1.156  15.512 -0.0110  0.0846 -0.1977
21232W        W38080   5.294   3.042   4.805 -0.1623 -0.1076 -0.2218
21233W        W38081  15.820   8.489  12.826 -0.3742  0.3148 -0.0721
21234W        W38082  12.028  18.011   1.191 -0.1720  0.0755  0.1219
21235W        W38083  12.610   9.560   0.108 -0.2873 -0.0432 -0.0869
21236W        W38084   3.938  17.634  12.214 -0.2493 -0.0652 -0.0163
21237W        W38085  14.993   6.515   0.410 -0.0524 -0.0279  0.1143
21238W        W38086   4.743   4.887  15.725 -0.1663 -0.2551  0.4091
21239W        W38087  17.738  15.501   4.149  0.0095 -0.0107 -0.0482
21240W        W38088   9.371   0.887  14.298 -0.0207 -0.2688 -0.3142
21241W        W38089   0.729  14.570  12.256  0.0705 -0.2178 -0.3479
21242W        W38090   9.968  11.321   3.538 -0.1075  0.2263  0.1763
21243W        W38091  17.009  17.055  13.325 -0.2677 -0.2220 -0.0786
21244W        W38092   5.087   6.250   1.978 -0.3081 -0.1297  0.2217
21245W        W38093   3.953  11.526   3.682  0.1438 -0.0758 -0.0315
21246W        W38094  14.910   0.133   4.850 -0.1415 -0.1347 -0.1793
21247W        W38095  10.153  14.305  13.326 -0.0089  0.1052  0.2105
21248W        W38096   4.203   2.582  12.194  0.0069 -0.0253  0.2792
21249W        W38097  10.564   6.226  10.977  0.1488 -0.2129  0.1287
21250W        W38098  15.087  14.853  12.916  0.0466  0.3227 -0.0096
21251W        W38099  11.308   8.783   1.019 -0.0992  0.3924 -0.0894
21252W        W38100  11.331  11.916  16.262  0.2599  0.3289 -0.0965
21253W        W38101  11.974   3.682   2.209  0.0598 -0.0531  0.0887
21254W        W38102  14.595   8.583  15.463 -0.0910 -0.0694 -0.1836
21255W        W38103   1.692   0.435  12.898  0.0551 -0.0588  0.0180
21256W        W38104  15.137   2.189  10.821 -0.2794 -0.1467 -0.1009
21257W        W38105   2.616   5.050   0.103  0.1927  0.2190  0.1196
21258W        W38106   7.953   0.641   3.339 -0.0809  0.0401  0.0680
21259W        W38107  17.606  17.703  15.549 -0.1228 -0.2854  0.1364
21260W        W38108   7.133   7.895  11.615  0.2382 -0.1027 -0.2427
21261W        W38109   6.674   3.952   6.000  0.0407  0.2078  0.1600
21262W        W38110   0.352   9.237   3.030 -0.0812 -0.0459  0.0361
21263W        W38111  12.787  10.395   2.584 -0.2539  0.3399 -0.0106
21264W        W38112  12.947   5.529   2.511  0.4783 -0.3283 -0.1324
21265W        W38113   7.468   6.684   3.570  0.1286  0.1687  0.0722
21266W        W38114  11.855  15.117   2.113  0.1164  0.0057 -0.0066
21267W        W38115   5.570  13.122   0.989 -0.1117  0.2554  0.0904
21268W        W38116   2.536  10.250   4.488  0.1279  0.0444  0.2382
21269W        W38117   8.931  11.651  10.456 -0.1534  0.1126  0.3507
21270W        W38118   0.989  12.263  13.939 -0.2795 -0.0212  0.1972
21271W        W38119   5.430  12.843   4.110 -0.1453  0.1095  0.0591
21272W        W38120   4.113  13.435   2.120 -0.0575  0.1582  0.0917
21273W        W38121  15.086  11.964  11.614 -0.1724  0.0614 -0.3185
21274W        W38122   7.042   0.761  11.796 -0.0507  0.0894  0.0244
21275W        W38123   7.428   9.303   0.811  0.0096  0.1459 -0.1478
21276W        W38124   5.398  16.766   1.270  0.0141 -0.0800  0.4071
21277W        W38125  10.071  12.140  11.719  0.0532 -0.0737 -0.2274
21278W        W38126  16.394   7.235  11.248 -0.0176  0.0628  0.0546
21279W        W38127  12.723  12.469  13.683  0.1118 -0.0095  0.0682
21280W        W38128  10.117   6.953   4.072  0.1008 -0.1411  0.0478
21281W        W38129  12.664   8.220   3.987  0.0023  0.1013 -0.1153
21282W        W38130  12.558  11.812  11.418  0.1877  0.1613 -0.4021
21283W        W38131   5.687   1.838  16.009 -0.3340 -0.0617 -0.1751
21284W        W38132   6.120   0.284  12.458 -0.0694 -0.1505 -0.1294
21285W        W38133  15.567   4.415   1.736 -0.0871 -0.1505  0.0293
21286W        W38134   4.112   6.491   1.697  0.0658  0.2361  0.0344
21287W        W38135   9.298   2.166  15.773 -0.1563  0.1364  0.0359
21288W        W38136  13.287   3.192   0.456  0.2528  0.1022  0.0380
21289W        W38137   0.744   2.723  11.615 -0.0464  0.1195  0.1678
21290W        W38138   1.491  12.702   3.827 -0.0795 -0.0644 -0.1372
21291W        W38139  15.462  17.873  11.538  0.4671 -0.1617  0.1057
21292W        W38140   1.876  15.119   0.389  0.0548 -0.0196  0.1374
21293W        W38141   5.204  11.540   1.459 -0.2433  0.2590  0.3322
21294W        W38142   6.702   9.567   3.541  0.2370 -0.1989 -0.2002
21295W        W38143   6.328   4.728  11.321  0.0129 -0.2936 -0.0742
21296W        W38144   6.122   8.847  16.006 -0.0005 -0.1458 -0.0944
21297W        W38145   0.672  13.941   0.173  0.3453 -0.1006  0.2740
21298W        W38146   5.966   9.034   1.983  0.1115  0.0617 -0.2147
21299W        W38147   9.792   6.267  10.997 -0.0418  0.1747  0.2583
21300W        W38148   4.713   4.062  14.819  0.2236  0.1341 -0.0296
21301W        W38149  17.680   4.777   2.198  0.3650 -0.0293 -0.1072
21302W        W38150   5.046   0.079   4.835 -0.4363 -0.2416  0.1459
21303W        W38151  17.861   7.551  13.238  0.0180  0.0884  0.0101
21304W        W38152  15.284   4.010  14.882 -0.0832  0.3665  0.1354
21305W        W38153   3.022  16.303  12.323  0.0192  0.2328  0.1814
21306W        W38154   7.087   2.552  11.120  0.3062 -0.1798 -0.0223
21307W        W38155  15.079   3.719   1.227 -0.0995  0.1951 -0.1901
21308W        W38156  16.805   4.338   1.073  0.0276  0.1231  0.0792
21309W        W38157   1.080   7.310   2.703 -0.1961 -0.1320  0.1423
21310W        W38158   5.605  13.688  12.388 -0.0884 -0.0403  0.2907
21311W        W38159   2.053   3.995  16.153 -0.1770  0.1074 -0.0700
21312W        W38160  17.879   4.142   1.483  0.1387  0.1186 -0.1244
21313W        W38161   4.603  13.846  14.796  0.0129  0.1959  0.0016
21314W        W38162  12.312   2.093  16.170 -0.4456 -0.0628 -0.1573
21315W        W38163   7.142   9.057  15.186 -0.2257 -0.2460  0.2040
21316W        W38164  17.054   3.573   1.553 -0.1015  0.1087  0.0286
21317W        W38165   4.375   8.265  10.699 -0.1154 -0.3754  0.2513
21318W        W38166   4.566   6.113  14.472 -0.1101 -0.0339  0.1269
21319W        W38167  12.089  11.571  15.404  0.1415  0.1405  0.1548
21320W        W38168  12.669  12.379  15.686  0.0721  0.0643  0.0102
21321W        W38169   9.853  17.309  15.728  0.0900  0.1626  0.0189
21322W        W38170   6.944   2.066  13.484 -0.1112  0.0751 -0.1441
21323W        W38171   6.405  17.706   3.888  0.0665 -0.0871 -0.3096
21324W        W38172  17.372  11.366  13.582 -0.0001  0.0304  0.2331
21325W        W38173  15.868   4.391   0.907 -0.2066 -0.0160  0.1913
21326W        W38174   0.363   4.625   2.014  0.0426  0.1434  0.1996
21327W        W38175   4.515  10.103  13.078 -0.0422  0.0962  0.1221
21328W        W38176   7.648  15.218  12.883  0.1518  0.1948  0.1362
21329W        W38177   7.362  14.070  13.256  0.0550  0.1904  0.2328
21330W        W38178   4.345   0.480  13.630 -0.0815  0.1615  0.0939
21331W        W38179   3.276   0.102   6.541  0.0646  0.0257  0.1320
21332W        W38180   1.851   9.560   1.173 -0.0353  0.3343 -0.1925
21333W        W38181   0.710  16.185   3.449 -0.1571  0.1259  0.1840
21334W        W38182  16.613   2.297   3.728  0.0318  0.0543  0.1167
21335W        W38183  16.636   3.207  14.972 -0.1407 -0.0642  0.0290
21336W        W38184   8.933  16.007   4.919  0.3026 -0.0969  0.1026
21337W        W38185  11.813   5.495   4.541  0.1616 -0.1960 -0.1444
21338W        W38186   3.144  12.429  13.197  0.2366 -0.3328 -0.0172
21339W        W38187   9.330   2.503  11.306  0.0282 -0.1363 -0.1114
21340W        W38188  10.589   4.709  14.534  0.1495  0.4252 -0.0221
21341W        W38189   5.927  11.274   1.069 -0.2135  0.0340  0.0851
21342W        W38190  12.323   9.128   0.643  0.1751 -0.0741 -0.1517
21343W        W38191   6.462  13.703  11.298 -0.2255 -0.3357 -0.2478
21344W        W38192  17.516   0.034   0.636 -0.2527  0.0231 -0.1032
21345W        W38193   0.222   9.611   2.265  0.0506  0.3653  0.0993
21346W        W38194   8.717  14.757  13.170  0.0018  0.3115 -0.1464
21347W        W38195  10.784  15.774   4.499 -0.0545 -0.0202  0.2693
21348W        W38196   7.633   3.597   3.265  0.0635  0.0215 -0.0686
21349W        W38197   6.897  13.104   2.440 -0.2964 -0.0190  0.1161
21350W        W38198   1.101  10.270  13.184  0.3404  0.1247 -0.0289
21351W        W38199   3.631  16.576  14.096  0.1604 -0.0326 -0.0813
21352W        W38200   0.914   6.044  15.704  0.1808 -0.0460  0.1773
21353W        W38201   5.570  17.703   2.670  0.1448  0.1779  0.1255
21354W        W38202   9.576   2.041   1.417  0.1589 -0.1695 -0.2660
21355W        W38203   3.891  14.399   5.022  0.2169  0.2965  0.1750
21356W        W38204  13.464   8.372  12.001  0.1407 -0.0339  0.0486
21357W        W38205  16.030   3.416  13.785  0.1737  0.0695  0.2279
21358W        W38206   3.724   7.781  11.002 -0.1902  0.0230 -0.2989
21359W        W38207  14.383   2.424   0.344 -0.2864  0.0861 -0.0912
21360W        W38208  12.546   9.418  14.625  0.0400 -0.1949 -0.3884
21361W        W38209  16.982   0.411   2.493  0.1319 -0.5430 -0.0601
21362W        W38210   8.668  12.217  13.083  0.4187 -0.1677 -0.1923
21363W        W38211  13.622   7.534  15.662 -0.0328 -0.0303  0.1748
21364W        W38212   5.954   3.034  11.681 -0.1737  0.2510 -0.0384
21365W        W38213   2.003   4.698   3.811  0.1328 -0.1915 -0.1852
21366W        W38214   4.830  15.089   4.312 -0.2645  0.0513  0.0187
21367W        W38215   2.390   5.335   0.493  0.2528  0.0580  0.1067
21368W        W38216   5.087  17.303   2.624 -0.0821  0.0597 -0.1584
21369W        W38217   9.539  10.593  15.078  0.2334  0.0489  0.1304
21370W        W38218   2.044   1.097   0.641 -0.0967  0.1313  0.1202
21371W        W38219  14.051  10.536  15.636  0.0528  0.3338  0.0907
21372W        W38220  11.683   9.405  12.023  0.4660 -0.0612 -0.1223
21373W        W38221   3.133  15.655   5.277 -0.3421  0.0012  0.2866
21374W        W38222  15.179   8.240   3.428  0.2582 -0.2367 -0.1000
21375W        W38223  13.055   5.704   0.261  0.0521 -0.0228 -0.1275
21376W        W38224  17.258  16.629  13.168  0.0124  0.1362 -0.1231
21377W        W38225  10.767  13.941  14.782 -0.1431  0.0171  0.1563
21378W        W38226  15.789   2.945   5.884 -0.0020 -0.0595  0.2670
21379W        W38227   3.447  13.705   2.943  0.1852  0.0521 -0.2596
21380W        W38228   1.793   0.685  15.534  0.0828  0.0628  0.2355
21381W        W38229  16.337  16.663   2.811  0.0210 -0.0082 -0.1872
21382W        W38230  14.940   1.375   1.364  0.0522 -0.1286  0.1451
21383W        W38231  14.617   1.406  13.497 -0.0673  0.0677 -0.1696
21384W        W38232  17.158   9.692  12.272  0.0743  0.2175 -0.2558
21385W        W38233   9.571  17.753   3.909 -0.2881 -0.2500  0.0698
21386W        W38234   4.272  17.352   2.695  0.0446  0.0208 -0.2492
21387W        W38235   8.387   1.951   0.623 -0.0992 -0.0312 -0.0214
21388W        W38236   0.358   5.541  13.425 -0.2587 -0.2118  0.0390
21389W        W38237   1.279   3.613  12.284 -0.1490 -0.0124  0.3905
21390W        W38238  16.051  10.419   2.198 -0.2689 -0.0337  0.0314
21391W        W38239   8.779  11.961   2.539 -0.3095  0.2314 -0.0947
21392W        W38240   4.883   4.271   4.741 -0.1472  0.0524 -0.1868
21393W        W38241  13.944   3.779   4.658 -0.1452 -0.0025 -0.1540
21394W        W38242  12.930   2.073   1.419  0.2072  0.0554  0.0110
21395W        W38243   8.857   4.927  11.198 -0.0596 -0.2431 -0.0700
21396W        W38244   4.201   7.943   5.416  0.2707  0.2675 -0.0373
21397W        W38245   7.963  11.866  10.668 -0.1189  0.0709 -0.0706
21398W        W38246   1.964   0.286  13.353  0.0275  0.0104  0.0358
21399W        W38247  15.059  10.331  11.588 -0.2319  0.0809 -0.2009
21400W        W38248   5.077  14.404   3.499 -0.0317  0.1592  0.1387
21401W        W38249  10.744  12.450  13.538  0.2812 -0.0645  0.1861
21402W        W38250  13.226   4.690  14.671  0.0622 -0.0275 -0.1541
21403W        W38251  15.339  10.978  12.450 -0.0798 -0.1086 -0.1301
21404W        W38252   6.913   1.829  11.771  0.1080 -0.0453 -0.1141
21405W        W38253  11.740  12.872  11.919  0.2591 -0.1860  0.2128
21406W        W38254  16.337  17.143  13.462 -0.0396  0.1453  0.0926
21407W        W38255   5.666   6.598   4.606  0.1066  0.3447  0.0768
21408W        W38256   8.468   4.289  15.940  0.0036  0.3690 -0.2039
21409W        W38257  13.089  16.414   1.677 -0.0260 -0.1950  0.0366
21410W        W38258  10.058  15.913   3.981  0.2471 -0.2567 -0.0489
21411W        W38259   2.110   3.364  14.919 -0.2464  0.2102  0.1257
21412W        W38260   6.673  15.976   2.170  0.2044  0.0286 -0.3512
21413W        W38261  13.460  11.389   1.627  0.1221  0.0819 -0.0857
21414W        W38262   6.204   1.737  15.914  0.3370  0.0471  0.0455
21415W        W38263  14.590  14.797  13.009  0.0735 -0.0617 -0.0835
21416W        W38264  13.295   1.092   5.007  0.0645 -0.0154 -0.0051
21417W        W38265   9.456   0.407  12.989 -0.1055 -0.0421 -0.1823
21418W        W38266   9.133  12.113  13.055  0.2496  0.0747  0.2976
21419W        W38267   4.559   2.904   0.908 -0.1214 -0.2052  0.0162
21420W        W38268  10.008   4.981  10.247  0.0463  0.5093  0.2590
21421W        W38269  17.005  10.356   5.231  0.2074  0.0405  0.0363
21422W        W38270   3.556   3.902  11.736 -0.0758 -0.1878 -0.0764
21423W        W38271   7.936  11.577  14.143 -0.0362 -0.0446  0.3189
21424W        W38272  13.363  12.823   3.533  0.2128 -0.2676  0.2936
21425W        W38273   0.205   4.856  13.148 -0.0982 -0.2411  0.0825
21426W        W38274  14.929   3.674   0.142  0.1732  0.2537  0.0665
21427W        W38275  14.840   7.385  16.155 -0.2750  0.2215  0.0912
21428W        W38276  15.631   5.991   1.890  0.0701 -0.3144 -0.0365
21429W        W38277   5.896   5.295   0.713 -0.2778  0.0915  0.1816
21430W        W38278   9.714   9.629  10.878  0.0431  0.0264 -0.0245
21431W        W38279   5.888   9.444   1.683  0.0939  0.2376  0.1242
21432W        W38280  11.045   4.366  15.514 -0.1047  0.0316  0.0737
21433W        W38281   6.758   6.843  13.016 -0.4081  0.0225  0.2762
21434W        W38282  13.855  15.458   0.732  0.0693  0.0002  0.1635
21435W        W38283   2.040   1.939  11.909 -0.2442 -0.0756 -0.2287
21436W        W38284   9.196   2.706   5.854  0.4318  0.0189  0.1390
21437W        W38285  14.508   0.780  16.135  0.1412 -0.1040  0.3195
21438W        W38286  10.898   6.206   0.093  0.0694  0.2336  0.1547
21439W        W38287  11.936   9.990  11.297 -0.0970  0.1042  0.0066
21440W        W38288  13.189   1.697   2.579  0.1652  0.1175  0.1058
21441W        W38289  10.113   7.521   4.130 -0.2214 -0.0833  0.1358
21442W        W38290  16.006   9.666   4.364 -0.3261  0.0840  0.1488
21443W        W38291  11.184   1.337  11.142 -0.0625 -0.2610  0.0776
21444W        W38292   2.619   9.606  11.284 -0.0314  0.2693  0.1190
21445W        W38293  13.850   1.394  12.143 -0.4794  0.2161  0.0217
21446W        W38294   3.944   3.417   4.374 -0.1645  0.3150  0.4102
21447W        W38295   3.781   1.489  12.751  0.0780 -0.0733  0.0290
21448W        W38296   7.639  14.449  15.950 -0.1363 -0.0098 -0.0077
21449W        W38297   5.830   3.129   5.309 -0.0400 -0.0823  0.0733
21450W        W38298  16.171   7.643   0.835  0.2802  0.0977 -0.3030
21451W        W38299  12.012  13.077  14.933  0.0326  0.1839 -0.1191
21452W        W38300  13.493   0.073  12.947  0.1416  0.1159  0.0021
21453W        W38301  13.910  17.805  14.400 -0.0126  0.3271 -0.1986
21454W        W38302  15.421   9.474  13.440 -0.0675  0.0233  0.1464
21455W        W38303  12.133   0.638   2.589 -0.0223  0.2410  0.0394
21456W        W38304  16.412  12.415  11.471 -0.1635 -0.0447  0.2507
21457W        W38305  13.177   5.391  12.785  0.1734 -0.3174  0.0327
21458W        W38306  15.718   8.765   4.667 -0.0438 -0.0545  0.3458
21459W        W38307   8.981   5.504  13.529  0.1753  0.0944  0.1651
21460W        W38308   3.207   6.728   1.750  0.4238 -0.0194  0.0013
21461W        W38309   3.612   3.087   0.133 -0.0076 -0.4965  0.3314
21462W        W38310   3.365   0.760   1.097 -0.0725 -0.1061 -0.0110
21463W        W38311   2.860   6.476   5.116 -0.0905 -0.0960 -0.0366
21464W        W38312   2.822   4.337   2.177  0.2069  0.2049  0.1037
21465W        W38313   4.584   9.539   3.553  0.1140  0.3583 -0.3065
21466W        W38314  14.292   6.468  14.146 -0.0795  0.3769 -0.0812
21467W        W38315  13.317  10.915   1.905 -0.0784  0.0783  0.1561
21468W        W38316  13.268   8.739   1.567  0.2016  0.0251 -0.1127
21469W        W38317  10.938   9.901  11.790  0.1625 -0.2894  0.3222
21470W        W38318   9.690   4.276   0.997  0.1518 -0.1925  0.2507
21471W        W38319   6.535   7.141   0.637 -0.1383 -0.5172 -0.5465
21472W        W38320  13.025   1.816   0.809 -0.4734 -0.2754 -0.0811
21473W        W38321   2.825  11.111  12.702  0.1001 -0.0422 -0.1150
21474W        W38322   8.661  15.849  14.898 -0.3085 -0.1119 -0.0299
21475W        W38323   5.573  10.407   3.030 -0.0599 -0.4077 -0.2470
21476W        W38324  14.298  16.153   1.128  0.1148  0.0955 -0.0597
21477W        W38325  12.313  16.361  10.805 -0.3402  0.0814 -0.0309
21478W        W38326  11.443  15.116   2.697 -0.2048 -0.0895 -0.3643
21479W        W38327   3.852   5.575   4.077  0.0269  0.2202  0.1718
21480W        W38328   2.219  15.549  13.816  0.2064  0.0457  0.2977
21481W        W38329  11.958  10.968   3.535 -0.2766  0.2487  0.0848
21482W        W38330   7.350   8.581  13.035  0.1519 -0.2866 -0.1038
21483W        W38331   0.500   3.061   1.286 -0.0881  0.1186 -0.3890
21484W        W38332   0.771  12.560   5.805  0.1335  0.0748  0.3717
21485W        W38333   9.060   0.242  15.489 -0.4045  0.0633 -0.1737
21486W        W38334   6.358   4.297   0.693 -0.1422 -0.0137  0.1460
21487W        W38335  15.038  14.378  11.257  0.0081  0.0236  0.1130
21488W        W38336   9.926  15.138  16.034  0.1293  0.1678 -0.1071
21489W        W38337   7.199  11.041  15.560  0.2805  0.0616  0.0493
21490W        W38338   7.286   6.311  11.118  0.0350  0.1132 -0.4238
21491W        W38339  12.822  11.324   0.752 -0.0163 -0.1097  0.1640
21492W        W38340   6.934  10.913  13.590 -0.0206  0.1073 -0.0167
21493W        W38341  14.452   3.999  12.260  0.1666 -0.2177  0.2369
21494W        W38342   1.977  14.952   1.348 -0.1215  0.0796 -0.0474
21495W        W38343   0.826   0.561   4.915 -0.1900 -0.1946  0.0885
21496W        W38344   6.590   7.328  12.450  0.0445  0.1159  0.1204
21497W        W38345   5.188   1.037   4.526  0.1683  0.0777  0.1247
21498W        W38346   9.719  12.957   3.718 -0.0850  0.0162 -0.1536
21499W        W38347   9.291  16.553   4.220 -0.2110  0.0812  0.0800
21500W        W38348  16.807   6.631   1.108  0.2881 -0.3468 -0.2438
21501W        W38349  10.798   8.106  14.800  0.2366 -0.0022  0.0388
21502W        W38350   1.164   4.141  15.188 -0.0632 -0.1886 -0.3775
21503W        W38351   5.153  12.864  16.099  0.1751  0.1723  0.1975
21504W        W38352   2.266  13.500   0.943 -0.0371 -0.1254 -0.2122
21505W        W38353  16.107   5.822   5.308  0.1704 -0.1131 -0.3577
21506W        W38354  13.448  10.288   5.167 -0.0370 -0.0088  0.1582
21507W        W38355   1.346   6.849  11.621 -0.2526 -0.0380 -0.1196
21508W        W38356  10.695  13.299  15.471  0.1018 -0.0534 -0.1082
21509W        W38357  15.805  11.084   2.793 -0.0324  0.0955  0.2452
21510W        W38358   0.049   4.743  15.361  0.1089  0.1651  0.2267
21511W        W38359   4.778  15.723   5.121  0.0323  0.0345 -0.1134
21512W        W38360   7.279  13.949   0.152  0.1263  0.0500 -0.0715
21513W        W38361   5.202  15.917  14.845 -0.0160  0.4193 -0.1705
21514W        W38362   2.409  10.631  14.364  0.0925  0.3099 -0.0537
21515W        W38363  15.012  11.328   1.280  0.1698 -0.0922  0.0421
21516W        W38364   2.322  13.349  15.457  0.2693 -0.0463 -0.0611
21517W        W38365   6.428   7.516  14.288  0.0246  0.0652  0.1217
21518W        W38366   2.242  15.140  11.952 -0.0248  0.1540  0.0344
21519W        W38367  12.706  17.970  15.710 -0.0562 -0.2618 -0.1509
21520W        W38368   8.176   2.651   1.337 -0.2183  0.2595  0.1545
21521W        W38369  11.365   0.764  12.986 -0.1295 -0.2192 -0.4784
21522W        W38370  12.541   3.025   1.892 -0.1522  0.2835 -0.0968
21523W        W38371  15.065  10.498  16.221 -0.0253 -0.1144 -0.0584
21524W        W38372   2.948  15.878   4.242  0.0624 -0.0282  0.2139
21525W        W38373   7.465  11.147  12.939  0.1161  0.0834 -0.1846
21526W        W38374   4.765  10.668  11.060  0.1729  0.1293  0.0604
21527W        W38375  13.876  13.550   3.952 -0.1045  0.3043  0.1689
21528W        W38376  10.338   4.377  16.055  0.0541 -0.0798 -0.0747
21529W        W38377   3.868  13.034  11.542 -0.2100 -0.0406 -0.2046
21530W        W38378  17.968  15.487  14.790 -0.3024 -0.3928 -0.4588
21531W        W38379  10.532  11.524   4.533  0.0032  0.0839  0.1939
21532W        W38380   5.034  17.803   3.301 -0.1420  0.0982  0.0959
21533W        W38381  15.442  10.766   2.519  0.1557 -0.0638  0.1810
21534W        W38382   9.201   2.250  11.968  0.2992 -0.0209  0.0739
21535W        W38383   7.178   1.354  14.404  0.2526 -0.0044 -0.2996
21536W        W38384   1.161  12.777  14.832 -0.0345 -0.1286  0.2255
21537W        W38385   1.792   1.281  13.349  0.0806  0.0442  0.3093
21538W        W38386   4.744   0.807  15.950  0.1678  0.4321  0.5170
21539W        W38387   3.947  17.154   4.046  0.0424  0.1018 -0.0275
21540W        W38388   7.294   0.066  11.279  0.4406 -0.2857 -0.4337
21541W        W38389  10.902   0.129   4.141  0.1047  0.0825 -0.3621
21542W        W38390  12.621  16.539   3.090 -0.0059  0.0988  0.1405
21543W        W38391  15.820   2.172  14.834  0.2737  0.1675 -0.1361
21544W        W38392  16.770   0.796   5.178  0.0604 -0.2248  0.1561
21545W        W38393   2.910   5.315   2.112 -0.1799 -0.0416  0.1054
21546W        W38394   0.509  14.385   0.925 -0.1920  0.0771  0.1343
21547W        W38395  11.144  15.352  13.108  0.2359 -0.2064 -0.0703
21548W        W38396   0.970  14.168  11.059  0.1108  0.3646 -0.0269
21549W        W38397  14.945  10.200  12.432 -0.0557 -0.0877 -0.1759
21550W        W38398  14.831  10.169  15.163 -0.0337 -0.0043 -0.0136
21551W        W38399   0.927   7.689   2.434 -0.0145 -0.0571  0.2943
21552W        W38400  16.297   8.815  14.828 -0.0859  0.0177  0.1168
21553W        W38401   0.647  15.191  12.311 -0.1451  0.1787 -0.1053
21554W        W38402   3.414   4.694  12.336 -0.2509 -0.0343 -0.1686
21555W        W38403  14.008  13.007   1.322  0.0048 -0.1042 -0.0893
21556W        W38404   7.702   4.501  15.003  0.1190  0.1875 -0.0559
21557W        W38405  14.547   1.641  14.028  0.1039  0.1516 -0.1667
21558W        W38406   4.626   3.178  14.005  0.4642 -0.2568 -0.0603
21559W        W38407   8.093   7.971  15.912  0.2972 -0.0692 -0.2049
21560W        W38408   1.387   5.773   3.255  0.2312 -0.0090  0.1872
21561W        W38409  10.521  12.740   2.398  0.2573 -0.3518  0.0663
21562W        W38410  13.703  13.029  15.521 -0.3787  0.0283  0.0273
21563W        W38411   3.279   5.497  12.793 -0.1899 -0.1408  0.5067
21564W        W38412   6.760  17.924   2.068  0.2185 -0.2275  0.1382
21565W        W38413  15.667  16.711  12.974 -0.3892 -0.2742 -0.2248
21566W        W38414  12.861   5.815  14.141  0.0894  0.1199 -0.2331
21567W        W38415   8.811  10.007   1.242  0.2047  0.0451  0.0621
21568W        W38416   4.570   0.322  13.107  0.3441 -0.1870  0.0328
21569W        W38417  13.626   1.110   4.106 -0.0136  0.1274 -0.2132
21570W        W38418   2.582  14.445  12.596  0.0964 -0.2445  0.0538
21571W        W38419   3.237   6.407  15.657 -0.1029  0.1242  0.1271
21572W        W38420   3.366   4.583   0.848  0.1349 -0.1414 -0.0300
21573W        W38421   6.491   4.336  14.514  0.1971  0.1610 -0.0762
21574W        W38422   5.919   9.345   1.159  0.0628  0.0945  0.0983
21575W        W38423   3.502   1.283   1.951  0.0495 -0.0883 -0.1523
21576W        W38424   9.728  17.655   5.056  0.1271  0.1042  0.0636
21577W        W38425   0.104   7.251  14.973 -0.0592  0.1385 -0.2519
21578W        W38426  10.538   9.031  14.939  0.1624  0.1821  0.0689
21579W        W38427   2.603  10.976  11.023  0.2816 -0.2526  0.1432
21580W        W38428   6.616  12.625   4.761 -0.2508  0.1731  0.0221
21581W        W38429   3.108  12.129   3.704  0.0285 -0.3416 -0.0207
21582W        W38430  17.468   3.095   4.704 -0.0616 -0.0850  0.1829
21583W        W38431   4.039  16.857   0.272 -0.3396 -0.1782  0.0082
21584W        W38432  10.852  10.940   2.100  0.0848 -0.2677 -0.0431
21585W        W38433   9.940   0.338  12.734  0.2032  0.0881  0.3108
21586W        W38434  18.002  13.092  15.765  0.1477  0.0609 -0.1027
21587W        W38435  10.461  17.404   6.119  0.3594  0.1231  0.2528
21588W        W38436   2.782  16.422   5.565  0.1386 -0.0443 -0.2304
21589W        W38437  13.421   2.204  11.775 -0.0168  0.0506 -0.0793
21590W        W38438  16.501  17.519  12.256  0.3499 -0.1192 -0.0124
21591W        W38439   9.995  13.025  14.298 -0.1190 -0.3585 -0.0538
21592W        W38440  16.698   3.088   1.366  0.0509  0.0749  0.2435
21593W        W38441  15.027  12.698  13.429 -0.1408 -0.5072  0.0298
21594W        W38442   4.982   3.676   1.089  0.3101 -0.2018  0.0411
21595W        W38443  11.357  14.341   3.856 -0.0572 -0.1362 -0.2624
21596W        W38444   5.142   4.069   1.330 -0.2954 -0.0031 -0.1188
21597W        W38445  11.912   1.159  11.502 -0.2827  0.1292  0.0863
21598W        W38446   6.237  16.179  16.066 -0.2168 -0.1360 -0.0677
21599W        W38447   5.267   5.422  14.659 -0.1904  0.0694  0.2658
21600W        W38448   3.571  17.478   2.355 -0.0450  0.0498 -0.0757
21601W        W38449   5.642   5.117   4.646 -0.2636  0.1267  0.2562
21602W        W38450  17.175  13.922   1.854 -0.1775 -0.1535 -0.0129
21603W        W38451  15.269  17.007  11.164  0.0916 -0.3382 -0.0163
21604W        W38452  14.851   1.593   0.442 -0.1218  0.1494 -0.1016
21605W        W38453   7.397  12.846   0.997 -0.0884 -0.0027 -0.2879
21606W        W38454   3.980  14.094  11.864  0.0611  0.1180  0.0789
21607W        W38455  18.018   8.526  12.124 -0.3586 -0.4937 -0.0080
21608W        W38456  13.893  11.440   4.675  0.1119 -0.0110  0.2175
21609W        W38457  14.359   8.433   1.568  0.0266  0.1304 -0.0782
21610W        W38458  14.358   2.835   0.019 -0.5130 -0.1657  0.4369
21611W        W38459   9.018  14.912  14.428 -0.0381 -0.0585  0.0859
21612W        W38460   9.409  11.907  15.098 -0.2241  0.0224  0.1519
21613W        W38461   4.638   4.371   1.766 -0.0012 -0.1309  0.4013
21614W        W38462   3.813  12.254  14.431 -0.0431  0.1017  0.1967
21615W        W38463   3.719   2.237   5.208  0.3352 -0.0360 -0.2010
21616W        W38464   5.048   0.669  14.953  0.0576 -0.0366  0.0438
21617W        W38465  16.356  16.612   1.204  0.2395 -0.3616 -0.1605
21618W        W38466   2.910   5.731   2.944 -0.2409 -0.0673 -0.3162
21619W        W38467  17.314   2.502   2.978  0.2380 -0.1544 -0.0289
21620W        W38468  15.373   5.425  16.047  0.0324 -0.1339 -0.3253
21621W        W38469  13.959   1.288   0.555  0.2344 -0.1715  0.0649
21622W        W38470  12.897   3.434  16.245 -0.2199  0.0718 -0.4546
21623W        W38471   8.682  11.269  14.877  0.1060 -0.3604 -0.0091
21624W        W38472   7.054   5.647   3.743  0.1832 -0.3094  0.0309
21625W        W38473   0.333  17.828   4.274  0.0246 -0.0641 -0.0566
21626W        W38474  11.001   2.700  15.588 -0.2955  0.0986  0.3082
21627W        W38475   9.609  10.856  11.784  0.0500  0.1247  0.0533
21628W        W38476  15.071  17.741   1.786 -0.1083  0.1417 -0.0662
21629W        W38477   8.947   9.281  12.051 -0.0727  0.1354  0.0812
21630W        W38478  10.815   0.215   1.918 -0.3854 -0.0152  0.4183
21631W        W38479   1.261  16.309  12.353  0.0305  0.1577  0.1406
21632W        W38480   1.085   2.242  14.311 -0.3017 -0.3084  0.0068
21633W        W38481  16.611   7.397   0.810  0.1477 -0.2320  0.1057
21634W        W38482   5.295   4.101   3.517 -0.4181  0.0472  0.2498
21635W        W38483   7.484  16.367   3.452 -0.0129  0.2808  0.1386
21636W        W38484  11.124  12.221   0.295  0.1052  0.0808 -0.1105
21637W        W38485   6.765  12.153   2.072 -0.0753  0.5459  0.1887
21638W        W38486   4.632   7.874  13.362 -0.2917  0.1535 -0.2990
21639W        W38487  14.062   4.172  15.682  0.2212  0.1638 -0.1933
21640W        W38488   8.300  11.739   4.422 -0.2365 -0.2845  0.0568
21641W        W38489  11.374   0.263  13.113 -0.1150 -0.1212  0.1748
21642W        W38490   6.348  14.113  15.851  0.2231 -0.1681  0.2779
21643W        W38491   2.088  17.855  13.759  0.0642  0.0231  0.3384
21644W        W38492  15.988   4.177  13.280  0.0474  0.0763 -0.0471
21645W        W38493   7.279  16.327   0.128  0.3959 -0.0232 -0.1353
21646W        W38494   8.967  11.683   3.024 -0.2614  0.2416  0.1207
21647W        W38495  17.705  12.862  13.241  0.2134  0.2593 -0.3040
21648W        W38496  17.118  15.806   4.272  0.3105 -0.1576  0.2202
21649W        W38497   1.402   9.893   4.255 -0.0762 -0.0377 -0.1987
21650W        W38498  12.157   4.448   4.282  0.1824  0.1200 -0.1854
21651W        W38499  12.828   7.917  14.809 -0.2265  0.0434 -0.4059
21652W        W38500  17.419   5.989  15.779 -0.4223 -0.1798  0.2191
21653W        W38501  17.957  14.534  10.918  0.1149  0.2902  0.0481
21654W        W38502   7.216   0.553   3.576 -0.0771 -0.2584 -0.0788
21655W        W38503   0.186  10.833  11.569  0.1728  0.0625  0.3226
21656W        W38504   7.603  15.547   4.116  0.1029  0.2812  0.1652
21657W        W38505  17.031   1.309  11.867 -0.0127 -0.1098 -0.4944
21658W        W38506  17.432   8.189  11.109  0.2787  0.0874 -0.1485
21659W        W38507  17.298   4.999   0.008 -0.1091 -0.2391  0.0217
21660W        W38508   1.532   1.887  11.589  0.0805  0.2371 -0.1008
21661W        W38509  12.727  10.119   3.921 -0.2459 -0.2160  0.1003
21662W        W38510   8.232   8.578  15.856 -0.1823  0.1526 -0.0389
21663W        W38511   0.708   6.458  15.888 -0.2025 -0.0764 -0.0551
21664W        W38512  12.080  17.156   0.841 -0.1161 -0.0039  0.0960
21665W        W38513  16.720   0.178   1.161  0.0122 -0.1405  0.0146
21666W        W38514  12.401   1.323  14.181  0.1746 -0.1798 -0.4486
21667W        W38515  10.874  16.490  15.196  0.1829  0.0201  0.1313
21668W        W38516   5.949   9.182  12.907  0.2311  0.1252  0.1442
21669W        W38517  17.427   8.803   3.023 -0.0245 -0.2806  0.2270
21670W        W38518  15.376  12.852   3.330  0.0875 -0.1940 -0.1242
21671W        W38519  15.565  17.197  12.788  0.3166 -0.1475 -0.0897
21672W        W38520  15.234  14.929   3.307 -0.0232  0.1561  0.0096
21673W        W38521   1.197  13.972   1.530 -0.1319  0.1097  0.0400
21674W        W38522  11.130   8.417  15.580 -0.1578 -0.0685  0.1864
21675W        W38523  10.907   5.370   2.361 -0.0988 -0.1571 -0.1420
21676W        W38524  17.440   5.543   3.739  0.0259  0.0663  0.2133
21677W        W38525  16.190   4.359  13.812 -0.0248  0.1410 -0.0085
21678W        W38526  13.536  13.322  16.007  0.1563 -0.0043  0.0197
21679W        W38527   5.436   3.081  14.985 -0.1723  0.2666  0.0706
21680W        W38528   7.158  14.937   3.418  0.1628 -0.0953 -0.1348
21681W        W38529  11.387  11.712  13.906  0.2429 -0.0207  0.1142
21682W        W38530   5.126  13.325  15.999  0.1495 -0.2221  0.1167
21683W        W38531  16.816   9.184  11.534 -0.2779  0.3190  0.1526
21684W        W38532   5.189   5.664   4.023 -0.0297  0.4372 -0.1425
21685W        W38533  11.894  12.404   0.790  0.2067 -0.2102  0.4410
21686W        W38534   1.312  11.924   1.175  0.0897 -0.1980  0.1949
21687W        W38535  11.876   9.865  14.716  0.1192  0.2011  0.2023
21688W        W38536   7.697  10.147  10.183  0.1892 -0.1620  0.2885
21689W        W38537  12.789  13.554   2.497  0.0237  0.1967 -0.0687
21690W        W38538   4.398   1.768  14.133  0.0048 -0.2933 -0.2137
21691W        W38539   7.783   4.413  13.049  0.0403 -0.2264  0.1498
21692W        W38540   6.336   6.516   0.944  0.0627  0.0666 -0.0855
21693W        W38541  17.877   0.414  14.160 -0.0990  0.1455  0.1775
21694W        W38542  10.174  13.533   0.223 -0.1987  0.0670  0.1504
21695W        W38543   9.886  15.493  10.677  0.0900 -0.2080  0.2111
21696W        W38544  10.796   8.150   4.029  0.0369  0.3102  0.1435
21697W        W38545  15.412  11.113   1.012  0.3508  0.2422  0.0263
21698W        W38546  10.415   7.742   2.299  0.4096 -0.2038  0.1692
21699W        W38547   4.390   8.922  11.693  0.3558 -0.1980 -0.2386
21700W        W38548  17.587  17.487   1.084  0.1581 -0.0387  0.4424
21701W        W38549  14.617   8.845  11.391 -0.0570  0.4427  0.3293
21702W        W38550   9.643  18.036   0.066 -0.1578  0.0816 -0.2067
21703W        W38551  13.884  15.198  13.343  0.1813  0.0027  0.2958
21704W        W38552   3.334   8.760   0.605  0.3060 -0.3586  0.1145
21705W        W38553   0.020  17.102   2.628 -0.2809  0.0325  0.0713
21706W        W38554   1.249   2.794  12.960 -0.2903 -0.0200 -0.3756
21707W        W38555   5.512   5.291   0.359 -0.0545  0.0273  0.0864
21708W        W38556   3.366   4.023  16.092 -0.1117 -0.0155 -0.0106
21709W        W38557  16.947   8.134   3.865  0.3048  0.0296 -0.2609
21710W        W38558   0.685  16.501  15.593  0.2674  0.3122  0.1020
21711W        W38559   8.883  12.753   3.103 -0.1729 -0.0365 -0.2008
21712W        W38560   5.999   8.746   3.056 -0.0720  0.2202  0.2262
21713W        W38561   9.722  14.684  16.015  0.3037  0.3011 -0.1188
21714W        W38562  11.125  17.405   2.763  0.0299  0.1873 -0.3064
21715W        W38563   6.689  11.650   2.304 -0.0516  0.0000 -0.3181
21716W        W38564  10.442   7.319  12.423  0.4165 -0.2582 -0.1426
21717W        W38565   4.510  15.507  11.915 -0.0156  0.1360  0.0061
21718W        W38566  13.403  13.650  13.893 -0.4779  0.1281  0.1298
21719W        W38567  15.514   9.220  11.061 -0.0941  0.0789  0.1052
21720W        W38568   4.540   0.891  13.833 -0.1260  0.1059  0.0287
21721W        W38569   8.114   1.317  11.752 -0.2857  0.0256  0.0081
21722W        W38570   6.681  15.003   2.117  0.1703  0.0625 -0.3691
21723W        W38571  11.100   2.823  13.779  0.2690  0.0228 -0.0903
21724W        W38572   7.602  12.152  16.268  0.2736 -0.0830 -0.1514
21725W        W38573   2.663   6.038  12.511 -0.1999  0.0161 -0.0773
21726W        W38574   9.908   3.751  15.408  0.0028  0.2355  0.4069
21727W        W38575   6.606  14.227   5.674  0.0890 -0.0671  0.0517
21728W        W38576   5.419  16.257   0.818 -0.1181  0.1520  0.0114
21729W        W38577  16.463   5.694   2.895  0.1649 -0.0367  0.0748
21730W        W38578   3.802   2.581  11.786  0.1075 -0.1708  0.1724
21731W        W38579   4.189   4.758   2.455 -0.0216  0.0678  0.1956
21732W        W38580   0.722  17.873   3.300  0.3606 -0.1175  0.1374
21733W        W38581   4.378   9.622   1.908 -0.0929 -0.0700 -0.0425
21734W        W38582   8.087  13.152   5.074 -0.0310  0.2221  0.1944
21735W        W38583  12.107   3.262   1.470  0.1299 -0.0450 -0.1639
21736W        W38584  13.309   4.896   0.849 -0.0558  0.1104  0.0366
21737W        W38585   7.445   4.483   3.072  0.3723 -0.0628  0.0225
21738W        W38586  13.186  16.920   0.459 -0.0627 -0.4110 -0.2225
21739W        W38587  11.073  17.064   2.205  0.0589 -0.0342  0.0673
21740W        W38588   6.218   0.894   5.648  0.4074  0.4866  0.0900
21741W        W38589   8.866   3.397   4.318 -0.1038  0.0444 -0.2569
21742W        W38590  10.273  14.849  13.184 -0.1406 -0.3278 -0.3054
21743W        W38591  11.569   3.169  14.592 -0.0819  0.1412  0.0827
21744W        W38592   0.893  13.581   0.578  0.1299  0.1946  0.2744
21745W        W38593   9.666  16.266   2.802  0.1480 -0.0969  0.2730
21746W        W38594  16.897  10.580  15.559 -0.0663  0.0042  0.1183
21747W        W38595  12.574   3.590   2.517 -0.2142  0.0709 -0.1551
21748W        W38596  16.585  15.115   4.073 -0.0493  0.1422  0.2398
21749W        W38597   9.224   3.417  15.649 -0.1702  0.0460 -0.1340
21750W        W38598   1.105  16.428   2.344  0.2885  0.1871  0.0274
21751W        W38599   7.205   3.296   4.614  0.1857 -0.1060  0.1023
21752W        W38600   7.167   0.209   3.209 -0.1549 -0.0327 -0.0515
21753W        W38601  11.999   9.272  13.952 -0.3059  0.0489  0.1330
21754W        W38602  17.380  14.368  13.436 -0.0539 -0.0799  0.0913
21755W        W38603  12.679   6.447   0.410  0.1351  0.0157 -0.0591
21756W        W38604  13.089  17.549   2.527 -0.0107  0.1933 -0.1403
21757W        W38605  12.296   0.821  14.114  0.2620 -0.1010  0.1085
21758W        W38606   6.390  11.608  13.653 -0.0031 -0.0032 -0.0464
21759W        W38607   0.908   3.888   4.866 -0.2144  0.0179  0.0897
21760W        W38608  17.667  17.268  11.551  0.2299 -0.0293 -0.1259
21761W        W38609   5.759   8.545  15.841 -0.2187 -0.1966  0.2276
21762W        W38610  13.804  11.738   3.712 -0.2089  0.1409 -0.0180
21763W        W38611   5.382   3.459   4.280  0.4889  0.0777 -0.1011
21764W        W38612  13.793   5.837   4.092 -0.2902  0.2714 -0.0594
21765W        W38613  14.389  16.837   0.068 -0.1353 -0.0768  0.0626
21766W        W38614  14.622  13.590   4.324 -0.0743  0.1227  0.2986
21767W        W38615  16.571  10.577  13.217 -0.1619 -0.0416  0.2235
21768W        W38616  12.700  15.165  14.971  0.1069 -0.0824 -0.0430
21769W        W38617  16.207  16.034  12.742 -0.4060 -0.0372  0.1499
21770W        W38618  10.228   0.488   2.915  0.2913  0.1035  0.2004
21771W        W38619  16.366  13.334  14.080  0.2972  0.0768 -0.2371
21772W        W38620  17.936   0.189  10.937 -0.1670 -0.0327 -0.0305
21773W        W38621  17.562   5.436  11.996  0.0265 -0.3063 -0.0797
21774W        W38622  12.336   5.531  14.156  0.4133  0.0750 -0.0004
21775W        W38623  16.876   1.181  15.508  0.1208 -0.0670 -0.1194
21776W        W38624  15.773  17.637  16.226 -0.5221  0.1129 -0.1091
21777W        W38625  15.296  13.039   0.344  0.3772 -0.0556  0.0413
21778W        W38626   4.178   2.690   1.487 -0.0011  0.1489 -0.2811
21779W        W38627  16.928  13.708   4.118  0.3234  0.0290  0.0554
21780W        W38628  13.108   8.179   4.241  0.2901 -0.1163 -0.1418
21781W        W38629   6.215   6.309   5.214  0.0882 -0.0978  0.0959
21782W        W38630   3.248  16.031   3.204  0.0460 -0.0699  0.2061
21783W        W38631  17.419   5.702  12.560 -0.1149  0.1759  0.0752
21784W        W38632   8.586  13.270  15.283  0.0641  0.1118  0.0265
21785W        W38633   0.491  12.738   3.575 -0.1084 -0.1971 -0.0736
21786W        W38634  17.731   2.189   3.648  0.2244  0.3174  0.4192
21787W        W38635   6.192   7.340   4.550  0.1040 -0.1063 -0.0378
21788W        W38636   3.173   2.373   5.676 -0.3373 -0.0229 -0.0403
21789W        W38637  16.629   7.353  14.616 -0.0328  0.3108  0.2658
21790W        W38638  18.034   0.564  15.027 -0.3857  0.1948  0.2979
21791W        W38639  10.928   9.022  11.486 -0.2227  0.0186 -0.0238
21792W        W38640   3.200  10.989  15.533 -0.1306  0.1649  0.1000
21793W        W38641   7.797  11.704   4.168 -0.2084 -0.2177  0.1784
21794W        W38642   4.066   8.892   5.653  0.2295 -0.0648 -0.0457
21795W        W38643   5.629   5.460   5.022 -0.2892  0.0629 -0.0940
21796W        W38644   2.582  10.479  10.293 -0.0305  0.0261 -0.1424
21797W        W38645  11.260   5.758   1.069  0.0975 -0.0244  0.0835
21798W        W38646   2.641  13.972   0.097 -0.1313 -0.3652 -0.0665
21799W        W38647  17.809   3.862   2.821 -0.2363 -0.1385 -0.0646
21800W        W38648   5.983   2.891   0.846 -0.0531 -0.0089 -0.2975
21801W        W38649   1.141   4.067   1.793  0.4567  0.0531  0.4010
21802W        W38650   4.141  12.679  14.195 -0.0729 -0.0442 -0.1239
21803W        W38651  12.430   3.337   3.411 -0.0837  0.0438 -0.1823
21804W        W38652   3.148   2.889   4.200 -0.3446  0.1362 -0.0093
21805W        W38653  10.459  10.962   0.707  0.0580  0.1492 -0.0448
21806W        W38654  10.217  10.336  13.484  0.2451  0.0344 -0.2172
21807W        W38655  10.122   9.317   1.775 -0.1950  0.2206  0.0578
21808W        W38656   2.839   9.017  13.043  0.0572 -0.0015  0.0216
21809W        W38657   6.780   0.333  12.928  0.2446  0.3034  0.1241
21810W        W38658   4.007  17.445  15.426 -0.1182  0.3515 -0.2642
21811W        W38659   0.959  13.447   3.706  0.0677 -0.1656  0.0091
21812W        W38660   7.568  12.113   3.170  0.4435 -0.0653 -0.2220
21813W        W38661   6.331  14.177   1.986 -0.2636  0.0093  0.1429
21814W        W38662   9.764   8.182   1.407  0.0158 -0.0056  0.0499
21815W        W38663  14.318   9.754   1.477 -0.0563 -0.0771 -0.1177
21816W        W38664   0.156   9.828   0.845 -0.0759  0.1907 -0.1588
21817W        W38665   0.697  13.141   1.605 -0.1725 -0.2803  0.0630
21818W        W38666   2.947  15.394   0.223 -0.0417 -0.0383 -0.0380
21819W        W38667  14.351   4.413   0.791 -0.1497 -0.1755 -0.2961
21820W        W38668   8.037  12.555   3.206  0.0508  0.1993 -0.0206
21821W        W38669   5.601  15.721   1.568  0.2490 -0.0906 -0.0115
21822W        W38670   1.306   8.245   1.844  0.1220  0.2506  0.0596
21823W        W38671  14.592   8.085  13.562  0.0187  0.1279 -0.4818
21824W        W38672   2.154   6.264   2.817  0.2400  0.0516  0.0419
21825W        W38673  14.503  10.242   9.929 -0.1246  0.0041  0.1713
21826W        W38674  13.690  13.338   5.455 -0.0985  0.0413 -0.3968
21827W        W38675  11.241   1.083  13.370  0.0816  0.0006 -0.0814
21828W        W38676   4.479  17.919   1.190 -0.0174  0.0898  0.0342
21829W        W38677   6.531  17.009  11.877  0.4662  0.2496  0.0190
21830W        W38678   4.602   0.444   0.455  0.1245  0.0139  0.3470
21831W        W38679   2.890   9.539   1.457 -0.0584  0.0382 -0.2633
21832W        W38680  13.562  12.538   0.115  0.1221  0.2882 -0.0362
21833W        W38681  10.662  12.078  13.178  0.0624  0.0701  0.1396
21834W        W38682  15.633   5.412   0.646 -0.3040 -0.1233  0.0724
21835W        W38683   3.164  10.610   0.435 -0.0343 -0.1655 -0.0371
21836W        W38684  10.451  12.975   1.333  0.3096  0.0720  0.4315
21837W        W38685   8.160   0.294   2.021 -0.1118 -0.1442  0.0343
21838W        W38686  10.238   6.002   3.982  0.1387  0.1079  0.1212
21839W        W38687  10.030   4.555  13.811 -0.3826  0.1048  0.3125
21840W        W38688  17.695   9.670  14.061  0.0457  0.0228 -0.2926
21841W        W38689   9.139   0.481  14.547 -0.0700  0.0244 -0.1350
21842W        W38690   4.946  17.192  15.649 -0.0921  0.0451  0.2433
21843W        W38691  16.848   9.266  15.417  0.2652 -0.2760  0.1280
21844W        W38692   3.352  17.007   3.627  0.0611  0.2284 -0.1888
21845W        W38693  11.920   1.798   4.205  0.1104 -0.2222  0.0102
21846W        W38694   2.519   0.674   3.514  0.1543 -0.2031  0.1361
21847W        W38695  14.158   3.522  15.651  0.1799  0.1461 -0.2722
21848W        W38696   6.221  11.478  11.219  0.0397 -0.1064 -0.3157
21849W        W38697   5.800  17.480   0.651 -0.1188 -0.2198  0.0332
21850W        W38698   9.344  13.534   2.192  0.0186  0.0353  0.0904
21851W        W38699   8.271  10.598  11.876  0.2644  0.3225 -0.3439
21852W        W38700   0.960  16.960   3.419 -0.0551 -0.0580  0.1256
21853W        W38701  15.615   5.375   4.021  0.2334  0.1156 -0.0951
21854W        W38702  11.329  17.241  10.188  0.0152 -0.3231 -0.0093
21855W        W38703  12.878   6.460   1.590  0.1414 -0.1115  0.1972
21856W        W38704   9.475   6.352  14.271  0.0721  0.1853 -0.3607
21857W        W38705   1.520   4.256   2.015 -0.0617 -0.2070  0.2742
21858W        W38706  15.910  15.660   3.686 -0.1476  0.1373  0.1078
21859W        W38707   0.298  12.100   4.648 -0.2428 -0.3836 -0.2668
21860W        W38708  10.257   7.389  12.917  0.0062  0.0128 -0.0837
21861W        W38709   2.626  16.053   1.913 -0.2936 -0.0310 -0.1444
21862W        W38710   5.546   1.374   1.329  0.0678 -0.0604 -0.2291
21863W        W38711   2.069   1.988   4.569 -0.0097  0.0096  0.1267
21864W        W38712   1.591   5.070  14.254  0.3365  0.1715 -0.0301
21865W        W38713  14.524   7.653   3.892  0.0485 -0.0513 -0.0438
21866W        W38714   3.067  14.294  12.373 -0.0746 -0.3272 -0.0959
21867W        W38715   3.001  11.447   0.978 -0.1521 -0.0406 -0.3835
21868W        W38716  12.360  10.255  13.038 -0.2670  0.2897  0.2883
21869W        W38717  12.452   3.795   4.688  0.0332  0.3237  0.0339
21870W        W38718  14.170  12.193  15.494 -0.2483  0.0944 -0.1186
21871W        W38719  10.842   0.738   4.950  0.0562 -0.3513  0.2221
21872W        W38720   3.943  11.897   3.194  0.1350  0.3151  0.0309
21873W        W38721  17.654   9.418   2.305 -0.0471 -0.4115  0.0623
21874W        W38722  12.514   0.250  15.283  0.4170  0.1406 -0.0602
21875W        W38723   8.423   6.633   0.970 -0.2044  0.1586  0.1129
21876W        W38724   8.243   3.474  14.151  0.1335 -0.0422 -0.0646
21877W        W38725   8.736   9.863   2.552  0.0863  0.1119  0.0944
21878W        W38726   6.778  15.594   0.706  0.1405 -0.1700 -0.0862
21879W        W38727   2.456   9.347   2.334  0.0010  0.0480  0.2248
21880W        W38728   3.838  12.321  15.582 -0.0656 -0.3524  0.0032
21881W        W38729   6.811   8.338   0.061  0.1070  0.0971 -0.0446
21882W        W38730  11.934  17.688   3.027  0.0016 -0.0809 -0.1104
21883W        W38731   5.925  13.000   2.961  0.3411 -0.0830 -0.1138
21884W        W38732  11.033   8.932  11.970  0.3094 -0.0906 -0.0249
21885W        W38733   2.566  17.232   3.253 -0.1304  0.1016  0.0417
21886W        W38734   3.113   9.141   1.717  0.2692  0.1518 -0.0766
21887W        W38735   3.884   7.380  13.461 -0.0151 -0.4846  0.0524
21888W        W38736   7.468  17.385  13.875 -0.1000 -0.1880  0.1233
21889W        W38737  12.833  10.659   1.900  0.1778  0.2753  0.1559
21890W        W38738   3.607   6.168   3.241 -0.3132 -0.2655  0.1162
21891W        W38739   0.897  14.449  13.481 -0.1713  0.2217  0.1099
21892W        W38740   4.747  17.261   5.036 -0.1296  0.2933  0.0796
21893W        W38741  13.359   0.473   2.931 -0.0944  0.2423  0.0185
21894W        W38742  12.428   0.782   4.787  0.0408  0.1597  0.0759
21895W        W38743  14.902   4.800   2.502 -0.2480 -0.1664  0.2157
21896W        W38744   6.827   9.493  11.515  0.1174 -0.0051 -0.1030
21897W        W38745   7.567  13.086  10.589  0.0582  0.3291 -0.0738
21898W        W38746  17.454  12.028   2.900 -0.1190 -0.0016 -0.0269
21899W        W38747  15.945  15.874   0.954 -0.0974  0.0231  0.2498
21900W        W38748   2.012   5.467   1.508  0.1097  0.2115 -0.0631
21901W        W38749  10.444   0.846  11.121 -0.2759  0.0581 -0.0684
21902W        W38750   5.546   3.334  16.266 -0.0260  0.0037  0.3437
21903W        W38751   1.345  10.775  11.805 -0.1527 -0.1271  0.1497
21904W        W38752  15.021   8.612  15.852  0.1432 -0.0376  0.1597
21905W        W38753  13.957   4.117  12.450  0.1626  0.0623 -0.2201
21906W        W38754  11.574  16.335  14.872  0.0814 -0.2535 -0.2015
21907W        W38755  11.506   9.522  13.955  0.2873 -0.0564 -0.1272
21908W        W38756  12.926   0.133   1.766 -0.1698  0.1965  0.1478
21909W        W38757  12.812   9.136   4.407  0.2189 -0.0173  0.2037
21910W        W38758   8.055  16.154   2.152  0.0063 -0.0634  0.2441
21911W        W38759  10.905   4.395   2.409 -0.0349 -0.2156  0.1825
21912W        W38760   5.211   4.150  14.640  0.0139 -0.3515 -0.2621
21913W        W38761   9.040   0.972   1.458 -0.3708 -0.1161 -0.2701
21914W        W38762  10.775  10.342  15.536  0.0193 -0.0612 -0.2152
21915W        W38763   5.104   9.064   1.446  0.1079 -0.1671  0.0973
21916W        W38764  12.415   5.201   2.363 -0.0155  0.1063  0.0719
21917W        W38765   8.674   2.327   4.296 -0.1736  0.2168  0.2504
21918W        W38766  11.434   7.510  13.793  0.1767  0.0402  0.1561
21919W        W38767  14.005   2.416  11.078  0.0600  0.0360 -0.1836
21920W        W38768   1.170   8.576  14.583 -0.2794 -0.0923  0.1812
21921W        W38769   1.319  12.617   5.830  0.2279  0.3637  0.3230
21922W        W38770  13.946  11.934  11.707  0.2476 -0.1648 -0.1285
21923W        W38771  15.503  16.268  12.225 -0.0723 -0.2310 -0.0212
21924W        W38772  10.719   3.971   3.198  0.3138  0.1974  0.1572
21925W        W38773   6.718  10.256   4.212  0.2549 -0.2565  0.0632
21926W        W38774   4.584  11.019  13.553  0.0274  0.0430 -0.2245
21927W        W38775   3.736   8.185  13.268 -0.0563 -0.0970  0.1212
21928W        W38776   2.030   4.860  11.961  0.1287 -0.3946  0.4969
21929W        W38777   4.962   3.177  11.677 -0.2121 -0.2701 -0.3338
21930W        W38778  17.155  12.904  11.046  0.2878  0.2210 -0.2196
21931W        W38779   8.430   8.043   1.482 -0.1300 -0.0875  0.1652
21932W        W38780   1.328   6.581   5.503 -0.1963 -0.2083 -0.0550
21933W        W38781   2.044   5.698  11.959  0.0515 -0.2450  0.3084
21934W        W38782   4.127  16.744  13.829 -0.0797  0.0351 -0.3725
21935W        W38783   4.210   2.133   1.355 -0.0517 -0.0773  0.0645
21936W        W38784  16.458  16.891  14.192 -0.2543 -0.2452  0.0906
21937W        W38785   8.406   2.678  14.354  0.0263 -0.0201 -0.1299
21938W        W38786   0.503  13.709   5.267  0.1222  0.0811 -0.1617
21939W        W38787   3.347  12.730  14.524 -0.0500 -0.1654  0.0419
21940W        W38788  16.114   0.462   4.039  0.0410 -0.0708  0.2279
21941W        W38789  16.074   2.473  15.212 -0.0711 -0.1025  0.2953
21942W        W38790   3.059   0.594  10.147  0.0304  0.4522  0.5073
21943W        W38791   5.597   4.407  14.868 -0.1176  0.2230 -0.0702
21944W        W38792  16.170  14.878   2.289 -0.0240 -0.2156  0.2595
21945W        W38793   4.370  13.667   3.192  0.0891 -0.0946 -0.1615
21946W        W38794   1.321  10.884   1.004 -0.3458 -0.0957  0.1001
21947W        W38795  16.894   2.166  12.191  0.1066 -0.0866 -0.1201
21948W        W38796   6.974  13.022  15.515  0.0387  0.2150  0.0992
21949W        W38797  15.818  13.991   2.185  0.1526  0.0412 -0.2005
21950W        W38798  11.110   2.367  15.911 -0.2155 -0.0110 -0.1338
21951W        W38799  14.726   0.275   0.609 -0.0959 -0.3088 -0.2848
21952W        W38800   2.978  16.934  13.450 -0.0464  0.3853  0.1988
21953W        W38801  16.862  14.156  12.812 -0.1711  0.2994  0.0523
21954W        W38802   4.394  17.070  15.692  0.1787 -0.0851 -0.0685
21955W        W38803   7.213  11.238  10.897  0.0631 -0.2273 -0.1955
21956W        W38804  14.289  12.795  15.372 -0.0462  0.1779  0.0551
21957W        W38805  13.153  13.498   5.309 -0.0444  0.0343 -0.0013
21958W        W38806   6.065  15.943  13.974 -0.0514  0.1724 -0.1338
21959W        W38807   2.205  14.514  11.010 -0.0912 -0.4175 -0.0656
21960W        W38808  12.723  13.783  11.064  0.2513 -0.2715 -0.2076
21961W        W38809  15.895  10.469   0.481 -0.0269 -0.1224 -0.4095
21962W        W38810   7.595   9.801  14.193 -0.0409 -0.0782 -0.0295
21963W        W38811  12.516  15.215  15.918  0.0111 -0.0046 -0.3252
21964W        W38812   6.653   6.902   1.089 -0.2814 -0.2767  0.0759
21965W        W38813   7.163   8.205   1.529 -0.1286  0.0045  0.1218
21966W        W38814   8.750   4.876   1.757 -0.1996  0.2075  0.2993
21967W        W38815   4.649   4.895   4.221 -0.0223 -0.2587  0.2001
21968W        W38816   2.480   5.227  14.000  0.2041  0.1589 -0.0415
21969W        W38817   2.411   4.116   2.408  0.0661 -0.2981 -0.1108
21970W        W38818   4.463  10.779   4.481  0.2275 -0.4222  0.2485
21971W        W38819   2.102   1.015  15.203  0.3952 -0.3010  0.0530
21972W        W38820   9.393   1.208   2.067 -0.0656  0.4113 -0.0074
21973W        W38821   8.981   0.880  12.192  0.2819  0.3767  0.0182
21974W        W38822   6.076   0.105   3.268  0.1911  0.1000  0.0254
21975W        W38823  12.674  16.404  12.646  0.0592  0.1466  0.1039
21976W        W38824  16.914  13.332  11.515  0.1202 -0.1685  0.1499
21977W        W38825   8.340   7.303  11.121  0.0117 -0.1397  0.2871
21978W        W38826   3.751  12.842  15.966 -0.0089 -0.2865 -0.1902
21979W        W38827   6.837   4.622   0.245  0.1122  0.1643  0.0884
21980W        W38828   0.182   6.652   3.158  0.2101 -0.0126 -0.4877
21981W        W38829  13.991  15.957  15.184 -0.1240 -0.1686 -0.1722
21982W        W38830  17.232   4.557   2.409  0.0908  0.1445  0.1742
21983W        W38831   8.988   0.707   4.774  0.3089 -0.2696  0.1330
21984W        W38832  12.662   5.565  13.740  0.0202  0.1660 -0.0060
21985W        W38833  10.679   4.375   1.444  0.1990  0.2713 -0.0035
21986W        W38834   5.920  16.024   0.129  0.0889  0.1144  0.1867
21987W        W38835   4.836   0.786  11.425 -0.3230 -0.0040  0.1159
21988W        W38836  12.628   0.001  13.784  0.1061  0.2903 -0.1257
21989W        W38837  16.936   7.261   4.893 -0.0584  0.0348  0.2001
21990W        W38838  10.235  16.065  15.974  0.0203  0.2042  0.0128
21991W        W38839   5.034   9.025   4.549  0.2736  0.3168 -0.1599
21992W        W38840   4.143  15.487  16.236  0.0527  0.2328 -0.1741
21993W        W38841  16.994   0.760  15.080 -0.2587  0.1225  0.1370
21994W        W38842   9.969  17.096  13.495 -0.3518 -0.0026 -0.3122
21995W        W38843  13.183   1.229   3.916 -0.0192 -0.1336 -0.2392
21996W        W38844  13.265   7.131   0.378 -0.0740  0.0374  0.2324
21997W        W38845   4.506   1.715  11.183  0.2643 -0.1901  0.0435
21998W        W38846   6.776  11.488  14.018  0.1519 -0.0661  0.2434
21999W        W38847   5.293  13.142  14.704  0.1833 -0.1952  0.0738
22000W        W38848   1.300  14.246   4.362  0.1229 -0.1976 -0.3478
22001W        W38849   0.386  17.675  15.966 -0.1401 -0.0596  0.0300
22002W        W38850   8.318   9.674  11.212  0.0489  0.0614  0.1069
22003W        W38851  12.545  14.406  16.081  0.0752 -0.2118 -0.0127
22004W        W38852  11.953   6.896   4.341  0.3979  0.0686 -0.0673
22005W        W38853  18.024   1.808   3.768  0.2218  0.2106 -0.0585
22006W        W38854   0.401  10.689  12.030  0.0082 -0.0691  0.3217
22007W        W38855   5.202  15.916  14.296  0.0234  0.2682 -0.1604
22008W        W38856  13.921   5.072   4.252 -0.1004 -0.0760  0.2305
22009W        W38857  12.327   1.341  12.307  0.3997 -0.1781  0.2015
22010W        W38858   7.654  13.213  11.927 -0.1437  0.2356 -0.0196
22011W        W38859   8.947  13.230  14.957 -0.3896 -0.1129  0.0405
22012W        W38860   6.632   3.803   1.509  0.1119  0.0762 -0.1779
22013W        W38861   8.461   7.296   5.039 -0.1717 -0.3575  0.2392
22014W        W38862  15.036   7.809   2.733  0.1908 -0.2728 -0.0289
22015W        W38863   2.347   6.783   4.762 -0.0685  0.0579  0.1826
22016W        W38864  16.675  12.743   0.731 -0.4568  0.0461 -0.0815
22017W        W38865   5.801   5.915   4.803  0.0702  0.0215 -0.2579
22018W        W38866  15.018  17.144  14.098  0.0632  0.2417  0.2291
22019W        W38867   7.289  11.178   1.305 -0.0104  0.4442  0.0075
22020W        W38868  16.822  16.938   9.919  0.1365 -0.1603  0.0739
22021W        W38869   4.019   0.955   5.613 -0.0006  0.1483 -0.2394
22022W        W38870   8.696  16.864  13.237  0.1494 -0.0289 -0.1159
22023W        W38871  15.204   7.386  14.335  0.1067 -0.2786 -0.3801
22024W        W38872  16.430  17.139   4.905 -0.2219  0.0367  0.2826
22025W        W38873  11.828  10.051  16.205 -0.3215 -0.1338 -0.1440
22026W        W38874  10.331   1.368   3.323  0.4310 -0.1463 -0.0024
22027W        W38875  14.089  12.729  11.538 -0.2052 -0.2146  0.1240
22028W        W38876  16.442   2.669   4.608  0.0042 -0.4694  0.0523
22029W        W38877  13.417  17.878  15.179  0.0388 -0.0361  0.0816
22030W        W38878  14.495   7.965   4.775  0.0426 -0.0212  0.1068
22031W        W38879  13.416   7.456   1.204 -0.0732  0.2000  0.0614
22032W        W38880   8.034   8.042  15.430  0.1501 -0.2294 -0.1484
22033W        W38881  17.059   9.439   1.295 -0.1225  0.0621  0.0592
22034W        W38882  13.180   6.182   0.384 -0.0853 -0.0220 -0.0601
22035W        W38883   7.226   0.823   1.492  0.0254  0.0839  0.0743
22036W        W38884   7.799   4.691   1.017 -0.0257 -0.0526  0.5612
22037W        W38885  11.938   5.773  11.955 -0.0686 -0.0968  0.0083
22038W        W38886   6.670  10.745  12.381  0.0488  0.0542  0.1353
22039W        W38887   4.931   3.050   1.819  0.0845  0.0486  0.1614
22040W        W38888  13.957   4.347  12.874  0.2195  0.1380  0.1031
22041W        W38889  16.520   6.944   0.850 -0.2071 -0.4348 -0.1025
22042W        W38890  17.144   8.047  16.035 -0.2615 -0.3388 -0.1637
22043W        W38891   3.389   2.651   5.180  0.0614 -0.0760 -0.1447
22044W        W38892  10.875   7.118   2.171  0.0738 -0.3056  0.2573
22045W        W38893   0.376   1.477   1.620  0.0414  0.0415 -0.1478
22046W        W38894   1.982   6.929  14.003  0.1708  0.0716  0.2009
22047W        W38895   8.915   4.002  15.071 -0.0363  0.2187  0.2386
22048W        W38896   1.282   7.376  14.556 -0.2040  0.4295 -0.0907
22049W        W38897   9.796   3.496   2.391 -0.1612  0.0640  0.2076
22050W        W38898  15.474   4.857   2.540 -0.1902 -0.1497 -0.0851
22051W        W38899   6.542   7.948   4.816  0.1455  0.0718 -0.2614
22052W        W38900  12.889  16.588   0.723  0.0554 -0.1096 -0.1154
22053W        W38901   2.928  12.519   1.093 -0.1029  0.3289  0.1563
22054W        W38902   3.004  13.261  12.587 -0.1777  0.1228  0.1293
22055W        W38903   5.891  11.611  15.342 -0.1405 -0.0700  0.3618
22056W        W38904   0.147   3.848  12.998 -0.1190 -0.2647 -0.0329
22057W        W38905   9.938   1.517  13.939 -0.4262 -0.3732  0.0871
22058W        W38906   2.275  12.638   4.803 -0.0368 -0.5429 -0.0044
22059W        W38907  10.082   0.864   3.665  0.0465  0.0372  0.1142
22060W        W38908   4.019   8.270   0.932  0.3311  0.2608  0.1762
22061W        W38909   5.533  12.995  14.270  0.1587 -0.1606  0.2112
22062W        W38910   0.681   7.480  13.639  0.0646 -0.3254  0.0459
22063W        W38911  15.016   1.008  12.170 -0.0514 -0.2776  0.1996
22064W        W38912  13.497   6.992   2.103 -0.0595 -0.1243  0.0981
22065W        W38913  16.404  11.849  11.230  0.0806 -0.0367  0.3665
22066W        W38914  17.034   4.634  12.380 -0.0038 -0.0815  0.0100
22067W        W38915   0.875   0.453   0.616  0.0222  0.1915  0.4334
22068W        W38916   3.346   5.750   0.614 -0.2886  0.1071  0.2239
22069W        W38917   9.427  11.786  16.246  0.0665 -0.0848  0.1839
22070W        W38918  15.125  13.452   2.109  0.3425 -0.1407 -0.0203
22071W        W38919  15.420  16.975  13.396  0.1380  0.5000 -0.0506
22072W        W38920   9.522  14.233  14.641  0.2494 -0.1379  0.0120
22073W        W38921   9.296  11.903   5.171 -0.0625 -0.1125  0.1300
22074W        W38922  10.629   0.833  12.818  0.2065 -0.0081  0.0800
22075W        W38923   0.320  16.184   3.761 -0.2300 -0.2637 -0.1222
22076W        W38924  12.271   3.689  13.590  0.0469 -0.0292  0.1458
22077W        W38925   4.545   7.025  14.157 -0.0210 -0.0513  0.0011
22078W        W38926  10.535   9.935  13.322  0.0674  0.2244 -0.0226
22079W        W38927   4.259  17.503  14.984  0.2559  0.0391 -0.0045
22080W        W38928  14.327  15.446   2.381  0.1692  0.1390 -0.3359
22081W        W38929  14.714   5.269  15.325  0.1260  0.1820  0.2018
22082W        W38930  11.509  13.355  11.967 -0.2210 -0.2076 -0.1228
22083W        W38931  17.573   5.513   2.834 -0.2377 -0.2101 -0.2226
22084W        W38932  15.055   5.307   3.728  0.0089 -0.0648  0.1223
22085W        W38933   2.126   4.576  12.834 -0.1686 -0.0613 -0.1020
22086W        W38934   3.453   7.946  14.491 -0.1617  0.3516 -0.0605
22087W        W38935  15.829   0.552  11.988 -0.0116  0.0808  0.0351
22088W        W38936  13.413  12.456  14.274  0.0960 -0.3267  0.2595
22089W        W38937  14.401  11.189  13.997  0.1508  0.1959 -0.1638
22090W        W38938  15.988   4.755  15.758 -0.1815  0.0697 -0.1798
22091W        W38939   2.038   4.626   3.228 -0.2187  0.2319 -0.1114
22092W        W38940  13.178  15.101  14.770  0.0346 -0.4656  0.0872
22093W        W38941  16.184   2.217   2.388  0.0904  0.1749  0.0112
22094W        W38942   6.757  13.687   6.483 -0.2357 -0.2689  0.0401
22095W        W38943  17.184  11.752   2.259  0.1987  0.1393 -0.3022
22096W        W38944  11.812  14.988  13.860 -0.1410  0.3530  0.2533
22097W        W38945   9.101  16.103  14.694 -0.0194 -0.0243  0.2947
22098W        W38946   9.917   5.139   4.469  0.0297  0.1115  0.3478
22099W        W38947   3.299   8.044  14.007  0.3033 -0.0250 -0.2369
22100W        W38948  16.962   7.541  14.935 -0.1032  0.0725 -0.2044
22101W        W38949  10.142  11.304  12.568  0.1866 -0.2573 -0.0258
22102W        W38950  15.503   5.147   0.288 -0.1729 -0.2202  0.1467
22103W        W38951   7.736  14.521   5.074 -0.0937 -0.1415 -0.1511
22104W        W38952  13.267   6.936  14.395 -0.1382 -0.0343  0.0167
22105W        W38953  13.039  14.194   4.570 -0.0473 -0.1058 -0.1943
22106W        W38954  16.869  11.941  13.192 -0.0458 -0.1030 -0.1064
22107W        W38955  14.897  14.123  14.353 -0.2110 -0.1504 -0.2298
22108W        W38956   1.393   1.229   6.241  0.0693  0.3656 -0.0125
22109W        W38957  10.922   2.171  12.773 -0.0039 -0.3181  0.3113
22110W        W38958  17.644   4.650   5.042 -0.1902 -0.2796  0.0337
22111W        W38959  12.882  16.113   0.927  0.0497  0.0180  0.2199
22112W        W38960  12.240  15.659  15.920 -0.0041  0.3308 -0.4062
22113W        W38961  16.274  14.704  12.401  0.1035  0.2625  0.1914
22114W        W38962   1.894   0.336   2.870 -0.0426 -0.2193 -0.2537
22115W        W38963   2.999  10.832   2.274  0.0734 -0.3165 -0.1851
22116W        W38964   1.896   8.379  14.048 -0.1154 -0.0166 -0.0111
22117W        W38965  10.064   1.311   2.797  0.1380  0.0059  0.0141
22118W        W38966   1.279  15.341  14.854  0.4087 -0.3498 -0.0107
22119W        W38967  17.178  13.590  10.225 -0.1814 -0.2131  0.0087
22120W        W38968  15.250   4.191   5.174  0.1700  0.1877  0.0425
22121W        W38969   6.315  16.640   3.867  0.1087  0.1219  0.1624
22122W        W38970  14.467   9.513   1.084  0.3908  0.0755  0.1190
22123W        W38971   8.751   4.504  15.133  0.0540  0.2724  0.1111
22124W        W38972   5.814   1.868  14.728  0.2666  0.0883 -0.0770
22125W        W38973   1.669  15.378  16.147 -0.2123 -0.1245  0.2551
22126W        W38974  16.652  16.891  12.993 -0.0622  0.1921  0.1151
22127W        W38975  17.987   3.445   1.976 -0.1334  0.1470  0.0241
22128W        W38976  13.328   1.384  14.201 -0.0077  0.2031 -0.3722
22129W        W38977   4.094  15.811  13.841  0.2260 -0.1426 -0.2332
22130W        W38978  15.421   8.264  14.616  0.1136 -0.2475 -0.1117
22131W        W38979   0.277  12.231   2.095 -0.2084 -0.1786  0.1815
22132W        W38980   5.119  11.004   2.882  0.0461 -0.3066  0.0261
22133W        W38981  17.519  11.596   4.957  0.3199 -0.2152  0.1934
22134W        W38982   6.914   0.457  16.252  0.0988 -0.0953 -0.1738
22135W        W38983  17.128  15.990   3.772 -0.0367  0.1991 -0.0358
22136W        W38984  12.355   4.697  12.339  0.2503 -0.0556 -0.0756
22137W        W38985  14.982  13.591  15.853 -0.2909  0.2643 -0.0039
22138W        W38986   9.292   9.794  13.188 -0.0790  0.1753 -0.0533
22139W        W38987   7.953  13.520   1.160 -0.1695  0.0082 -0.0193
22140W        W38988  16.476   5.530  14.292 -0.5167 -0.2987  0.0615
22141W        W38989   2.291  15.883   0.366  0.0957 -0.1853  0.2431
22142W        W38990  16.172  14.132   0.073 -0.0958 -0.1880 -0.0910
22143W        W38991   6.933  17.136  11.457 -0.0757  0.2012  0.1618
22144W        W38992  10.045   2.098   2.305  0.1256 -0.0085  0.1563
22145W        W38993   0.732   3.021   4.819 -0.0575  0.1759  0.1526
22146W        W38994   1.255  15.823  12.597 -0.0847 -0.0947 -0.3456
22147W        W38995   3.953   9.464  15.041 -0.0710 -0.1653  0.1324
22148W        W38996  11.981   8.242   0.355 -0.0190  0.0619  0.1246
22149W        W38997   2.735   9.335  12.635  0.2561  0.2464  0.0736
22150W        W38998   8.909  16.983   2.815 -0.3518  0.0951  0.2886
22151W        W38999   6.021   6.303   4.177 -0.2995 -0.1152 -0.0634
22152W        W39000   3.214  17.063   1.415 -0.0276 -0.0344  0.2290
22153W        W39001  17.874  10.054  15.547 -0.0016  0.0728 -0.1044
22154W        W39002   6.493   4.090   4.496  0.0361 -0.0433  0.3165
22155W        W39003  11.670  15.033   0.340  0.3715  0.1822  0.1077
22156W        W39004   2.383   8.680  11.979 -0.2733  0.1318 -0.0688
22157W        W39005  10.525   3.774   0.581  0.0383 -0.1337  0.0405
22158W        W39006   5.769  15.222  14.741  0.2451 -0.0599  0.1343
22159W        W39007   8.406  17.525  16.013  0.0613  0.2117 -0.1624
22160W        W39008   1.722   9.435   2.913 -0.1527  0.1643  0.1298
22161W        W39009  11.699  11.097   4.568 -0.1646 -0.1031 -0.0725
22162W        W39010  16.764   1.380   1.241  0.0105  0.1112  0.1123
22163W        W39011   2.452  11.326   5.021 -0.2267 -0.1192  0.2769
22164W        W39012   1.762  15.934   4.740 -0.0907  0.1490  0.0699
22165W        W39013  16.075  13.426   3.715  0.0532 -0.0308 -0.0405
22166W        W39014  16.469   5.693   1.631 -0.3849 -0.1311 -0.1439
22167W        W39015  13.645   8.354  13.837  0.2161 -0.0096 -0.3326
22168W        W39016  15.359   6.339  11.631  0.2005  0.0091 -0.1257
22169W        W39017  11.858   0.464   0.864  0.0923  0.0731 -0.1191
22170W        W39018  15.348   2.730   3.832  0.0264  0.1370  0.0361
22171W        W39019  14.475  14.894   4.597  0.0740 -0.1319  0.3115
22172W        W39020  17.253   8.017   1.412 -0.2246 -0.1330  0.0174
22173W        W39021  11.651  17.011  11.575  0.2828 -0.0230  0.0125
22174W        W39022  12.452   3.546   2.025 -0.0976 -0.0168  0.3985
22175W        W39023  11.114   2.459  14.775 -0.0103  0.0691 -0.1221
22176W        W39024   1.325  10.052   9.973  0.0163  0.1308  0.2416
22177W        W39025   1.024   4.570   1.867  0.2417 -0.3165 -0.1945
22178W        W39026  11.417  14.158   2.733 -0.0690  0.0633 -0.0160
22179W        W39027   3.145  11.671   3.374 -0.3194 -0.1266 -0.5186
22180W        W39028   7.377   1.642  15.961  0.1359  0.0418 -0.1511
22181W        W39029   1.509  10.471   0.590  0.0120 -0.2610  0.1047
22182W        W39030   9.443  15.209  14.476 -0.1427  0.1108  0.4723
22183W        W39031   9.247  16.938   3.778  0.0648  0.3359  0.2062
22184W        W39032   3.933   8.382   0.404 -0.1504 -0.2015  0.0598
22185W        W39033   3.913   3.524  11.767  0.2151  0.0138 -0.1598
22186W        W39034  12.310   5.882   1.448  0.1230  0.2486  0.1967
22187W        W39035  13.794   5.951   0.494  0.0502 -0.0388 -0.0661
22188W        W39036   2.423  17.743  16.052  0.1454  0.1830 -0.2030
22189W        W39037   2.031   4.253   4.091 -0.5554  0.0199  0.5185
22190W        W39038   8.175   4.523   4.834 -0.5568 -0.0569 -0.0726
22191W        W39039  16.050  13.561  14.711  0.0648  0.3058  0.1775
22192W        W39040   2.001   2.212   2.646 -0.2216  0.0336  0.1599
22193W        W39041   6.779   3.059   3.981 -0.2462  0.3334 -0.1965
22194W        W39042   9.572   1.813  14.313  0.2841 -0.2173  0.1137
22195W        W39043   4.722   8.282  15.309 -0.2409  0.0560  0.2260
22196W        W39044  15.270   7.445   3.192  0.1371  0.0832 -0.0631
22197W        W39045  16.595  12.700  15.977  0.2278  0.0631 -0.1482
22198W        W39046   6.616   4.086  11.609 -0.4256  0.0828  0.0505
22199W        W39047  15.753  10.028  11.147 -0.0187  0.1509  0.3437
22200W        W39048   2.770  12.466   0.310 -0.0231  0.2611  0.0357
22201W        W39049  12.079  14.603  12.017 -0.1999 -0.1379 -0.1315
22202W        W39050  12.094   3.623   3.871  0.2043 -0.0281  0.2763
22203W        W39051   9.822  11.947  14.755 -0.3946 -0.5274  0.0837
22204W        W39052  15.877   1.657   3.563 -0.3206 -0.3167 -0.0351
22205W        W39053  16.401  13.392  15.069 -0.2251 -0.0293  0.1540
22206W        W39054  11.487  11.086  13.862 -0.0673 -0.1265  0.0617
22207W        W39055  13.382   9.220  13.959  0.0831 -0.1392 -0.1229
22208W        W39056   2.942   6.904  11.844 -0.0762 -0.1307 -0.2569
22209W        W39057   5.683  10.844  10.918 -0.3188 -0.0306  0.1563
22210W        W39058   6.029   2.988   4.622  0.1224 -0.1454 -0.1810
22211W        W39059   4.901  14.930   3.608  0.0856  0.0087  0.0333
22212W        W39060  14.568   3.068  15.058  0.3603  0.0384  0.2492
22213W        W39061   1.918   7.773   4.181  0.2733 -0.0605 -0.0274
22214W        W39062  13.557  10.444   1.218 -0.1104  0.1867 -0.0065
22215W        W39063   3.148  14.292  10.867  0.1583  0.0679 -0.1919
22216W        W39064   6.300  12.121  13.281  0.1806 -0.1816  0.0349
22217W        W39065  12.170   8.384   2.139  0.1820 -0.1151 -0.0515
22218W        W39066  12.859  11.260  10.654 -0.1737  0.1368 -0.0153
22219W        W39067   0.327   2.043   0.794 -0.0901  0.0326  0.3827
22220W        W39068  18.026   6.734  12.894 -0.3718  0.3559  0.0176
22221W        W39069   3.556  14.240   2.702 -0.2380  0.1907 -0.1692
22222W        W39070  11.653   8.055   1.097  0.0165  0.0281  0.2327
22223W        W39071  13.353   3.665  12.770 -0.0239 -0.0828  0.1156
22224W        W39072   9.199   6.320   0.555  0.2189  0.1044 -0.0917
22225W        W39073   2.212  17.592   4.172 -0.0743  0.1659  0.0384
22226W        W39074  17.663  10.182  16.242  0.0373  0.0905  0.0839
22227W        W39075  16.743   4.639  13.191 -0.2748 -0.1006  0.2086
22228W        W39076  11.057   6.647  13.799 -0.2279  0.0559  0.3142
22229W        W39077  12.883  13.203   2.877 -0.1290 -0.0548  0.0736
22230W        W39078  14.766  13.489  13.925 -0.2758 -0.1095  0.0037
22231W        W39079   7.343   4.483   2.261 -0.2460 -0.1904 -0.2144
22232W        W39080   8.199   5.928  14.140 -0.1843  0.2240  0.1541
22233W        W39081   1.065   7.185  12.311  0.0445  0.1552  0.0488
22234W        W39082   7.228   4.755  11.752  0.0299  0.1332  0.3145
22235W        W39083  10.665   1.943  11.834 -0.1133 -0.1170 -0.0370
22236W        W39084  10.086   5.259   0.793 -0.1339 -0.0816  0.2431
22237W        W39085   9.123   8.604  14.029  0.2878  0.2145 -0.0917
22238W        W39086  10.350   9.398   3.462 -0.1561 -0.2080 -0.2971
22239W        W39087   6.827  16.748  12.700  0.1603  0.4067 -0.2014
22240W        W39088  12.688  12.521  10.499  0.0058 -0.0634 -0.1281
22241W        W39089   2.972   7.676  12.036 -0.2762  0.1356  0.3224
22242W        W39090   2.996  17.505  14.974  0.0002 -0.1266 -0.1844
22243W        W39091  16.012  16.295  13.116 -0.0366 -0.1715 -0.2254
22244W        W39092   0.807   5.907  12.813 -0.4135  0.1719 -0.2346
22245W        W39093  11.733   4.448   4.732  0.4049 -0.0162 -0.0831
22246W        W39094   0.910   4.829  13.965  0.2114  0.3838 -0.0708
22247W        W39095  15.349  12.020   4.326 -0.0403 -0.0803 -0.1064
22248W        W39096  15.850  12.020   0.824  0.0185  0.0469 -0.1383
22249W        W39097  17.674   7.685   4.252 -0.0372  0.0128  0.3188
22250W        W39098  13.308   7.677   3.391 -0.0496  0.0883 -0.2066
22251W        W39099  12.060   6.208   1.160 -0.3081  0.0792  0.1757
22252W        W39100   9.748  16.397  15.702 -0.1531  0.3883  0.2671
22253W        W39101   8.510  15.198  14.458  0.2691  0.0857 -0.0373
22254W        W39102  15.615  16.754  16.240  0.0266  0.0643  0.0478
22255W        W39103   5.905   4.423  13.290  0.0891 -0.1815 -0.0249
22256W        W39104  16.658   4.292  14.821  0.0524 -0.0169  0.1216
22257W        W39105  11.225  13.352  16.215  0.0039 -0.0892 -0.0062
22258W        W39106  12.189   3.452  12.624 -0.0883 -0.2137  0.3223
22259W        W39107  10.851  11.154   5.621 -0.0821  0.0571 -0.1509
22260W        W39108  17.142   3.161   1.218 -0.1439  0.0075 -0.0251
22261W        W39109   3.401  13.247   4.808 -0.1691 -0.0872 -0.0476
22262W        W39110   7.371  13.368  11.500  0.0241 -0.3486 -0.0826
22263W        W39111  10.365  15.557  14.294  0.4220 -0.0247 -0.0744
22264W        W39112  13.723  16.570  15.875 -0.2240  0.4782  0.2092
22265W        W39113   9.845   3.880  11.569 -0.1553 -0.3952  0.1225
22266W        W39114   5.953  14.847  12.137 -0.2199  0.2872 -0.0110
22267W        W39115  13.546   6.379  12.095  0.1289  0.0366  0.3976
22268W        W39116   2.386   4.745  15.711  0.2122 -0.1892  0.3304
22269W        W39117   3.570  16.978   5.035  0.1156  0.2303  0.1954
22270W        W39118  18.029   0.918  14.249 -0.3074 -0.1108 -0.1260
22271W        W39119  11.455  13.311   5.014 -0.2810  0.0266 -0.3366
22272W        W39120  17.245  15.162   2.240 -0.0418 -0.1883 -0.1059
22273W        W39121  13.417   5.812   5.642  0.0461 -0.1544 -0.0086
22274W        W39122  15.634   1.839  13.158  0.2620 -0.0353 -0.0940
22275W        W39123   6.721  16.365   1.873  0.0307 -0.1896  0.2111
22276W        W39124   6.043   2.419   0.929  0.2266  0.2111 -0.2311
22277W        W39125   1.470  10.601   5.889  0.0649 -0.0205 -0.6225
22278W        W39126  12.584   8.699   3.909  0.2214  0.0394 -0.1859
22279W        W39127   9.649   9.093  12.885 -0.2293  0.2250  0.0068
22280W        W39128   6.473   4.802  14.892  0.0793  0.3012  0.2432
22281W        W39129  15.119   6.226   1.848 -0.0550 -0.0297 -0.0646
22282W        W39130   9.633  16.833   4.048  0.0027 -0.2441  0.0322
22283W        W39131   1.563   4.363   4.317  0.0095  0.1077 -0.2055
22284W        W39132   0.928   4.238   4.472  0.2456  0.1590 -0.0836
22285W        W39133   3.378  14.484  14.971  0.0517 -0.0374 -0.4651
22286W        W39134  15.498   2.317  15.264 -0.2687  0.1190 -0.1483
22287W        W39135   5.236  17.180   5.346  0.1707 -0.2680  0.3844
22288W        W39136   3.496  11.724  14.760  0.2749 -0.0916 -0.1417
22289W        W39137  11.081  12.069   2.965  0.2603  0.0214 -0.0052
22290W        W39138  13.105  17.996   1.116  0.0859  0.3671  0.0411
22291W        W39139  15.056   7.228  13.880 -0.2100  0.0696 -0.4369
22292W        W39140  10.681  12.352   3.412 -0.3488 -0.0325 -0.0377
22293W        W39141  14.856   1.690   1.791  0.3580 -0.1391  0.1271
22294W        W39142  15.279  17.042  15.309 -0.0876 -0.0598 -0.1745
22295W        W39143   7.103   7.660  12.489  0.0373  0.0818 -0.1724
22296W        W39144   6.002   2.394  13.194  0.1920  0.0598 -0.2696
22297W        W39145   0.908   5.176  11.710  0.1888  0.3141  0.3376
22298W        W39146   2.545  12.668   0.741 -0.2154  0.2454 -0.1237
22299W        W39147  14.757   8.215  15.866 -0.0731 -0.2085  0.0445
22300W        W39148   9.125   5.470  14.392  0.2507 -0.3439  0.0005
22301W        W39149   2.000   3.840   1.380  0.0155  0.1988  0.0981
22302W        W39150   2.193   3.618  13.893  0.2363 -0.1311  0.1361
22303W        W39151  12.248   5.329   4.567  0.3176  0.2006 -0.0100
22304W        W39152   0.350   6.793  15.602  0.2584 -0.1367 -0.0022
22305W        W39153   2.028  14.057  14.557  0.1418  0.0601 -0.1317
22306W        W39154  13.368   9.392  11.204  0.1445  0.0257  0.0174
22307W        W39155   4.590   8.651   3.887  0.0369 -0.0335 -0.2653
22308W        W39156  13.512  15.549  13.267  0.2445  0.0343 -0.0299
22309W        W39157  12.249   2.805  13.159 -0.0500  0.2236 -0.1693
22310W        W39158   3.314   4.645   2.873 -0.0188  0.0673  0.1991
22311W        W39159  11.043  10.571  15.952  0.0880 -0.1401 -0.0939
22312W        W39160   7.840  11.418   2.023  0.1354 -0.1894  0.3538
22313W        W39161  17.851  17.390  11.067  0.1321  0.1327 -0.3701
22314W        W39162   0.834   7.453   4.941 -0.1127  0.0680  0.0269
22315W        W39163  13.801  16.928   1.851 -0.4768 -0.1183  0.4509
22316W        W39164   4.896   5.477   5.425 -0.0980  0.2089 -0.1982
22317W        W39165  13.085   5.534  15.154  0.3396  0.1212  0.2570
22318W        W39166   9.080  13.471  12.552 -0.3217  0.3329  0.0066
22319W        W39167  12.251  12.821  12.259  0.1665  0.2578  0.2000
22320W        W39168   9.816  18.011   2.116 -0.2982 -0.1638 -0.2820
22321W        W39169  10.877   1.757  12.339  0.1024  0.0252 -0.2425
22322W        W39170  15.658   9.629   1.811  0.2482  0.5094 -0.0555
22323W        W39171   5.645   7.728   2.272  0.3323  0.1406  0.1795
22324W        W39172   4.123   3.225   1.664 -0.0519 -0.0480 -0.0276
22325W        W39173   1.698   5.633   1.168 -0.2298  0.1751  0.2098
22326W        W39174   7.089  10.628  12.206  0.1729  0.1167 -0.0666
22327W        W39175  18.034  15.455  13.684  0.1913 -0.2650  0.1831
22328W        W39176   9.844  17.679  14.766 -0.4445 -0.1081 -0.2635
22329W        W39177   0.477   4.034  12.178  0.0590  0.1451 -0.0542
22330W        W39178  15.213   0.538  13.832  0.0608 -0.0428  0.1238
22331W        W39179   5.557   2.197  11.466  0.0299  0.2489  0.3481
22332W        W39180   0.199  13.415   4.273 -0.1353  0.1440 -0.3572
22333W        W39181  11.869   3.494  13.899 -0.0002 -0.0422 -0.1270
22334W        W39182  15.386  16.256  11.720  0.0066  0.2097  0.1684
22335W        W39183   4.283   3.478   2.613 -0.1366 -0.0682 -0.1421
22336W        W39184  14.313   6.220   2.902 -0.0678  0.1893 -0.0218
22337W        W39185   3.365  16.536   4.049  0.0271  0.1519  0.0064
22338W        W39186   6.622   9.145   1.201 -0.0914 -0.1860 -0.0750
22339W        W39187   2.926  11.782  13.565  0.3450 -0.0999 -0.0315
22340W        W39188   6.909   6.651   4.087 -0.0129 -0.2285  0.3551
22341W        W39189   4.980   4.395   3.268 -0.0961 -0.0258 -0.0145
22342W        W39190   2.207   4.292  15.291  0.1816  0.0453 -0.2663
22343W        W39191   7.686  14.557   4.546  0.0516  0.2754 -0.0745
22344W        W39192  16.016  16.494   3.192 -0.2306 -0.0241 -0.0253
22345W        W39193   2.987   0.301  15.673 -0.1488  0.1626  0.2306
22346W        W39194  17.635   8.094  14.510 -0.2374  0.1984  0.0795
22347W        W39195   0.535  18.034  14.301  0.0484 -0.3031 -0.1755
22348W        W39196  16.326   9.877   3.273 -0.1627  0.0428  0.0321
22349W        W39197  15.616   1.668   1.785 -0.1135  0.1993 -0.0606
22350W        W39198   9.385  13.673  12.175 -0.0642  0.1834 -0.2094
22351W        W39199  11.776  12.765   1.656 -0.4460 -0.0231 -0.2451
22352W        W39200   3.887   1.670   5.474  0.2737  0.4159 -0.3028
22353W        W39201  17.999  16.698  12.562 -0.0506  0.2983 -0.1631
22354W        W39202   3.999  16.398  13.481 -0.0450 -0.0458 -0.0059
22355W        W39203   3.296   1.210   4.372 -0.0462 -0.2903  0.0331
22356W        W39204   8.337  10.248  13.693 -0.1553 -0.1008 -0.2222
22357W        W39205  17.353   3.943   5.594  0.2107 -0.1993  0.0271
22358W        W39206   3.665  15.304  15.328  0.3447 -0.1817  0.1410
22359W        W39207  11.488   7.138   5.203 -0.1354  0.0594 -0.1477
22360W        W39208  16.078   4.391   4.046  0.3523 -0.0270  0.2522
22361W        W39209   8.548   1.640  15.945  0.0434  0.1690 -0.2009
22362W        W39210   6.757  15.294   3.999  0.0324 -0.0624 -0.1013
22363W        W39211   4.179  14.434  16.250  0.1220 -0.0385  0.1064
22364W        W39212  12.501   0.436   0.011  0.3859 -0.2718 -0.1667
22365W        W39213   3.604   9.887   4.697 -0.2517  0.0664 -0.2062
22366W        W39214   6.585   1.899   3.282  0.2190  0.3977  0.5720
22367W        W39215  17.492   2.060   3.137 -0.0824  0.0090 -0.2155
22368W        W39216   6.876  10.303   5.558  0.0404  0.2404 -0.1103
22369W        W39217   1.735   5.789   1.926  0.0758  0.1804  0.0080
22370W        W39218   1.091   5.068  10.846 -0.2634 -0.1535  0.1505
22371W        W39219   6.384   8.195  13.590 -0.0354  0.0808 -0.1518
22372W        W39220  14.634   5.351   5.318 -0.0860  0.1534  0.4206
22373W        W39221   2.609   9.067   1.761  0.0293  0.2149 -0.2093
22374W        W39222  14.649  16.147  15.126  0.0043  0.2166 -0.2076
22375W        W39223  13.674   4.148  10.615 -0.2199 -0.0403 -0.3803
22376W        W39224   1.375   1.433  12.504  0.0205 -0.3181  0.2230
22377W        W39225   5.062  10.931  10.755  0.3173 -0.1780  0.2634
22378W        W39226   2.687   0.535   4.455 -0.0765 -0.0104  0.4756
22379W        W39227   6.634   7.678  14.734  0.3120  0.4174 -0.1209
22380W        W39228   7.355   2.990   2.600 -0.2121  0.0905  0.0021
22381W        W39229   7.941   3.688  13.765 -0.1615  0.1751  0.2408
22382W        W39230   3.115  14.636  15.401 -0.0839 -0.0022  0.1674
22383W        W39231   8.097  10.761  13.860 -0.0274  0.0749 -0.0503
22384W        W39232   3.275  10.880   0.901  0.1496  0.0853 -0.2521
22385W        W39233  10.108  14.770   2.916  0.1293 -0.5613 -0.3179
22386W        W39234   7.103   3.618   3.149 -0.1735 -0.1035  0.0564
22387W        W39235  12.709   8.399   5.183  0.0874 -0.3486  0.1194
22388W        W39236  14.305   2.128  14.755 -0.1453  0.2684 -0.3365
22389W        W39237   6.248   3.628  15.401 -0.2518 -0.3318  0.2392
22390W        W39238  10.969  11.987  11.394 -0.0665 -0.0461  0.2466
22391W        W39239   7.333  11.390   3.537  0.0689 -0.0918 -0.1604
22392W        W39240   3.594  13.275   2.087 -0.0053  0.2433  0.1308
22393W        W39241   3.401   2.040   0.983  0.4499 -0.2036 -0.0637
22394W        W39242  11.880   9.742   4.265 -0.2345 -0.2592 -0.2413
22395W        W39243  16.823   4.926  13.606  0.0577  0.2900  0.0693
22396W        W39244   0.366  17.275   1.057  0.1641  0.0013 -0.0002
22397W        W39245  15.555   2.435  12.079 -0.4664  0.1806 -0.0114
22398W        W39246   2.595   7.402   1.858  0.3188  0.2178 -0.3581
22399W        W39247   8.635  14.303  14.434 -0.4319  0.0934  0.0495
22400W        W39248   6.038  10.759   4.392  0.2811 -0.2655  0.3858
22401W        W39249   0.895   7.167  12.802 -0.3456  0.1672  0.3098
22402W        W39250  11.427  10.923  16.057  0.2232 -0.1618 -0.1725
22403W        W39251  10.475   7.705  11.688 -0.1550  0.1911 -0.0887
22404W        W39252   9.493   4.732   4.997 -0.0932  0.5014 -0.2087
22405W        W39253  11.801   4.208  14.299  0.1847 -0.0219  0.2130
22406W        W39254  15.206   3.681   5.369  0.2205 -0.6180  0.2028
22407W        W39255  16.170   0.195  11.000  0.2264  0.0815 -0.0220
22408W        W39256   8.217   3.976   4.983 -0.2510 -0.1552  0.0526
22409W        W39257   1.574  15.959   2.690 -0.3893 -0.2786 -0.0778
22410W        W39258   4.629   4.230   3.551 -0.2734  0.0939 -0.0678
22411W        W39259   4.371   6.608   1.267 -0.1426  0.2574  0.1802
22412W        W39260   3.461   3.862   0.839  0.0090  0.0628  0.0712
22413W        W39261  16.292   3.405  14.639  0.0395 -0.1673 -0.3700
22414W        W39262  11.871  14.341   2.983 -0.2200 -0.1187  0.0931
22415W        W39263   7.958  13.643   4.299 -0.4410  0.2544  0.0533
22416W        W39264   2.262   3.843   4.652 -0.0927  0.0525 -0.0663
22417W        W39265  15.326  15.599   1.356  0.1900 -0.0240 -0.2319
22418W        W39266   7.319   7.282   1.725 -0.0644 -0.2261 -0.0094
22419W        W39267  17.718  12.602  12.205  0.1323  0.1977  0.0587
22420W        W39268   8.640   4.571   0.045 -0.0231  0.3173  0.0638
22421W        W39269   8.354   4.674  13.361  0.1198  0.3235 -0.2907
22422W        W39270  17.492   4.427  12.489  0.0770 -0.2683 -0.3612
22423W        W39271  15.644  16.386   1.660 -0.0760  0.0708  0.0467
22424W        W39272  11.361  16.161   6.127  0.0906  0.1057  0.2626
22425W        W39273   6.076   1.173  15.756 -0.0238  0.1826 -0.0667
22426W        W39274   0.015   5.309  13.646 -0.0376  0.0804 -0.0837
22427W        W39275  13.115  10.117   2.913 -0.1624 -0.3702  0.2486
22428W        W39276  14.084   0.087  15.595 -0.0035  0.1474  0.0998
22429W        W39277  11.788  16.210  14.435  0.0590 -0.2560  0.0583
22430W        W39278   2.720   4.412   5.397  0.1617  0.3736 -0.2087
22431W        W39279   0.347  17.513   3.374  0.2939  0.0911 -0.0044
22432W        W39280  16.568   8.962   1.877 -0.1267  0.1239 -0.2262
22433W        W39281  12.385   1.263  15.552  0.4201  0.2322  0.0180
22434W        W39282  16.943  10.596   1.154  0.0014 -0.2380  0.1322
22435W        W39283  13.509   5.743   0.030 -0.0824 -0.0915 -0.0776
22436W        W39284  14.639   1.642   1.010  0.3011  0.1983 -0.0312
22437W        W39285   0.570   1.737   4.440  0.0543  0.1182 -0.1076
22438W        W39286   6.958   1.084   5.829 -0.1008  0.2541 -0.2412
22439W        W39287   2.854  15.892   4.857 -0.1712  0.1145 -0.0866
22440W        W39288   4.948   9.447   3.180 -0.5052  0.2687 -0.0836
22441W        W39289   5.088  14.468   6.390 -0.3175 -0.0162 -0.0577
22442W        W39290   9.374   5.589  14.818  0.5206  0.0750  0.3621
22443W        W39291   6.569  13.071  12.095 -0.0768 -0.0873 -0.1047
22444W        W39292   5.575  17.400  13.381  0.4372  0.0893 -0.4652
22445W        W39293   9.149  11.995   4.372  0.1514 -0.0085 -0.3561
22446W        W39294  16.576   7.087  15.016 -0.1261 -0.1042  0.0505
22447W        W39295   7.596  10.222   3.024  0.0757  0.3452 -0.0851
22448W        W39296   3.090   2.066  13.921  0.3399 -0.1457  0.0672
22449W        W39297   3.562  13.909  12.489  0.1249 -0.2628 -0.1707
22450W        W39298   4.909   5.631   0.136  0.4250 -0.0168 -0.2991
22451W        W39299  12.619   7.427  12.196 -0.0764 -0.2619  0.2138
22452W        W39300   1.648  13.342   5.078  0.0144 -0.1457  0.3364
22453W        W39301   5.969  10.720  16.177  0.2067 -0.0510  0.0211
22454W        W39302   5.299   2.962   0.319 -0.0228 -0.0967  0.0787
22455W        W39303   8.812  17.940  15.213 -0.2543  0.0224 -0.1797
22456W        W39304  12.214   7.010  13.251  0.0399 -0.2033 -0.0021
22457W        W39305   9.218   9.957  12.659  0.0736 -0.1351  0.1285
22458W        W39306   0.487   4.625  14.529  0.0344  0.2040 -0.1188
22459W        W39307   4.818  12.194   4.329 -0.0017  0.2264  0.3235
22460W        W39308   8.978   7.583  15.082  0.3934 -0.0863 -0.2472
22461W        W39309  16.446  16.204  13.360  0.1152 -0.1278  0.2148
22462W        W39310  14.349   3.146  15.875  0.1661  0.4869 -0.0791
22463W        W39311   6.787   2.480  15.836 -0.0650  0.1476 -0.1861
22464W        W39312   2.272   6.371  14.892 -0.3091  0.1124 -0.0770
22465W        W39313   1.465   0.387  15.850  0.0609 -0.0436  0.0304
22466W        W39314   2.722  16.774  12.476 -0.5623  0.2296  0.2326
22467W        W39315   7.541  10.185   0.199 -0.2304  0.0935 -0.1321
22468W        W39316  14.659   6.784  11.681 -0.1321  0.0426  0.1152
22469W        W39317  12.005  13.521  15.641  0.0792 -0.1411 -0.2071
22470W        W39318   3.165  11.438  11.765  0.0397  0.0682 -0.0360
22471W        W39319  11.934  12.999  15.847 -0.1514  0.0798  0.1016
22472W        W39320   7.135  15.885   1.893  0.0531  0.0901  0.1270
22473W        W39321  14.891   8.921   0.529 -0.0975 -0.2631 -0.0668
22474W        W39322   1.050   9.157   1.392  0.0067  0.2771  0.1359
22475W        W39323   2.747   0.218  10.906 -0.0771  0.1236  0.0853
22476W        W39324  12.075   8.644  12.003  0.0021 -0.4356 -0.1777
22477W        W39325  16.031  17.785   5.860  0.5696 -0.3862  0.0667
22478W        W39326   8.716   3.063   4.701  0.0738 -0.1310  0.2117
22479W        W39327  10.267   5.937  15.695  0.1071 -0.0725  0.2117
22480W        W39328  12.047  12.578  12.924  0.0158  0.0173 -0.1535
22481W        W39329  13.712   5.554   4.862  0.1387  0.0348  0.2066
22482W        W39330   7.864  14.995   3.908  0.0063 -0.3394  0.2160
22483W        W39331   5.286  12.738  12.194 -0.0602  0.1483  0.5152
22484W        W39332   5.764  17.628  15.879 -0.0168 -0.2459 -0.0820
22485W        W39333   2.409  17.714   0.561  0.0013  0.2022  0.0768
22486W        W39334  12.988   9.464  13.853  0.1510 -0.0310 -0.1118
22487W        W39335  11.888   5.863   3.962 -0.0294 -0.0059  0.2423
22488W        W39336   8.064  13.769   3.282  0.0007  0.1869 -0.1343
22489W        W39337  14.457  13.415  16.188 -0.0280 -0.2593 -0.0663
22490W        W39338   4.961   1.560  15.130 -0.0908  0.2885  0.1631
22491W        W39339  11.640   4.539   1.738 -0.2369 -0.2046  0.2891
22492W        W39340   8.479  11.757  13.966  0.1175 -0.1155  0.2964
22493W        W39341   5.824  13.792  15.882  0.1244  0.1328  0.0172
22494W        W39342  17.601   8.976   2.073 -0.1723 -0.2993 -0.1487
22495W        W39343  15.731   5.154  15.361  0.1121  0.0896 -0.0842
22496W        W39344  11.082   3.840  10.393 -0.0547 -0.2844 -0.2380
22497W        W39345  10.881   8.644  14.654 -0.0735  0.1342  0.1602
22498W        W39346   8.964   4.396   5.475  0.0084 -0.4679 -0.1028
22499W        W39347  11.903  11.574   2.024  0.0007  0.0505  0.1214
22500W        W39348  14.416   9.760  13.718  0.1684  0.1413 -0.0298
22501W        W39349  11.839  14.894   1.633 -0.1289  0.2054  0.2509
22502W        W39350   0.685   8.296  12.777 -0.0523  0.0214 -0.1260
22503W        W39351   8.411  16.975  12.856 -0.1176  0.0752  0.3506
22504W        W39352   0.165  14.902  15.540  0.2181  0.3793  0.1111
22505W        W39353   8.138  13.211   2.457  0.0716 -0.1066 -0.2762
22506W        W39354   4.966   4.824   0.877  0.1578 -0.1111  0.3024
22507W        W39355   9.192  10.802   4.556 -0.4324 -0.2294 -0.2078
22508W        W39356  16.984  14.583   3.320 -0.0267 -0.2374 -0.0386
22509W        W39357  17.431   5.680   4.683 -0.0491  0.2451 -0.1683
22510W        W39358   0.975   4.949   0.961  0.2007  0.1859 -0.0538
22511W        W39359  14.421   0.215   4.819  0.0145  0.5684  0.0405
22512W        W39360   7.678   4.972   4.236 -0.0947 -0.1937  0.1714
22513W        W39361  12.097   6.616   2.379  0.1086  0.1184  0.0956
22514W        W39362  13.546   8.052   0.056 -0.2142 -0.0119  0.1619
22515W        W39363   5.442   6.291   0.195  0.1900 -0.2209  0.0089
22516W        W39364   6.699   9.630   2.903 -0.0144  0.1150  0.0897
22517W        W39365   2.504   3.179  14.626 -0.1153 -0.0226  0.0756
22518W        W39366  14.913   9.438  12.925 -0.2350 -0.2396 -0.4024
22519W        W39367   5.279  11.698  12.666 -0.0985  0.3282  0.0966
22520W        W39368   5.725  15.553  15.513  0.2351  0.2587  0.1903
22521W        W39369   1.762   7.856  14.134 -0.0297  0.4165 -0.1286
22522W        W39370  13.217  12.243   0.503  0.6229  0.0497 -0.2260
22523W        W39371  13.043  14.953   2.803  0.0663  0.1493 -0.0140
22524W        W39372  13.484   7.403  16.211 -0.2895 -0.3956 -0.0970
22525W        W39373   3.193  13.222  14.588 -0.2157  0.0130 -0.0070
22526W        W39374   9.655  15.986  15.072 -0.1058  0.0184  0.0333
22527W        W39375  16.958   4.244   0.590  0.0128 -0.0668  0.0636
22528W        W39376  16.639   2.197   1.401 -0.1090  0.1390  0.2886
22529W        W39377   1.471   9.281  12.116 -0.2182 -0.1309 -0.1440
22530W        W39378  17.490  11.131   0.226 -0.0953  0.2595  0.0817
22531W        W39379  11.369   0.542  12.087 -0.0044 -0.0966 -0.2591
22532W        W39380   4.699   6.820  12.651  0.0701 -0.2960  0.0725
22533W        W39381   0.664  11.897  12.041  0.2056  0.1682  0.1002
22534W        W39382   0.914  12.171   4.210 -0.2906  0.0799 -0.1863
22535W        W39383   1.573   5.522   2.837 -0.0822  0.1210 -0.0271
22536W        W39384  17.827  17.357  14.735 -0.1006 -0.2055 -0.1447
22537W        W39385  13.752  17.271   4.202 -0.1412 -0.2298 -0.2497
22538W        W39386   1.268  14.886  13.189  0.2530 -0.0408  0.3833
22539W        W39387   2.223  14.922  13.118  0.1818  0.0885 -0.0763
22540W        W39388   1.347   3.204   1.477 -0.0540 -0.1986 -0.1604
22541W        W39389   7.933   8.171   3.514  0.2927  0.0899 -0.0607
22542W        W39390   0.958   2.415   2.419 -0.2627 -0.0590 -0.0214
22543W        W39391  16.516  17.157   2.572  0.1843 -0.0935 -0.4223
22544W        W39392   5.123  11.241  12.460 -0.1782  0.2332  0.0542
22545W        W39393  10.615  14.089   2.393 -0.2448  0.2447 -0.0394
22546W        W39394   2.011   6.490   3.884 -0.2649 -0.1451  0.1370
22547W        W39395  11.586  15.788   2.918 -0.3965 -0.1134 -0.1049
22548W        W39396   5.890   2.347  10.526  0.2381 -0.0245  0.2191
22549W        W39397  14.747   1.423   2.204 -0.2246  0.0274 -0.2284
22550W        W39398   1.691  16.223  15.653  0.0617 -0.1359 -0.3490
22551W        W39399  12.037  14.033   1.576  0.1031  0.0095 -0.0053
22552W        W39400  17.058   6.579   3.207  0.1286  0.0201  0.4611
22553W        W39401  11.400  14.707  13.904  0.1171  0.1290  0.0540
22554W        W39402  10.860  17.804   0.221  0.2331 -0.2184 -0.0711
22555W        W39403   3.513   8.303   2.865 -0.2619  0.0771  0.1636
22556W        W39404   2.948  12.893   5.481  0.2460 -0.3460 -0.1481
22557W        W39405   5.758  11.442   2.163 -0.1504 -0.0475  0.1506
22558W        W39406  17.065  13.053  13.501 -0.0156 -0.2006  0.0496
22559W        W39407  14.670   0.101   5.931 -0.1794 -0.1339 -0.2606
22560W        W39408  16.275  13.493  12.932  0.1734  0.1207 -0.0851
22561W        W39409  16.007   7.158   4.791  0.4922  0.1716 -0.0275
22562W        W39410   9.976  16.986  12.450 -0.1377  0.0082 -0.0799
22563W        W39411  11.261  10.553  12.351 -0.2700  0.1670  0.3932
22564W        W39412  17.401  16.241   6.141 -0.0449  0.0759 -0.1041
22565W        W39413   7.119   7.982  15.990 -0.0860  0.0682 -0.1289
22566W        W39414   0.990  11.138  11.535 -0.2152 -0.0734 -0.1642
22567W        W39415  12.263   6.250   3.170 -0.1198  0.1006  0.3469
22568W        W39416   6.384  12.338   5.697 -0.3851 -0.2719 -0.0654
22569W        W39417  10.316  17.820  14.861 -0.0017 -0.0434  0.1419
22570W        W39418  16.440   4.714   4.207  0.0489  0.1074 -0.2359
22571W        W39419   7.491   3.667  14.272 -0.1392  0.2395  0.1432
22572W        W39420   4.971   5.872  12.289 -0.1447 -0.1476 -0.1553
22573W        W39421  16.677  12.235   2.039  0.1468 -0.4919 -0.2463
22574W        W39422   5.697  10.634   4.764 -0.1570  0.1696 -0.0064
22575W        W39423  13.511  15.707   1.389 -0.1774 -0.1288  0.1337
22576W        W39424   0.862   0.782  14.141 -0.1834 -0.1640 -0.1954
22577W        W39425   6.897  11.425  11.344 -0.0299 -0.1484 -0.1522
22578W        W39426  12.817   0.817   3.743  0.2509  0.1270 -0.3734
22579W        W39427   0.545  13.926   0.695 -0.2942 -0.0124 -0.4812
22580W        W39428   1.260  17.962  13.546 -0.0277  0.2877  0.4988
22581W        W39429  16.492   4.173  15.687 -0.0133 -0.1554 -0.0990
22582W        W39430   4.317   5.984   0.741 -0.2654 -0.0292  0.0557
22583W        W39431   0.253   6.601  11.447  0.0658 -0.0087 -0.0696
22584W        W39432   6.255   1.105  14.056 -0.1478 -0.1654  0.1619
22585W        W39433   1.950   3.857  15.029 -0.0681 -0.1365 -0.0607
22586W        W39434   5.565  10.136  15.102  0.1556 -0.0868 -0.3337
22587W        W39435   5.230   0.126  13.818 -0.0476 -0.1379 -0.0623
22588W        W39436  13.753   0.636   1.225 -0.1336 -0.0743  0.1172
22589W        W39437   9.362   0.354   4.798  0.0519 -0.0335 -0.1148
22590W        W39438   8.525   3.454   2.784 -0.3833 -0.0700 -0.1861
22591W        W39439  10.715  12.601   1.531 -0.1731  0.1305  0.0192
22592W        W39440   8.288   5.498   2.554 -0.0302 -0.0863 -0.0031
22593W        W39441  16.542   1.179  11.828  0.2281 -0.0352  0.3087
22594W        W39442  10.185   9.993   1.452  0.2894  0.0247 -0.2633
22595W        W39443  11.710   2.041   2.992 -0.2017 -0.0303  0.0509
22596W        W39444   7.137   6.079  12.281  0.2018  0.2852  0.0320
22597W        W39445   5.454  12.713   3.061  0.0470  0.1289  0.1712
22598W        W39446   6.711   2.545   2.587  0.2358  0.1332 -0.2414
22599W        W39447  16.302   9.441   3.497 -0.1245  0.1086 -0.0526
22600W        W39448   3.307  17.089  14.311  0.0135  0.0082  0.1999
22601W        W39449  12.863  12.618   3.304 -0.0322  0.0430 -0.0527
22602W        W39450   3.402  12.073   5.220 -0.1098 -0.1729  0.0318
22603W        W39451   3.100  17.695  12.451 -0.1365  0.0401 -0.1800
22604W        W39452  11.581  15.621  15.590 -0.2695 -0.0634 -0.0705
22605W        W39453  10.528  11.552  13.058 -0.1309  0.0445  0.0805
22606W        W39454   8.794   9.109  14.973  0.2137  0.3620 -0.2848
22607W        W39455  17.721   9.358  15.917 -0.2780 -0.1977  0.0768
22608W        W39456  15.781   1.169  15.233  0.0550  0.1643  0.0137
22609W        W39457  15.977  11.541   2.989  0.0847 -0.2630 -0.0538
22610W        W39458  14.724  12.542  14.287 -0.2999 -0.2312  0.1628
22611W        W39459  11.864   7.036  11.882  0.1104  0.0423  0.1231
22612W        W39460  11.573   6.623  13.469 -0.0830 -0.1722  0.2568
22613W        W39461  11.554   6.569   2.510 -0.0800 -0.1872 -0.3336
22614W        W39462   6.973  11.567   5.529  0.0226 -0.2681  0.3194
22615W        W39463  12.420   6.856   0.693 -0.1555 -0.0894  0.3055
22616W        W39464   2.005   1.987   3.119  0.1181  0.4176  0.0375
22617W        W39465  15.610  13.736   3.627 -0.1732  0.3195 -0.0039
22618W        W39466   4.412   9.205   4.676  0.2316  0.0286 -0.0147
22619W        W39467  15.861   9.681  13.439 -0.2761 -0.0609  0.0402
22620W        W39468  12.393  14.636  13.802  0.0402  0.1713 -0.4156
22621W        W39469   2.198   1.635   4.872 -0.3033  0.1317 -0.0794
22622W        W39470   8.570  17.423  13.269  0.0620  0.1426  0.0995
22623W        W39471  12.090   4.170   2.898  0.2281  0.2156 -0.2817
22624W        W39472   7.481  14.008   1.503 -0.2710  0.0495 -0.0824
22625W        W39473  10.147   6.228   3.521 -0.2546  0.0733 -0.1458
22626W        W39474   7.972   4.626  15.965  0.1049  0.0566  0.0537
22627W        W39475   4.968  15.330   5.344  0.2241 -0.1567 -0.0508
22628W        W39476  11.836  17.017  13.879 -0.0265  0.1635 -0.1482
22629W        W39477  14.603  17.911   0.208 -0.4150  0.1158 -0.1306
22630W        W39478  12.577   7.101  14.155 -0.0586 -0.0838 -0.3541
22631W        W39479   8.007   7.687  12.090  0.1639 -0.0292  0.0329
22632W        W39480   3.166  16.491  10.616  0.0686 -0.2038  0.1284
22633W        W39481   4.730   0.245  15.125 -0.0217  0.1104  0.1584
22634W        W39482   2.941  10.420   3.878 -0.2136  0.2187  0.5679
22635W        W39483   4.725   3.950  11.960 -0.3199  0.0177  0.1132
22636W        W39484   1.690   8.194   4.332 -0.2469 -0.1310  0.0754
22637W        W39485   0.057   3.841   2.371 -0.2231  0.1920  0.2723
22638W        W39486   8.153   8.415   1.707 -0.2046  0.0308  0.0101
22639W        W39487   3.423   7.705   2.512  0.0401  0.0638 -0.1308
22640W        W39488   7.396  15.920   3.058 -0.1066 -0.0827 -0.0699
22641W        W39489  14.396  17.450   1.391  0.0722 -0.3816  0.1354
22642W        W39490   6.409   3.603  15.867  0.1483  0.0468 -0.0213
22643W        W39491   4.408   0.645   0.023 -0.1297  0.0000 -0.1870
22644W        W39492   2.846   5.255   3.073 -0.0259 -0.2416 -0.1644
22645W        W39493   1.106   1.531   1.784  0.3244  0.0042 -0.0993
22646W        W39494   8.302   5.921   0.522  0.1251 -0.0273  0.0880
22647W        W39495  11.946  10.325  12.858 -0.1757  0.1162  0.2937
22648W        W39496  16.656  14.262  12.384 -0.1464 -0.0956  0.0286
22649W        W39497   2.096   4.837   1.924  0.0292  0.1275 -0.0257
22650W        W39498   9.767  12.347  14.394 -0.0527 -0.1672  0.3464
22651W        W39499   4.548   9.453  13.351 -0.1499  0.0795 -0.0209
22652W        W39500  15.126  12.463  15.133  0.1326 -0.1104 -0.2372
22653W        W39501  13.493   9.202  14.999 -0.1845  0.1778  0.0767
22654W        W39502  14.742  13.049   5.102  0.2411 -0.3334 -0.0969
22655W        W39503  13.398   0.416  16.120  0.0483 -0.0095 -0.3789
22656W        W39504   8.297   1.969  15.033 -0.3079  0.0076 -0.0784
22657W        W39505   8.867   4.686  15.738 -0.0098 -0.0329  0.1441
22658W        W39506   6.709   5.473   4.182  0.0234  0.1464 -0.2929
22659W        W39507  11.116  14.432   3.051  0.0965  0.1117  0.0273
22660W        W39508  11.616   6.800  10.201  0.0923 -0.0927  0.2411
22661W        W39509   9.761   8.059  15.033 -0.0345 -0.0763 -0.2264
22662W        W39510   7.362   2.527  16.003 -0.1091  0.1460  0.2758
22663W        W39511   1.872  17.297   3.795  0.1397  0.1176 -0.1454
22664W        W39512   1.345   5.110   2.714 -0.4131 -0.2574 -0.0880
22665W        W39513   2.724   2.953  12.473  0.2211  0.1468 -0.4825
22666W        W39514  17.145   0.085  13.622  0.0898  0.0119  0.1699
22667W        W39515  13.939  12.308  14.211  0.0972  0.0923  0.0257
22668W        W39516   5.727   0.129  12.208  0.5146  0.0970  0.3616
22669W        W39517   3.133  16.611   2.535  0.1226  0.0357  0.0875
22670W        W39518   6.049   1.793   5.195 -0.2543 -0.0041  0.1400
22671W        W39519   7.858  15.577   2.530  0.0833  0.0241 -0.3091
22672W        W39520  11.077  10.915  12.610  0.3050 -0.0500  0.1352
22673W        W39521   7.815   4.897   4.759 -0.2009  0.3810  0.0853
22674W        W39522   6.655  10.850   0.733 -0.2315  0.0378  0.3073
22675W        W39523   0.371   0.125  15.713  0.1812  0.0490 -0.0255
22676W        W39524  11.913  17.906  11.262  0.1119  0.0821  0.0975
22677W        W39525  17.138   7.285  14.541  0.0078 -0.1626 -0.0131
22678W        W39526   3.227   4.247  14.176  0.1174  0.1402 -0.1804
22679W        W39527   9.678  16.257  14.630  0.0832 -0.0871  0.0479
22680W        W39528  15.797  15.921  14.332  0.1199 -0.2093  0.0746
22681W        W39529   7.256  11.956   5.369 -0.0205  0.2081 -0.2951
22682W        W39530  17.728   5.329  12.711  0.1041 -0.0472  0.1466
22683W        W39531   3.014  14.143  12.840 -0.0358 -0.0493  0.2455
22684W        W39532   8.122   8.875  12.724 -0.2176  0.2383  0.1167
22685W        W39533   6.965  12.604   1.114  0.0127  0.3002 -0.1572
22686W        W39534  13.878  17.688  12.251  0.0319 -0.0610  0.1487
22687W        W39535   9.039   4.935   0.921 -0.2946  0.0553 -0.0749
22688W        W39536   9.281  13.599  14.809  0.0547  0.0088  0.0252
22689W        W39537   3.707   1.493   1.498 -0.1481 -0.2334 -0.0059
22690W        W39538  13.403   9.722  15.488  0.2065 -0.0971  0.0099
22691W        W39539   8.557   5.527   3.834 -0.1827  0.0800  0.1795
22692W        W39540  14.424  15.311  13.880 -0.1074  0.1018  0.0552
22693W        W39541   0.708  11.122  14.890  0.1800  0.1337 -0.1396
22694W        W39542   7.799  15.496   1.211 -0.0489 -0.2791  0.1779
22695W        W39543   0.159   2.853  14.204 -0.3125  0.0333  0.2583
22696W        W39544  11.266   8.395  13.916 -0.3618  0.1399 -0.0125
22697W        W39545   0.485   0.728  13.425  0.0671 -0.0492 -0.1994
22698W        W39546   4.236   8.844  13.110  0.0511 -0.0109 -0.0653
22699W        W39547  10.152  16.333  14.779  0.2018  0.0512 -0.1114
22700W        W39548   9.896  11.106  14.690  0.0541 -0.1605 -0.0614
22701W        W39549  17.753  12.842   0.297  0.0603 -0.0010  0.3071
22702W        W39550  17.229  15.710  13.662  0.4732  0.0071 -0.0824
22703W        W39551   9.466  11.189   4.723 -0.1896  0.2884  0.0010
22704W        W39552  10.964   6.555  10.916 -0.0704 -0.0405  0.0712
22705W        W39553   9.422   5.451   3.981 -0.0145  0.4720  0.2916
22706W        W39554   3.847   1.011  15.602 -0.0483 -0.1085  0.0777
22707W        W39555  17.412   7.737  14.789 -0.0380  0.0987  0.1451
22708W        W39556  13.117   7.872   1.065  0.4245 -0.0582  0.2475
22709W        W39557  14.216   1.689   3.910  0.1057 -0.0174 -0.0267
22710W        W39558  13.659   7.696   3.766  0.0315 -0.2075  0.1576
22711W        W39559  14.280   0.383  13.750  0.0195  0.0560  0.0132
22712W        W39560  11.470  15.443  12.092 -0.1779  0.1473 -0.1696
22713W        W39561   0.782   2.263  11.764 -0.2485 -0.0106  0.2779
22714W        W39562  16.472   6.498  15.687 -0.2860  0.2202 -0.0488
22715W        W39563   9.337   6.443  11.760  0.1868 -0.0415  0.0278
22716W        W39564   8.991  17.747  11.615 -0.2775 -0.3186 -0.4685
22717W        W39565  17.213  15.405   1.653 -0.0626  0.0424 -0.0113
22718W        W39566   1.981   8.636   1.097 -0.1101  0.0875  0.0674
22719W        W39567  16.438   0.701   4.354  0.0567  0.1090 -0.0406
22720W        W39568   3.446  17.605  14.713  0.3387  0.2552 -0.0665
22721W        W39569  17.732  13.136  14.572 -0.1358 -0.2667  0.1072
22722W        W39570   0.130  15.874  13.904 -0.1839 -0.0515 -0.0403
22723W        W39571   8.957   2.042   0.629  0.1681 -0.3635  0.0906
22724W        W39572  10.483   1.360   4.645  0.1527 -0.2508  0.1516
22725W        W39573  14.623   3.179   2.342  0.0276 -0.1019  0.2640
22726W        W39574  17.974  17.000  10.788 -0.3135 -0.1828  0.1496
22727W        W39575   5.373   8.593   3.922 -0.1491  0.3722 -0.1461
22728W        W39576  17.164   3.101   5.144  0.2102 -0.2092  0.0279
22729W        W39577  14.353   4.392   0.155  0.0267  0.4660  0.0227
22730W        W39578  13.131   8.901   0.654 -0.0571  0.1619 -0.2609
22731W        W39579   3.923   7.473   3.450 -0.0962  0.2402 -0.0195
22732W        W39580   0.537   9.541   4.349 -0.0351  0.1173 -0.3396
22733W        W39581  11.861   6.285   3.710 -0.3612 -0.2157  0.2709
22734W        W39582   8.663  16.099   2.399  0.1370  0.0663  0.0940
22735W        W39583  14.412   7.550  15.188  0.1107 -0.0417 -0.0440
22736W        W39584   5.765   2.901  15.322 -0.1519 -0.0315  0.2205
22737W        W39585   4.622   2.914  11.958 -0.1282  0.0919  0.2764
22738W        W39586   0.089   0.927  14.759  0.1494 -0.3928  0.0736
22739W        W39587  13.358   1.653  15.851 -0.1973 -0.1311 -0.1274
22740W        W39588   5.898   7.546  14.095 -0.0646  0.1640  0.2441
22741W        W39589   0.245  16.817  11.120 -0.0501  0.1691  0.3255
22742W        W39590   6.789   9.105   4.327  0.0585 -0.4665  0.2932
22743W        W39591   3.707   9.742  11.600 -0.1009  0.0593  0.1502
22744W        W39592   9.180   2.172   4.424 -0.0791  0.0588 -0.2233
22745W        W39593   8.609   1.462   5.875 -0.2236 -0.2912 -0.1913
22746W        W39594   0.662  11.805  10.593 -0.1186 -0.2969 -0.0725
22747W        W39595  12.121  12.205  15.004  0.6050 -0.0109  0.1121
22748W        W39596  16.938   7.548  11.640 -0.0155  0.0090 -0.0133
22749W        W39597  14.860   7.864   3.269 -0.0521  0.1895  0.1392
22750W        W39598   0.372  12.905   5.564 -0.0813 -0.4359 -0.0202
22751W        W39599   3.290   2.314  12.399  0.0284 -0.1019 -0.1976
22752W        W39600   1.240   0.737  10.379  0.1334  0.2797  0.4423
22753W        W39601   4.252  12.473   0.358 -0.1964 -0.0010  0.0616
22754W        W39602   2.254   1.939  14.249 -0.3212  0.0875  0.3123
22755W        W39603  16.700  16.017  12.914  0.0446  0.0337  0.0054
22756W        W39604   0.560  15.875  16.169 -0.1352 -0.5041 -0.2587
22757W        W39605   5.645   2.306  15.902  0.1312  0.2561  0.2666
22758W        W39606  16.195   0.202  11.902 -0.0403  0.0550 -0.0278
22759W        W39607   5.768   4.989   5.148 -0.0036 -0.0377  0.3222
22760W        W39608  12.618  12.233   3.455 -0.0503 -0.0849 -0.0986
22761W        W39609   1.446   7.937  12.805 -0.1825 -0.0121 -0.0166
22762W        W39610   5.479   5.758  12.373 -0.0908  0.0180  0.1719
22763W        W39611  16.644  15.691   0.306  0.0795 -0.3665 -0.1866
22764W        W39612  13.318   9.403   2.417  0.1969 -0.0659 -0.1547
22765W        W39613   4.888   7.987   0.866  0.2257  0.1610 -0.0257
22766W        W39614  14.346   6.178  16.039 -0.3819 -0.1153  0.1177
22767W        W39615   4.376   8.243   4.093 -0.0047 -0.1595 -0.1204
22768W        W39616  13.235   8.376   9.942  0.0523 -0.1780 -0.1489
22769W        W39617   3.665   9.616   1.464 -0.2008 -0.0861  0.2825
22770W        W39618  17.677  10.471  14.013 -0.0747 -0.0349  0.2281
22771W        W39619   9.464   3.138   2.479 -0.0481 -0.0987  0.0558
22772W        W39620   4.667  13.656  11.412 -0.1957  0.1810 -0.0334
22773W        W39621   5.740  10.157  13.056 -0.1113  0.1353 -0.2305
22774W        W39622  12.168  13.320   4.131  0.4296 -0.0970  0.1006
22775W        W39623   1.202  13.085  13.754 -0.1359  0.0193  0.3865
22776W        W39624   2.535   3.578   3.217 -0.4211  0.1163  0.0159
22777W        W39625   6.395  14.055  14.361 -0.0487  0.2029 -0.0430
22778W        W39626   2.732   1.023   4.431  0.0804 -0.2172 -0.0392
22779W        W39627  13.259  10.033   1.151 -0.2549  0.2127 -0.0213
22780W        W39628  17.286   7.732   4.707 -0.0665 -0.0102 -0.0443
22781W        W39629   4.755  15.179  16.078 -0.1493  0.2285  0.0583
22782W        W39630   5.304  12.007   3.896 -0.0578 -0.1088 -0.0440
22783W        W39631   1.123  15.878  16.087  0.1548 -0.1429  0.0312
22784W        W39632  13.006  10.502  14.937 -0.1427  0.2924  0.0126
22785W        W39633   7.703  11.268  11.673 -0.2103  0.1743  0.1269
22786W        W39634   7.043   4.018  11.347  0.0673  0.1916 -0.3760
22787W        W39635  11.066  17.942   2.832  0.0884 -0.2604 -0.1353
22788W        W39636   1.295  14.167  10.654 -0.1097 -0.0589  0.1936
22789W        W39637  14.741   4.941  15.751  0.1321  0.0565 -0.0904
22790W        W39638  12.302   6.176  15.972 -0.0649  0.2351 -0.0695
22791W        W39639  15.369   4.913  14.189  0.0430 -0.3579 -0.1792
22792W        W39640   6.986   1.318  16.103  0.3184 -0.0450  0.1161
22793W        W39641   1.153  12.227   0.786  0.2944 -0.1737 -0.0140
22794W        W39642  13.810  10.359  11.417 -0.2028  0.1930 -0.2865
22795W        W39643   1.518  12.776  15.192 -0.2775  0.0117  0.2134
22796W        W39644   2.966   5.240  13.959 -0.0443  0.0332 -0.0326
22797W        W39645  15.164   4.467   1.403  0.0253 -0.2509 -0.2952
22798W        W39646   7.039  17.322  12.789  0.0592  0.3021 -0.1457
22799W        W39647   7.575   8.320   1.105  0.4381  0.1160 -0.0867
22800W        W39648  16.216  12.049  13.071 -0.2970 -0.2619 -0.0078
22801W        W39649  13.077  10.170  13.254  0.1813 -0.3064  0.0780
22802W        W39650  16.746   6.899  13.364 -0.0697  0.1659  0.1586
22803W        W39651   1.331   0.661   4.178  0.2832 -0.1105  0.0725
22804W        W39652  16.558  17.676  14.552 -0.1970  0.0282  0.0703
22805W        W39653   6.409  14.484  13.270  0.2816 -0.2784  0.3068
22806W        W39654   9.872   8.812   1.830  0.2481 -0.1683 -0.0218
22807W        W39655   8.808  12.746  15.360 -0.0090  0.3755 -0.1455
22808W        W39656   1.916  12.285  14.066 -0.1569  0.0820 -0.2873
22809W        W39657   9.091   4.679  14.774  0.0632  0.1950  0.0515
22810W        W39658   1.716  15.214  13.070 -0.3134 -0.1845  0.1244
22811W        W39659  10.369  12.501   5.497  0.0077 -0.0921  0.3968
22812W        W39660  11.001   9.552  12.664 -0.0525  0.1293 -0.0526
22813W        W39661   7.623   6.522  15.996  0.3238  0.0208  0.1156
22814W        W39662   8.664   2.430   0.573 -0.0208 -0.1749 -0.3244
22815W        W39663  14.893  14.391   0.893  0.0629  0.2233 -0.0394
22816W        W39664   4.361  11.726   5.115  0.0081  0.2760  0.2638
22817W        W39665   0.739  11.020   4.715  0.0142 -0.2042  0.0810
22818W        W39666  16.615   5.643   4.077 -0.1743  0.2289  0.2515
22819W        W39667   5.307  12.499  13.215 -0.1682 -0.0975  0.1967
22820W        W39668   8.498  14.886  13.610  0.4158 -0.0457 -0.2004
22821W        W39669   4.180   4.414   3.506  0.5064  0.0164 -0.1354
22822W        W39670   1.307   3.643   3.196  0.0934 -0.2392 -0.0293
22823W        W39671  11.173   9.109   3.453 -0.0259  0.0170  0.0844
22824W        W39672   1.328   4.699   0.687  0.0296  0.0404 -0.2858
22825W        W39673  15.214   7.349  15.445  0.1722 -0.1086 -0.3000
22826W        W39674   8.442   6.779  11.858 -0.0020 -0.2236  0.2221
22827W        W39675   4.784   1.062   5.270  0.0559  0.5068  0.1709
22828W        W39676   6.855   8.282  13.990  0.1836 -0.2630  0.0538
22829W        W39677  16.647  11.342   0.253  0.4068  0.1376 -0.2019
22830W        W39678   3.467  17.510   1.173 -0.3058  0.0273  0.3159
22831W        W39679   7.388   0.294  13.715 -0.2819 -0.2700  0.1177
22832W        W39680   5.373   3.834  11.233  0.1280  0.1899 -0.0060
22833W        W39681   7.588   7.510  13.788 -0.0745  0.0141  0.0207
22834W        W39682   6.366  12.770   3.046  0.0645 -0.2332 -0.1411
22835W        W39683   8.875  17.494   2.123  0.0657  0.0760 -0.0096
22836W        W39684   0.418  17.769  11.624  0.0756 -0.1454  0.0918
22837W        W39685   1.093   5.339  12.209 -0.3428 -0.1094 -0.0504
22838W        W39686   5.659   2.485   5.913 -0.2046 -0.1838 -0.0422
22839W        W39687   9.915   3.278  14.044 -0.3352  0.4077 -0.1959
22840W        W39688   2.912  11.433  14.764 -0.1098 -0.1818 -0.2035
22841W        W39689   4.783  16.430   0.139  0.0165  0.4408  0.1065
22842W        W39690   3.066   0.282   3.203 -0.1342 -0.0371 -0.0132
22843W        W39691  12.113   0.239  10.995  0.1243 -0.2843 -0.3345
22844W        W39692   8.646   9.419  11.593 -0.3253 -0.1061  0.0331
22845W        W39693   8.425  17.822  11.197 -0.0921  0.1381  0.1386
22846W        W39694   4.826  11.281   0.381 -0.2004 -0.0180  0.1007
22847W        W39695   6.002  17.265   3.205 -0.3790  0.3605  0.1826
22848W        W39696  10.594   7.343   5.340  0.0286  0.0955  0.0889
22849W        W39697  15.405  14.417   0.013  0.0727  0.3661 -0.2897
22850W        W39698  10.607  14.901   1.210  0.1311  0.2218 -0.1547
22851W        W39699  15.022   8.911  15.417  0.0417  0.0689  0.2029
22852W        W39700   5.629  12.507   3.831  0.5704 -0.0051  0.0258
22853W        W39701   5.902  14.298  15.641 -0.0831 -0.2948 -0.2466
22854W        W39702   9.960  13.893   2.888 -0.0188  0.2103  0.0077
22855W        W39703   6.615   7.816  13.892 -0.3764  0.0624 -0.3004
22856W        W39704   2.162   9.683  10.994  0.0737 -0.1112  0.0481
22857W        W39705   2.025  11.881  12.993 -0.0254 -0.0845  0.1635
22858W        W39706   1.244   3.013   4.658  0.0715 -0.0338 -0.1690
22859W        W39707  13.740   0.703  13.120  0.1825 -0.3194 -0.1692
22860W        W39708  16.970   4.169   1.564  0.3445 -0.0633 -0.1696
22861W        W39709   7.315   9.829  10.116  0.0759  0.0818  0.0519
22862W        W39710   9.971  13.044   0.084 -0.0356 -0.0647 -0.0417
22863W        W39711  16.919   3.790   2.850  0.0752 -0.1766  0.1947
22864W        W39712  13.075   5.747   4.253 -0.0367 -0.0912  0.3166
22865W        W39713   0.014  15.471  14.218 -0.0542 -0.0538  0.3077
22866W        W39714  11.325   0.563   4.803  0.4362  0.1353  0.0950
22867W        W39715   2.334   9.021   3.648 -0.1421  0.0599  0.0379
22868W        W39716   8.488   0.448   3.537 -0.0639 -0.0562  0.0492
22869W        W39717  16.024  14.079   1.648  0.1193 -0.0965  0.2168
22870W        W39718   7.279  11.545   6.058  0.0959  0.0376 -0.1499
22871W        W39719  17.799  11.052  13.371 -0.2249 -0.0870 -0.0736
22872W        W39720   8.755  11.650   5.194  0.2988  0.3324 -0.4199
22873W        W39721   4.040  15.380   3.123 -0.2574 -0.1459  0.0403
22874W        W39722  14.635   3.740  14.304 -0.1346 -0.0187  0.0455
22875W        W39723  14.913   7.682   4.872  0.2696 -0.5074 -0.1602
22876W        W39724   0.887   5.497  15.680 -0.3100  0.1625  0.1564
22877W        W39725   1.956  17.242  12.473 -0.1938  0.1173  0.1222
22878W        W39726   3.635  11.913   4.025  0.0582 -0.1163  0.1081
22879W        W39727  12.286  10.483  15.551 -0.0968 -0.1543  0.2907
22880W        W39728  14.291  17.354   0.035  0.0804 -0.2693  0.1251
22881W        W39729   8.666   1.813   1.135  0.0070  0.2173 -0.0424
22882W        W39730   2.816   3.897   5.354  0.3352  0.1540  0.1452
22883W        W39731   3.537   0.706   4.513  0.1208  0.3888 -0.2037
22884W        W39732   5.534  16.776   2.313 -0.1053  0.2365 -0.2025
22885W        W39733   8.766   4.673   1.250  0.1654  0.0400  0.0782
22886W        W39734  11.507   4.899   1.322 -0.0296  0.0065 -0.1616
22887W        W39735  14.147  14.872  12.033 -0.1535  0.1115  0.2239
22888W        W39736   1.012  16.918  12.659  0.0285 -0.2343 -0.3086
22889W        W39737   8.164   0.360  12.047 -0.2206 -0.0740  0.1845
22890W        W39738   8.538   2.363  14.749  0.1312  0.1118 -0.2518
22891W        W39739   7.169   2.627   1.680  0.1816  0.1332 -0.0117
22892W        W39740   8.843  13.839  12.219  0.0397  0.1937  0.0977
22893W        W39741   1.346   9.648  11.488 -0.0331 -0.1042  0.0834
22894W        W39742  12.305  17.677  14.539 -0.1744  0.1417 -0.1315
22895W        W39743   9.055   4.979  13.584  0.3475  0.4126  0.0016
22896W        W39744   2.595   7.511  13.587  0.0652 -0.0040 -0.0265
22897W        W39745  13.401  17.922  12.284  0.0108  0.0479  0.1123
22898W        W39746   3.298   5.323   1.690  0.0502  0.0109 -0.1426
22899W        W39747  14.346   6.800   2.079  0.1857  0.0802 -0.0882
22900W        W39748   7.131   5.592  11.998 -0.1415 -0.0193  0.2765
22901W        W39749  17.259  12.357  15.802 -0.0598  0.1106  0.2524
22902W        W39750   3.656   2.385  14.031 -0.3134  0.2293  0.0691
22903W        W39751   7.838   1.510  13.915  0.2144  0.1596 -0.2308
22904W        W39752   9.483  17.404   4.702  0.0675 -0.0720  0.0266
22905W        W39753   8.672  10.062  14.143 -0.0315  0.1670  0.0369
22906W        W39754  14.983   4.261  13.069  0.0796 -0.2175 -0.1000
22907W        W39755   2.400   4.624   2.355 -0.2957  0.1125 -0.2140
22908W        W39756   8.451  11.069  13.167  0.1554  0.1428 -0.0337
22909W        W39757   2.164   4.371  14.053  0.2173  0.1225  0.1274
22910W        W39758   1.710   8.697  15.607  0.0558 -0.3221 -0.0621
22911W        W39759   3.924  13.759   3.371 -0.0921 -0.0012 -0.0780
22912W        W39760   9.385  11.549   2.048 -0.2164 -0.0542  0.1120
22913W        W39761   4.233  14.989  16.142 -0.1265 -0.2878 -0.2395
22914W        W39762  11.048   9.113  15.225 -0.0983  0.2656  0.2082
22915W        W39763   8.793  15.812   3.208  0.0772 -0.0994  0.1958
22916W        W39764   9.087  15.001   0.905 -0.3447  0.2323 -0.0959
22917W        W39765   0.196  15.589   0.680 -0.0288  0.1318  0.1390
22918W        W39766   5.091   6.211   4.215 -0.0984 -0.0272 -0.1018
22919W        W39767  11.628   6.470  11.938 -0.0520  0.3678 -0.0147
22920W        W39768   6.880  15.407  14.607  0.3560  0.1399 -0.2072
22921W        W39769  15.505  14.165  10.975 -0.3944  0.0467 -0.2802
22922W        W39770   9.125  17.094   4.255 -0.2495 -0.0275  0.0872
22923W        W39771  12.484   3.283  14.937 -0.1968  0.3406  0.2529
22924W        W39772  14.674   6.639   2.921  0.1693 -0.3538  0.1342
22925W        W39773   8.193   9.941   3.842  0.2494  0.0846  0.0293
22926W        W39774   7.616   9.361   3.970  0.0318  0.4056 -0.2217
22927W        W39775   8.065   2.830   4.091 -0.4415  0.3794 -0.0992
22928W        W39776   2.583   1.216   3.484 -0.1111 -0.0738  0.0748
22929W        W39777  10.785   3.871   2.282 -0.3569 -0.0371 -0.1410
22930W        W39778   3.303  13.876   0.729  0.2358 -0.5221  0.0232
22931W        W39779  12.388  15.408  11.774 -0.0092 -0.0761  0.1457
22932W        W39780  16.570  11.120  11.441  0.1039 -0.1234 -0.0883
22933W        W39781  10.015  13.994  15.361 -0.1717  0.0156 -0.2938
22934W        W39782   4.511  12.162   2.532  0.0847  0.1657 -0.1606
22935W        W39783  13.077   4.904   5.039  0.0098  0.0419 -0.0817
22936W        W39784   9.414   6.479  12.234  0.0203 -0.3358 -0.3597
22937W        W39785   3.360  13.122  15.608 -0.0088 -0.0141 -0.2824
22938W        W39786  17.900   8.475   3.026  0.1595  0.1172 -0.0721
22939W        W39787  14.843  14.072   4.428 -0.2501 -0.0711  0.1948
22940W        W39788  14.129   9.010   0.336 -0.1779  0.2106 -0.4050
22941W        W39789   4.838   0.675   2.298  0.0817  0.1640 -0.0594
22942W        W39790  16.757  11.164   4.942  0.2479 -0.0274 -0.1041
22943W        W39791  16.442   4.806  14.978 -0.0915  0.3889 -0.0138
22944W        W39792   9.095   0.747   2.077 -0.2266  0.2530  0.1778
22945W        W39793   3.408   8.145   4.171  0.0901 -0.1550 -0.0279
22946W        W39794   5.659  11.891   0.995 -0.2509 -0.0437  0.1108
22947W        W39795   1.090  14.975  14.551  0.0553 -0.0877  0.3445
22948W        W39796   3.696   8.991  15.261 -0.0848 -0.0559  0.0442
22949W        W39797   1.961   3.892  15.530 -0.4584  0.0873  0.0370
22950W        W39798   6.521  10.361  15.263  0.0424 -0.3487 -0.0507
22951W        W39799   1.276   3.583  11.369  0.2389  0.0205 -0.1174
22952W        W39800   9.229  11.647   4.751  0.1497 -0.0014  0.0569
22953W        W39801  13.302   7.086   4.614 -0.2269 -0.0860  0.0182
22954W        W39802  17.583  10.069  12.104  0.1791 -0.0133 -0.1214
22955W        W39803  17.537  12.827   3.909  0.0480 -0.2253  0.2359
22956W        W39804   9.007   8.420  16.142 -0.1191  0.3764 -0.2015
22957W        W39805   4.025   7.767   1.528 -0.0621  0.0956 -0.0843
22958W        W39806   3.474   4.832   5.576 -0.0104 -0.1606 -0.2489
22959W        W39807  16.876  12.996  12.548  0.2167  0.1871  0.0968
22960W        W39808  13.606   7.601   4.661 -0.0391 -0.0115 -0.2538
22961W        W39809   7.256  15.772   0.653 -0.3321  0.0681 -0.0036
22962W        W39810   0.351   7.261  11.099  0.0949  0.0797 -0.3274
22963W        W39811   2.467  15.335   2.224  0.0702 -0.1498 -0.1649
22964W        W39812  17.611   4.619   1.417 -0.0727  0.1285  0.0155
22965W        W39813  15.046  15.612   1.883  0.2122 -0.0720  0.1480
22966W        W39814   6.641  11.394   4.172  0.1643  0.1046 -0.1375
22967W        W39815   4.069   7.969   5.944  0.0156  0.0557 -0.2627
22968W        W39816  16.827   4.256   2.977 -0.2315  0.1205  0.2240
22969W        W39817  10.462  10.988  13.822 -0.4498 -0.2016  0.0469
22970W        W39818  17.040   5.352   4.083  0.1113 -0.1758 -0.0269
22971W        W39819   6.527  10.543   4.537  0.1835 -0.0969 -0.0943
22972W        W39820  15.597   5.735  13.953  0.1256  0.0426  0.3473
22973W        W39821  13.921  13.571  15.771 -0.1051 -0.0360 -0.0019
22974W        W39822  16.455   5.055   2.260 -0.3067  0.2807  0.1203
22975W        W39823  12.117  16.301   1.639 -0.2282  0.1362  0.1424
22976W        W39824   0.942   5.099  13.513  0.0177 -0.1048 -0.0228
22977W        W39825   7.839  15.720  14.058 -0.0569 -0.1578  0.0410
22978W        W39826  12.364  15.050  14.519 -0.0216 -0.2943 -0.0999
22979W        W39827   5.284  14.398  12.696 -0.4376 -0.0423  0.1262
22980W        W39828  16.618  12.439   4.800  0.0070 -0.1812  0.0623
22981W        W39829  12.922   2.164   2.396 -0.1030 -0.0170 -0.2716
22982W        W39830   7.310  11.222   0.124  0.1057 -0.0109 -0.0888
22983W        W39831  16.835   1.471  13.330  0.2817 -0.0545  0.1013
22984W        W39832   2.010  15.515   3.423 -0.1472  0.1279 -0.1855
22985W        W39833  12.660   4.332   0.286  0.0527 -0.4281 -0.2040
22986W        W39834   4.787   1.812  12.788 -0.0767  0.0911  0.3447
22987W        W39835  14.393   7.985   3.398  0.0925  0.2876 -0.2988
22988W        W39836   4.625   8.120  13.844  0.2225  0.3125 -0.2517
22989W        W39837   9.493   9.269   4.705  0.2522 -0.0103  0.2189
22990W        W39838  14.045   6.594  16.110 -0.0406  0.0015  0.2204
22991W        W39839  17.705   3.015  11.073  0.2144  0.0610  0.0488
22992W        W39840  11.378  12.277   0.777  0.3238  0.0417  0.2908
22993W        W39841   9.242   4.242  11.234  0.0263 -0.1507 -0.0396
22994W        W39842  11.660  11.197   1.691 -0.0963  0.0899 -0.0790
22995W        W39843   7.178  16.282  15.901 -0.2074 -0.0300 -0.1828
22996W        W39844   1.712  16.818   3.658  0.2297 -0.1299 -0.3172
22997W        W39845  13.307   2.120   1.147  0.0827 -0.1493 -0.0766
22998W        W39846  10.177   2.438   0.716 -0.0983 -0.1762 -0.2080
22999W        W39847   4.220   6.829  11.787  0.2344 -0.1087 -0.0903
23000W        W39848   6.375  17.483  11.687  0.2692  0.1149 -0.0025
23001W        W39849   9.750  12.592   1.770 -0.1437 -0.1656 -0.0663
23002W        W39850  11.908   7.794  11.547 -0.3454 -0.1313 -0.1082
23003W        W39851   0.576   6.781  14.773 -0.0801  0.1855 -0.2948
23004W        W39852   0.044   9.317   2.605 -0.3502  0.2043  0.1932
23005W        W39853   4.469   3.595  14.913 -0.1048  0.3245 -0.0691
23006W        W39854   1.377   1.018   2.673 -0.0466  0.4754 -0.0434
23007W        W39855   5.016   3.954   3.115 -0.0566  0.2195  0.0530
23008W        W39856   3.737  14.115   0.729 -0.0792  0.3551 -0.3477
23009W        W39857   0.782   1.760   3.113  0.1178 -0.1402  0.0061
23010W        W39858  13.760   3.505  12.528 -0.0085  0.1967  0.1216
23011W        W39859   4.097  17.665   4.373 -0.1718 -0.0020  0.0042
23012W        W39860   4.317   1.937  12.266  0.1778 -0.2535  0.0132
23013W        W39861   5.148   9.717   0.897  0.0934 -0.1686  0.1365
23014W        W39862   6.396   2.793  15.773  0.1767  0.1406 -0.1543
23015W        W39863   7.117  11.470   2.461  0.3421  0.1046  0.3185
23016W        W39864   2.280   2.492   4.103  0.3361 -0.0545 -0.2044
23017W        W39865   1.899   4.388  15.772 -0.0999  0.2505 -0.2339
23018W        W39866   5.770  14.714  14.773  0.1643 -0.0445 -0.1852
23019W        W39867  15.839   7.614  11.678  0.1348  0.2436  0.1872
23020W        W39868  17.491  15.556   3.179 -0.2443  0.0025  0.1678
23021W        W39869   6.202   9.413   0.273  0.0977 -0.1982  0.2449
23022W        W39870   2.662  17.607   2.861  0.0388 -0.3084 -0.0530
23023W        W39871  10.862   6.195  13.529  0.0490 -0.0145 -0.1666
23024W        W39872   3.208  15.279  16.097 -0.2551  0.0160 -0.1178
23025W        W39873   8.764   9.027  14.414 -0.2348  0.0084 -0.1153
23026W        W39874   3.992  11.178  15.189 -0.1942  0.1722  0.0216
23027W        W39875   0.264   0.733  13.860 -0.3367 -0.1243  0.0226
23028W        W39876   6.088   3.303  12.311  0.1159  0.0085 -0.0115
23029W        W39877   3.489   5.969   2.106 -0.0636 -0.1048  0.0231
23030W        W39878   4.969  15.935  12.982  0.1637  0.1490 -0.0791
23031W        W39879   8.667  13.688   3.469  0.1167 -0.0031  0.2077
23032W        W39880  11.651   5.408  14.017 -0.0435  0.0456  0.0810
23033W        W39881  17.170  10.727   5.525 -0.1798  0.0527  0.0231
23034W        W39882   5.983   4.539   1.306  0.1975  0.0023  0.2081
23035W        W39883   7.532   7.021  12.661  0.1327  0.1771 -0.0664
23036W        W39884  17.196   9.388   4.378  0.1136  0.0532 -0.2911
23037W        W39885   9.681  11.043  15.280 -0.2145 -0.1569  0.0486
23038W        W39886   1.981   6.037   0.931  0.2431 -0.0621 -0.1888
23039W        W39887   3.798  10.809   0.075 -0.0153 -0.1303 -0.1423
23040W        W39888  10.100  11.611   1.431 -0.2060  0.3228  0.0288
23041W        W39889  10.233  12.150  11.231  0.2158 -0.3585  0.0013
23042W        W39890  17.118   7.420  12.135 -0.0846  0.0536  0.3441
23043W        W39891   6.205   0.111   0.281  0.2877  0.2655 -0.1905
23044W        W39892  10.814   1.073  14.591 -0.0954  0.0745 -0.4451
23045W        W39893  12.148  11.464   0.123  0.1365  0.3777  0.2115
23046W        W39894  16.618   6.566   1.731  0.1312  0.0908  0.0204
23047W        W39895  13.057   9.589  12.073 -0.2279  0.0525 -0.1542
23048W        W39896  15.573   5.867   4.860  0.2451  0.1530 -0.1265
23049W        W39897   6.836  17.743   4.131  0.0920 -0.0094  0.2047
23050W        W39898   3.199   0.835  14.472 -0.0460 -0.1382 -0.1672
23051W        W39899   6.894   3.729   3.912 -0.1955 -0.2865  0.2117
23052W        W39900   3.811   4.307  15.970 -0.0748 -0.0664 -0.0266
23053W        W39901   2.344   8.467  10.310 -0.0369 -0.0889 -0.3027
23054W        W39902   8.840   0.721  15.560  0.0367  0.1148 -0.0579
23055W        W39903  17.305  17.843  12.250  0.1956  0.0656 -0.1346
23056W        W39904   2.042  16.664   0.493  0.0508 -0.1715 -0.1310
23057W        W39905  15.825  13.094   4.011  0.3814 -0.1806  0.0183
23058W        W39906   4.314   7.113   6.056 -0.0898 -0.0877 -0.0433
23059W        W39907  17.813   8.865  13.592  0.3105 -0.0437  0.0666
23060W        W39908   0.352   5.602  15.674 -0.0366  0.0410 -0.0477
23061W        W39909   7.633  14.273  11.908 -0.2101  0.1566  0.0713
23062W        W39910   9.756   1.917  15.775  0.1767 -0.0275  0.1191
23063W        W39911   0.439   2.143  13.137 -0.0617  0.0140 -0.1794
23064W        W39912   4.261  17.690   4.852 -0.1105 -0.1996 -0.0197
23065W        W39913   7.231   9.722   1.037  0.0104  0.0062  0.1913
23066W        W39914  10.627   1.084   0.385  0.0612 -0.1824 -0.0286
23067W        W39915   1.213   8.369   0.305 -0.0533  0.1597  0.0991
23068W        W39916   4.734   2.663   3.775  0.1683 -0.0875 -0.1535
23069W        W39917   9.773   5.271  14.770  0.1898  0.0815  0.1604
23070W        W39918   2.457   3.028   5.350  0.2323  0.0269  0.0577
23071W        W39919   2.960   2.589   3.775 -0.1669  0.1686  0.0576
23072W        W39920  13.563  18.016   1.866  0.2263 -0.1244 -0.3784
23073W        W39921  17.485   0.409  13.366  0.3421 -0.1703 -0.0089
23074W        W39922   3.156  14.496   1.839  0.0163  0.1948  0.2236
23075W        W39923   5.093  14.833  12.813  0.0378  0.2674 -0.0927
23076W        W39924  17.200  17.245   1.854 -0.1524  0.1970 -0.3358
23077W        W39925   4.589   0.456   1.900  0.0155 -0.1420  0.1155
23078W        W39926   5.181   7.734   3.885  0.1067  0.1879 -0.0369
23079W        W39927  14.190   2.569   1.100  0.0903 -0.1752  0.0763
23080W        W39928   7.643  15.461  15.082 -0.1740  0.1947 -0.0538
23081W        W39929  11.377   9.292   1.765 -0.0097  0.0121 -0.1096
23082W        W39930   0.797   8.209  11.025 -0.1155  0.0605  0.1959
23083W        W39931  15.310   7.568  12.992 -0.0477  0.0366  0.2833
23084W        W39932  16.427  12.431   5.703 -0.0112 -0.2321  0.2670
23085W        W39933   6.210   5.106   2.462 -0.0404 -0.0535  0.1548
23086W        W39934   6.459   1.462   0.920  0.0473  0.3291 -0.3652
23087W        W39935   3.296  14.265  14.483 -0.1670  0.0411 -0.1065
23088W        W39936  14.329  11.936   2.340 -0.0715 -0.3326  0.0807
23089W        W39937   2.646   3.418  14.038 -0.0877  0.0915  0.1045
23090W        W39938   2.805   5.012  12.895 -0.1604  0.1396 -0.2030
23091W        W39939   6.048   1.112  12.705 -0.2738  0.1536 -0.0511
23092W        W39940   3.385   0.760   3.307  0.2534 -0.0700 -0.0144
23093W        W39941  14.145  13.707  14.239  0.1188 -0.0170 -0.0749
23094W        W39942  16.276   7.717   4.538  0.0371  0.1585 -0.1799
23095W        W39943   1.586   8.835   0.800 -0.3193 -0.0232  0.1823
23096W        W39944  13.232   3.390   4.940 -0.0592 -0.3718  0.1364
23097W        W39945   4.175  11.819  13.592  0.1499 -0.1225 -0.1139
23098W        W39946  15.255   2.789  13.176  0.0150 -0.1098  0.0857
23099W        W39947   1.978  10.914  14.186  0.2670  0.1387  0.0648
23100W        W39948  10.574  17.763   2.871  0.0631 -0.1382 -0.0271
23101W        W39949   6.731  13.139  14.578 -0.2453  0.0495  0.0637
23102W        W39950  16.366  11.969   0.881 -0.2000 -0.0874  0.0080
23103W        W39951   4.263  15.865  15.823 -0.0544 -0.3270 -0.2879
23104W        W39952   9.006   8.506  13.165  0.3138 -0.2768 -0.0619
23105W        W39953  10.048   6.262   1.092  0.2251  0.1439  0.0318
23106W        W39954   2.067   6.207  15.586  0.0536 -0.0071  0.0635
23107W        W39955  15.609  16.466   4.672 -0.2911  0.0602  0.1061
23108W        W39956   3.536   0.850   2.320  0.0474 -0.0077  0.0046
23109W        W39957   5.519  17.974  15.544  0.1098  0.0294 -0.0456
23110W        W39958   7.512  16.571  15.135  0.0467  0.1317  0.0109
23111W        W39959  17.066  12.545  15.323  0.0334  0.1206 -0.0219
23112W        W39960   7.720   8.908  14.424 -0.1870 -0.0552 -0.1869
23113W        W39961  12.007  11.717  12.689  0.3224 -0.0916 -0.0709
23114W        W39962   8.648  13.864  12.701 -0.0180 -0.1201 -0.0547
23115W        W39963   3.030  11.617   2.867  0.1451 -0.0330 -0.1601
23116W        W39964  15.140   8.770  11.975 -0.0204  0.3532  0.1754
23117W        W39965   8.717   8.711  15.807 -0.0601  0.0301 -0.0925
23118W        W39966   8.767   2.877  12.853 -0.2136  0.2897  0.0624
23119W        W39967  12.987   6.450  13.404 -0.1804  0.1733  0.1333
23120W        W39968   7.852   9.030   0.904  0.0625 -0.0502  0.1433
23121W        W39969  11.416  14.704  14.706 -0.0076 -0.0873 -0.0670
23122W        W39970  16.182  11.615   0.444  0.0324  0.0018  0.0682
23123W        W39971   5.415   0.526   6.657  0.1231  0.3414 -0.0414
23124W        W39972  15.570   3.265   5.247  0.0899 -0.0669 -0.2795
23125W        W39973  15.134  11.172   3.398  0.2453  0.1271  0.0663
23126W        W39974  16.811  13.625   0.686 -0.0981  0.1254 -0.2173
23127W        W39975  11.075   7.536  14.994  0.2701  0.1887  0.0336
23128W        W39976   3.608   5.604   6.277  0.1205  0.0714  0.2371
23129W        W39977   2.120  11.440  15.052 -0.0729  0.1666  0.1734
23130W        W39978   1.929   6.427  13.760  0.0956  0.1676 -0.4968
23131W        W39979  11.843   7.506  15.314  0.0808  0.0078  0.1617
23132W        W39980   0.891   0.069   4.841 -0.1617  0.0636  0.3345
23133W        W39981   6.208  16.086   2.047  0.1945  0.0639 -0.1125
23134W        W39982   7.351   0.559  15.341 -0.1538 -0.0412  0.0132
23135W        W39983   5.116   8.024  13.162 -0.1854 -0.1511 -0.0111
23136W        W39984   7.652  17.674  13.187  0.1888  0.1171 -0.2723
23137W        W39985   9.756  17.785  11.723  0.0171  0.0097  0.1802
23138W        W39986  17.761   5.835   3.537 -0.0042 -0.3130 -0.0649
23139W        W39987  11.335   1.566  13.252  0.1225  0.2464 -0.0847
23140W        W39988   3.131   3.304  13.339 -0.4904  0.0026  0.0130
23141W        W39989   8.878   9.812  14.550 -0.0808  0.3205 -0.1494
23142W        W39990   0.750   5.913  15.178 -0.3477  0.1400  0.0053
23143W        W39991   7.213  12.383  16.059  0.0067 -0.2639 -0.0069
23144W        W39992   8.234   6.405   0.547 -0.0329 -0.2835  0.1336
23145W        W39993   7.772   4.883  12.565 -0.2083 -0.1811  0.3651
23146W        W39994   9.051  16.994  12.042 -0.1589 -0.0082 -0.0812
23147W        W39995  13.775   5.918  12.185  0.0430 -0.0452  0.1869
23148W        W39996  11.892  14.835  14.619 -0.0699  0.1894  0.1668
23149W        W39997   7.747   7.360   2.627  0.1889 -0.3173  0.1432
23150W        W39998  10.025   1.242   4.875  0.0022 -0.0769 -0.0333
23151W        W39999   6.936  10.988  15.987  0.3177 -0.1339  0.1412
23152W        W40000   0.009   3.224   1.312  0.2392 -0.2086 -0.1827
23153W        W40001   2.954  16.256   1.400 -0.0657 -0.0615 -0.1599
23154W        W40002  15.769  10.217  13.726  0.3420  0.1409  0.1036
23155W        W40003  13.621  14.290   3.378  0.0310  0.0539  0.3027
23156W        W40004   9.613   7.553  13.340 -0.2142 -0.3515 -0.1485
23157W        W40005   1.231   5.942   1.090 -0.0784 -0.0612  0.2722
23158W        W40006  14.857   1.968  12.769 -0.1665  0.1143  0.2513
23159W        W40007   5.774   4.818  14.031  0.0962 -0.0182 -0.0276
23160W        W40008   9.421  13.308   3.409  0.0545  0.2177  0.1331
23161W        W40009   4.936  14.884   1.433  0.0784 -0.3140 -0.2738
23162W        W40010  11.569  18.044   0.948  0.2502  0.2846 -0.1041
23163W        W40011   5.369   0.462   5.089 -0.0126 -0.1418  0.1435
23164W        W40012   9.262  14.665   5.139 -0.2097 -0.1468  0.2130
23165W        W40013  16.884   0.197   0.374  0.2310 -0.2269 -0.0434
23166W        W40014  15.332   9.688  11.085 -0.0516  0.0239 -0.0090
23167W        W40015  11.172   2.847  16.100 -0.3350 -0.0780  0.0499
23168W        W40016  14.667  10.611  14.712 -0.2619  0.1911 -0.2585
23169W        W40017   3.304   2.262   2.353  0.2333 -0.1970  0.3199
23170W        W40018  10.036   4.137   5.279 -0.2849  0.0379  0.1813
23171W        W40019   0.586  17.841  15.394  0.1210 -0.2920  0.1410
23172W        W40020   7.963  15.737  15.570 -0.2233  0.4848  0.0538
23173W        W40021   0.235  16.528  13.310 -0.1332  0.0369 -0.2943
23174W        W40022   3.262   2.792  15.503  0.1364  0.1514 -0.1773
23175W        W40023   7.849  13.999  12.267  0.2896 -0.1122  0.0193
23176W        W40024   7.826   9.503  11.846 -0.0818  0.1448 -0.0332
23177W        W40025   7.629   1.474   5.121  0.0093 -0.0465  0.0180
23178W        W40026   4.696   9.238  11.350  0.0851 -0.1344  0.0134
23179W        W40027   7.614  12.048  13.397 -0.2823 -0.0673  0.1112
23180W        W40028  11.465   6.166  11.501 -0.1932  0.2485  0.0947
23181W        W40029   7.299   3.625  16.087  0.1962  0.2684 -0.2968
23182W        W40030   6.200  17.039   4.520  0.0917  0.2687 -0.0715
23183W        W40031   0.043   9.898   1.787 -0.0220  0.0995 -0.0351
23184W        W40032  17.185   2.065   2.655 -0.1660  0.0981 -0.1263
23185W        W40033  14.215  12.889   0.133 -0.0212 -0.0965  0.0452
23186W        W40034  11.468  11.489  11.958 -0.1009  0.1882  0.0287
23187W        W40035   6.507   8.818   2.845  0.0386  0.1458 -0.2047
23188W        W40036  14.002  12.141   1.080 -0.2437 -0.0272  0.1346
23189W        W40037   6.277  10.159   4.125 -0.0632 -0.0244 -0.2196
23190W        W40038   3.670  13.694   0.018  0.0558  0.1076  0.0377
23191W        W40039  10.522  11.535  12.160 -0.0658 -0.1355 -0.1655
23192W        W40040  14.910   4.212   0.205 -0.1122  0.0195 -0.0922
23193W        W40041   3.075   9.604  13.051 -0.3383  0.2668 -0.1584
23194W        W40042   8.481  13.889  13.284 -0.0313 -0.2566  0.1618
23195W        W40043   0.358  18.031   4.975 -0.1480 -0.0869  0.2077
23196W        W40044  10.522  12.687  14.786 -0.2721  0.0227  0.2801
23197W        W40045   9.144   1.885   1.605  0.2677  0.1088 -0.2913
23198W        W40046  10.890   8.095  15.920 -0.0039 -0.0689 -0.0624
23199W        W40047   3.589   8.518  15.848  0.1531 -0.1406  0.2835
23200W        W40048  11.469  12.740   2.462 -0.0025 -0.1044  0.0032
23201W        W40049   3.032  11.937   1.176 -0.1842 -0.0595  0.0796
23202W        W40050   0.050  14.258   1.398  0.0883 -0.0802 -0.0872
23203W        W40051  15.732  11.307  15.117  0.1013  0.2198 -0.4818
23204W        W40052   6.107  10.218   4.806  0.0611 -0.0326 -0.3194
23205W        W40053  11.740  11.008   5.140 -0.0706 -0.1585 -0.3152
23206W        W40054   0.439   4.039  13.774  0.0382  0.1165  0.2892
23207W        W40055   5.616   9.630  16.010  0.4524  0.2997  0.1062
23208W        W40056   5.513   3.849   1.098 -0.1157 -0.1193  0.1881
23209W        W40057  13.697   3.419   0.144 -0.1673 -0.3429  0.0527
23210W        W40058   4.762   6.224   2.417  0.2818 -0.0193 -0.0758
23211W        W40059   1.588   0.916   0.782  0.1765 -0.1930  0.0092
23212W        W40060   8.766   6.433  13.631  0.1386 -0.1120  0.1029
23213W        W40061  16.639  12.379  10.538  0.1377  0.3788  0.1409
23214W        W40062   2.215   7.293   2.178  0.2978 -0.0264  0.0477
23215W        W40063   9.461  14.086   6.396 -0.3958  0.0038 -0.1578
23216W        W40064   7.983  15.714   4.385 -0.1418  0.1108 -0.1590
23217W        W40065  12.937   9.830   1.536 -0.0536 -0.1424 -0.0000
23218W        W40066   9.869  16.904   0.591 -0.0217 -0.1537  0.1529
23219W        W40067   3.072   5.782   1.796  0.3486 -0.0475 -0.3130
23220W        W40068  14.062   3.418   3.593 -0.2095 -0.2697  0.0655
23221W        W40069   3.156   9.884  14.696  0.0245  0.0823  0.1789
23222W        W40070   8.006   2.166   5.589  0.1245 -0.0817 -0.0791
23223W        W40071  16.976   1.477   3.925 -0.1166 -0.1506 -0.0914
23224W        W40072   0.488  14.755   3.113  0.0424  0.0785  0.3692
23225W        W40073   0.929   1.597   1.317  0.0980 -0.2522  0.2524
23226W        W40074  15.053   1.921   5.166 -0.0031  0.4794 -0.1548
23227W        W40075  11.587   2.844   0.300  0.3100 -0.0426  0.2626
23228W        W40076   1.170  17.340   1.945  0.0177  0.0267  0.2303
23229W        W40077  13.502  15.299  11.442  0.3661  0.0695 -0.2795
23230W        W40078   9.098  10.019   1.603  0.1050 -0.2400 -0.1753
23231W        W40079   3.230  10.865  14.612  0.2464  0.4080 -0.2300
23232W        W40080   9.091  12.406  10.903  0.0645 -0.3187  0.0513
23233W        W40081  12.609   1.748  11.971  0.1491 -0.0279  0.0046
23234W        W40082   6.167   9.018   2.544 -0.2827 -0.0778  0.1153
23235W        W40083   4.066  13.717  14.889  0.0365  0.0194 -0.2662
23236W        W40084   1.128   9.482   4.371 -0.3318 -0.4152  0.0301
23237W        W40085  11.694   5.894  10.612 -0.2761  0.1830 -0.1602
23238W        W40086   1.804  16.251  14.481 -0.1314 -0.2366 -0.0721
23239W        W40087  14.938   7.373   3.989  0.1992  0.3586 -0.0235
23240W        W40088   1.916   0.643  11.769 -0.1636 -0.1321 -0.0767
23241W        W40089   1.965  10.981  12.417 -0.1967  0.0842  0.2624
23242W        W40090   5.233  12.385  16.020  0.1597 -0.0693  0.0411
23243W        W40091  10.014  15.936   5.216 -0.0270 -0.5898  0.2469
23244W        W40092   0.653  12.378   0.008  0.3163 -0.1563  0.2684
23245W        W40093   7.785   1.071  12.158  0.3375 -0.1930  0.1566
23246W        W40094  17.116   0.519   4.928  0.2171  0.2320 -0.1391
23247W        W40095  15.194   1.302   1.810 -0.1522 -0.0725  0.0178
23248W        W40096   9.388   7.621   0.499  0.1558  0.1483  0.0547
23249W        W40097   0.754   1.469   5.086 -0.0995 -0.0863  0.2170
23250W        W40098  10.937   5.272   1.379 -0.1858 -0.1515  0.3333
23251W        W40099   6.969  12.298   4.510 -0.0367 -0.2502  0.0527
23252W        W40100  11.682   8.545   5.246  0.0338 -0.3694 -0.3427
23253W        W40101  10.799  16.471  15.681 -0.0480 -0.0751  0.0210
23254W        W40102   6.453   2.133   4.280  0.0041 -0.0129 -0.3363
23255W        W40103   7.237   9.860  12.603 -0.1704  0.0017  0.0549
23256W        W40104  13.445  15.276   3.735 -0.1602 -0.0360 -0.3175
23257W        W40105   8.513  14.084  14.934 -0.0262  0.3706 -0.1451
23258W        W40106   2.240   0.237   1.876  0.1625  0.0677  0.0482
23259W        W40107   5.458   5.919   3.620  0.0915  0.0003  0.0593
23260W        W40108   2.386   9.476  11.796 -0.1290  0.2748 -0.1430
23261W        W40109  16.179  12.002   2.235 -0.0262  0.0276 -0.3303
23262W        W40110  11.210   6.012   4.389  0.0903 -0.2167 -0.0518
23263W        W40111   9.675   3.109  15.639  0.2464  0.0963  0.1076
23264W        W40112  13.909   5.156  11.525 -0.1337  0.0514  0.0702
23265W        W40113   1.062  17.499  12.680  0.0412 -0.0342 -0.2246
23266W        W40114   7.981  10.328  16.222  0.2473 -0.1585 -0.1084
23267W        W40115  15.626   5.264  13.989 -0.0941 -0.1578 -0.2665
23268W        W40116   7.728   6.087   1.083 -0.1594  0.0925  0.0511
23269W        W40117  13.390   4.417   0.930 -0.0239 -0.2721  0.0110
23270W        W40118  18.046  17.452  10.562 -0.1336  0.2300 -0.2061
23271W        W40119  10.287   2.600  13.353  0.0532 -0.0414 -0.1938
23272W        W40120  15.881   3.644   0.491  0.0474 -0.1691 -0.4356
23273W        W40121   8.278  16.048   4.579  0.1732  0.3790 -0.0519
23274W        W40122   9.295  15.562  12.106 -0.0725  0.1183  0.2064
23275W        W40123   3.694  11.522   5.301 -0.0517 -0.1341  0.1077
23276W        W40124   3.321   8.091  15.446 -0.1163 -0.0133  0.0217
23277W        W40125   4.337  15.280  15.349 -0.1366  0.0205 -0.0238
23278W        W40126  14.401  14.383   1.085  0.4529 -0.0325 -0.0143
23279W        W40127   6.673   0.104   0.492 -0.0704 -0.0095 -0.3423
23280W        W40128   3.812  12.596   1.360 -0.2940  0.0357 -0.0654
23281W        W40129  17.917  15.025  10.865  0.1605  0.2176  0.0415
23282W        W40130  15.388  11.216  10.388  0.1592  0.1376  0.2604
23283W        W40131   4.095  17.280  16.186 -0.4163 -0.3023  0.0036
23284W        W40132   2.163   5.964  12.399 -0.2424 -0.2884 -0.0850
23285W        W40133  14.497   2.297   2.137 -0.2253 -0.1759 -0.0184
23286W        W40134  14.474   0.486  12.057  0.1716  0.0989  0.2365
23287W        W40135   3.709  17.610  11.651 -0.0771  0.0244 -0.0883
23288W        W40136   8.794  12.938   2.615  0.0577 -0.2070 -0.3429
23289W        W40137   8.353   5.764  16.175 -0.2069 -0.2461  0.2138
23290W        W40138   7.603  16.052  13.580  0.1155  0.0688  0.5176
23291W        W40139  12.566  16.949  13.254 -0.0569  0.2896  0.1189
23292W        W40140   3.518  17.867   5.221  0.1761  0.2535  0.0917
23293W        W40141  10.570   9.894   0.330  0.0125 -0.2860 -0.0171
23294W        W40142   5.487   8.793   1.082  0.0070 -0.0703 -0.0951
23295W        W40143   7.634  17.782  14.466  0.2417 -0.3052  0.3640
23296W        W40144  12.269  12.084  12.328 -0.3886  0.1622 -0.1162
23297W        W40145   9.990  11.755   3.874  0.2220  0.1272 -0.2668
23298W        W40146  14.312   6.894  14.359 -0.0660 -0.4015  0.3180
23299W        W40147   6.202   3.539  14.884  0.3345 -0.0044  0.3846
23300W        W40148  15.605   7.117  14.171 -0.0546  0.2687 -0.0509
23301W        W40149   1.175   4.314   0.432  0.0222 -0.0792  0.3336
23302W        W40150  10.368   9.765   0.922 -0.0578 -0.0410 -0.0022
23303W        W40151  10.518   2.917  11.865  0.1696  0.4154  0.1015
23304W        W40152  16.883   9.950  11.933 -0.1135  0.0079  0.1323
23305W        W40153  14.020   1.842  11.657  0.4321 -0.0960 -0.0814
23306W        W40154   2.774  10.176  13.457 -0.2216  0.1088 -0.0050
23307W        W40155   7.270  16.088   5.533  0.0885 -0.2632  0.4399
23308W        W40156  13.232   9.186  12.326 -0.2662  0.0035  0.1155
23309W        W40157  16.301  14.852  15.502  0.0840  0.1176 -0.1843
23310W        W40158   1.225  16.390   1.821 -0.1403  0.0514 -0.1579
23311W        W40159   4.275  10.500   4.842  0.0351  0.1147 -0.2276
23312W        W40160   2.124  18.014   5.267 -0.3776 -0.3333  0.1200
23313W        W40161  16.131   3.695   2.119 -0.0683 -0.0639 -0.2588
23314W        W40162  17.342  14.853   0.420  0.1185  0.2327  0.0559
23315W        W40163   4.265  13.777  14.394  0.0207 -0.0533  0.2622
23316W        W40164   3.085   3.151  12.879  0.1249 -0.0960  0.1243
23317W        W40165  12.665  17.074   3.236 -0.2734  0.0508 -0.0916
23318W        W40166   1.766  17.683  11.970 -0.2364 -0.2015 -0.0919
23319W        W40167  16.696   4.008   3.665 -0.1149 -0.3020  0.0729
23320W        W40168   2.590  13.570  15.865  0.0234 -0.0769  0.0801
23321W        W40169  12.369   7.071  12.706  0.0244  0.0012  0.1270
23322W        W40170  11.511  15.822   3.486 -0.0896  0.0969 -0.1383
23323W        W40171  11.018   8.712   1.489  0.0410  0.0532 -0.2952
23324W        W40172   3.217   7.672  12.836 -0.1527 -0.0540  0.2650
23325W        W40173  10.297  12.051   1.676 -0.0007  0.4736 -0.1124
23326W        W40174  10.628  12.223  12.657 -0.1406 -0.1706  0.1084
23327W        W40175  15.507  13.017  12.810 -0.0487  0.1730 -0.1566
23328W        W40176   2.065   2.834  13.660 -0.0822  0.3481  0.4337
23329W        W40177  12.543   0.860   2.836  0.0412 -0.1984 -0.3729
23330W        W40178  16.086   4.182   1.897  0.0847  0.3116  0.1617
23331W        W40179  14.692  11.171   4.635 -0.2105  0.1070 -0.0546
23332W        W40180  15.583  10.018   3.754  0.1156  0.2521  0.2717
23333W        W40181   7.814   7.693   0.501  0.1763 -0.2940  0.3090
23334W        W40182  15.408   8.565  12.464  0.0152  0.0146  0.2240
23335W        W40183   6.210   9.877   0.556  0.1597  0.2236  0.0847
23336W        W40184   4.803   1.283   6.193 -0.2147  0.2174 -0.0650
23337W        W40185  15.465   0.776  16.050 -0.1028 -0.1920  0.3893
23338W        W40186   6.259  10.981   3.646  0.0609  0.1274 -0.0721
23339W        W40187  10.737   3.055  16.195 -0.0086  0.1116  0.0904
23340W        W40188  10.511  17.992   3.766 -0.1733 -0.1656  0.1889
23341W        W40189   6.510   0.343  10.677  0.2135 -0.0922  0.1246
23342W        W40190  16.560  10.607  11.518 -0.1183 -0.1103 -0.1160
23343W        W40191  17.709  14.542  13.723  0.2536 -0.3516  0.0617
23344W        W40192   0.332   7.569   0.188 -0.1478 -0.1232 -0.1882
23345W        W40193   3.455  14.683   5.010  0.0112 -0.2337  0.1501
23346W        W40194   6.629   5.286  14.514  0.1580 -0.0002 -0.3076
23347W        W40195   3.877   5.748  15.176  0.1307 -0.2715  0.1030
23348W        W40196   0.531  10.078   1.662  0.2008  0.1922 -0.2495
23349W        W40197   8.445  15.114   2.584 -0.3236  0.1320  0.1762
23350W        W40198   3.239  17.486  13.073 -0.0717  0.0218 -0.1915
23351W        W40199   3.067   4.911  16.142  0.0193 -0.1644 -0.0259
23352W        W40200  16.664  14.195   0.882  0.0719 -0.4247  0.0252
23353W        W40201  12.124   2.016  13.522  0.0450  0.2126 -0.1208
23354W        W40202  12.784  17.477   4.386 -0.2311 -0.1772 -0.1675
23355W        W40203   7.109  14.531   1.405 -0.1114  0.1889  0.1029
23356W        W40204   5.272   5.255   1.111  0.0348 -0.1974 -0.2765
23357W        W40205   1.095   8.755   9.775 -0.0235  0.1685  0.2918
23358W        W40206  16.461   7.262   1.305 -0.0307 -0.0410  0.0123
23359W        W40207  12.711  15.454   5.387 -0.1845  0.0647 -0.4574
23360W        W40208  10.800   0.322   3.644 -0.2015  0.1796 -0.0724
23361W        W40209   7.467   9.782   2.796 -0.0020  0.0212  0.0700
23362W        W40210   1.092  14.697  13.895  0.0071 -0.2390 -0.0571
23363W        W40211   9.060   1.247   5.124  0.0730  0.1192 -0.0702
23364W        W40212  18.001  15.835  11.634 -0.0597  0.1464 -0.0691
23365W        W40213   3.816   4.152  11.210  0.2460  0.0585 -0.2931
23366W        W40214  14.756   4.099  11.103 -0.2128 -0.0803  0.1337
23367W        W40215   7.166   8.801   3.211  0.0755 -0.3753  0.0636
23368W        W40216  15.529  14.472  15.812  0.1711 -0.2150 -0.2284
23369W        W40217  15.997   4.721  15.217  0.0386  0.1155  0.0964
23370W        W40218   2.322  18.039   2.830 -0.0398 -0.0944 -0.1639
23371W        W40219  15.825  12.383   2.394  0.3938  0.1108 -0.1819
23372W        W40220  11.790  13.952  14.065 -0.4533 -0.1241  0.1532
23373W        W40221   6.733  10.865  15.237  0.0570 -0.2316 -0.1887
23374W        W40222  10.335  10.228  12.501 -0.0767  0.0127 -0.1250
23375W        W40223  13.728  13.185   2.172  0.3137 -0.3738 -0.0120
23376W        W40224   9.853  16.344   5.468 -0.0776 -0.1723 -0.2230
23377W        W40225   0.968   9.634   1.493  0.2901  0.1112 -0.0017
23378W        W40226   1.917  11.478  15.955  0.0326 -0.0091  0.3246
23379W        W40227  17.262   5.874   4.090  0.1314 -0.2140 -0.1783
23380W        W40228   5.156   6.900  15.804 -0.1646  0.0250 -0.1199
23381W        W40229  18.045  16.438   5.346  0.0690 -0.0734 -0.0295
23382W        W40230  17.945   9.378   1.908  0.2388  0.3978  0.0369
23383W        W40231  14.376   1.614  12.017 -0.0533 -0.1222  0.0953
23384W        W40232   3.038   9.283  11.271 -0.1833 -0.1191 -0.1059
23385W        W40233  10.789   6.444  12.912  0.0965  0.0463 -0.1032
23386W        W40234  17.293  14.817  12.044  0.3251  0.0736 -0.0868
23387W        W40235   6.170   1.852   2.862 -0.2255  0.0353  0.1105
23388W        W40236  15.413  12.721   2.259 -0.1581  0.0825  0.0945
23389W        W40237   1.572   0.712   1.657 -0.0848 -0.0185  0.0162
23390W        W40238   5.063   0.655   5.471  0.3172  0.2906 -0.2507
23391W        W40239   0.221  14.994  11.226 -0.0582  0.0973 -0.2402
23392W        W40240  15.534  16.247  15.016 -0.1792  0.0113 -0.0505
23393W        W40241  17.697  17.084   2.080 -0.0172 -0.0958 -0.0845
23394W        W40242  16.284   8.622  13.445  0.0395  0.2222  0.0113
23395W        W40243  17.470   6.974   3.243  0.0154  0.0391  0.1621
23396W        W40244  10.346  15.371   2.987  0.1181 -0.1801  0.0130
23397W        W40245  10.755   6.591   2.010 -0.1926  0.0322  0.3366
23398W        W40246  12.383   0.882   0.188 -0.0092 -0.1434  0.1190
23399W        W40247   4.356  12.119   0.799  0.3860  0.0336  0.2490
23400W        W40248  17.770  16.258  12.374  0.0027 -0.3084  0.0804
23401W        W40249   6.389   1.554  15.443  0.1554  0.4026 -0.1525
23402W        W40250  10.426   2.581   1.728 -0.1470 -0.0923  0.1395
23403W        W40251   7.451   8.615   1.527 -0.1164  0.3978 -0.0551
23404W        W40252  15.204   9.158   2.362  0.1677 -0.0227 -0.2735
23405W        W40253   3.006   3.067  11.403  0.0679  0.1935  0.2391
23406W        W40254  12.986   4.993  14.409 -0.0872  0.0212 -0.1135
23407W        W40255  10.307   4.180   1.781 -0.2499  0.2560  0.0059
23408W        W40256   7.692   2.367   2.936  0.2666  0.1114  0.0488
23409W        W40257  16.223  17.048  12.142  0.0086  0.2544 -0.1364
23410W        W40258  16.319   2.551  13.726  0.1044 -0.1477 -0.3021
23411W        W40259  13.442  15.681   0.618  0.3077 -0.1038  0.2504
23412W        W40260   3.384   0.387   1.395  0.0314 -0.1871  0.2087
23413W        W40261  14.139  14.182  14.021 -0.2249  0.0216 -0.1430
23414W        W40262   7.408  16.181  11.635  0.1662  0.2035 -0.1866
23415W        W40263  11.804   7.211  13.393  0.1967 -0.1666 -0.1251
23416W        W40264   1.306   7.315   1.232  0.2779 -0.1177 -0.0322
23417W        W40265   6.668   9.158   0.393  0.2566 -0.1908 -0.0856
23418W        W40266  12.616  17.686  11.836  0.0242 -0.0016 -0.4300
23419W        W40267   1.785   3.995  14.105 -0.2277 -0.1116  0.1231
23420W        W40268   3.736  16.675  16.133 -0.3110  0.0610  0.1109
23421W        W40269  17.775   7.630  12.325 -0.0198  0.0163  0.3125
23422W        W40270  10.749   7.667   4.101  0.2631  0.0635 -0.0951
23423W        W40271  12.872   4.902   2.975  0.0795 -0.3509 -0.0672
23424W        W40272   6.076   5.899  15.217 -0.0467 -0.1347 -0.0406
23425W        W40273   9.010  16.569   5.385 -0.1753  0.1568  0.1949
23426W        W40274  16.289   8.179   5.651  0.1726 -0.2923  0.0104
23427W        W40275   6.398   1.694   0.131  0.2081 -0.2157 -0.1653
23428W        W40276  15.879  16.511   0.303 -0.2478  0.1829 -0.1385
23429W        W40277  12.980   9.345  14.362  0.1438 -0.2418  0.0822
23430W        W40278  17.532  12.855  15.607  0.0078 -0.0050 -0.0514
23431W        W40279   8.755   9.130   4.135 -0.1203  0.1675 -0.3962
23432W        W40280   8.566   8.792   5.566  0.0402 -0.1756  0.1898
23433W        W40281   5.462  16.308   2.121  0.2414 -0.0045 -0.1140
23434W        W40282  14.453  14.706   3.441  0.0949  0.1804  0.1881
23435W        W40283   0.068  17.870  13.445  0.2074 -0.1964  0.1451
23436W        W40284  17.257  10.075   4.298  0.4971  0.0526  0.1251
23437W        W40285   7.312  15.673  11.537 -0.0833 -0.0157  0.0575
23438W        W40286   2.625  13.070   3.122 -0.4992  0.0608  0.0285
23439W        W40287   6.527   7.954  13.162  0.0243  0.0136  0.0505
23440W        W40288  11.074  16.045  12.482  0.1653 -0.0256  0.3172
23441W        W40289  16.962   9.085   0.471 -0.0691  0.1341 -0.1672
23442W        W40290  13.172  10.685   5.360 -0.0028  0.3595 -0.0708
23443W        W40291  17.019   3.726  15.496 -0.1309  0.5437  0.0430
23444W        W40292   5.296   5.795   1.966  0.2600  0.2156  0.0130
23445W        W40293   4.210   5.399  14.591  0.4061 -0.1849 -0.0089
23446W        W40294  11.517   1.237  12.960  0.1218 -0.0155 -0.3642
23447W        W40295  11.403   4.934   0.582  0.0846  0.0281 -0.0149
23448W        W40296  15.351   3.506   2.648 -0.0077  0.0797  0.3716
23449W        W40297  15.916  13.624   3.213 -0.2775 -0.1702 -0.1804
23450W        W40298  10.562   5.117   1.692  0.1036 -0.0014 -0.0390
23451W        W40299   9.172   5.453   0.661  0.1290 -0.1730  0.3471
23452W        W40300   6.001   4.797  15.052  0.2234 -0.1370  0.1635
23453W        W40301   1.504   4.554   1.598  0.4593  0.0465  0.1914
23454W        W40302  13.501   4.793   3.515  0.0362  0.1215 -0.0814
23455W        W40303  14.148  11.515  13.656 -0.1714 -0.1573  0.0783
23456W        W40304   8.359  13.901   4.572  0.2134  0.1728 -0.0471
23457W        W40305   2.362  17.382  12.216 -0.1567  0.0722 -0.1485
23458W        W40306   0.150   5.101  15.728 -0.3430 -0.1026 -0.0260
23459W        W40307   5.323   5.227   3.015 -0.2177  0.0735  0.1802
23460W        W40308   6.604  11.196  14.883  0.0960 -0.2946  0.2767
23461W        W40309   3.216   3.009   5.481 -0.2325 -0.2020 -0.3348
23462W        W40310  16.470   0.268   0.635  0.0774 -0.0117 -0.1336
23463W        W40311   5.682  12.786  16.111  0.0568 -0.1331 -0.1400
23464W        W40312   9.734   8.712   4.025 -0.1597 -0.2007  0.1980
23465W        W40313  11.202  17.514   1.762  0.1409 -0.2429 -0.2083
23466W        W40314   6.044   2.740   2.693 -0.1070  0.0158  0.0786
23467W        W40315  13.470  10.570   4.337  0.1732 -0.0683  0.5546
23468W        W40316   0.912  13.200  13.266  0.0776  0.1607 -0.4516
23469W        W40317   8.160   1.456   5.182 -0.1174  0.2089 -0.2420
23470W        W40318   1.770   9.418  11.743 -0.3751  0.0024  0.1022
23471W        W40319  12.856   2.623  12.074  0.1183  0.2619  0.1877
23472W        W40320   9.545   3.276   0.229  0.0983  0.1872  0.0254
23473W        W40321   3.965   6.749   2.171  0.2858 -0.1939  0.0332
23474W        W40322   7.680   2.618  11.058 -0.0744  0.0723 -0.1924
23475W        W40323  12.277  17.988   4.476 -0.0889 -0.1513  0.2366
23476W        W40324   5.082  11.055  10.273  0.2427 -0.1931  0.1281
23477W        W40325   5.477   6.588  11.728  0.0028 -0.1001 -0.1477
23478W        W40326   5.829   8.850  12.500 -0.2909 -0.0646 -0.1968
23479W        W40327   7.754   4.706   2.263 -0.0013  0.0028  0.1552
23480W        W40328   2.914   0.571   1.706  0.1020  0.0781 -0.0849
23481W        W40329   1.869  13.428  12.679  0.1030  0.0230 -0.1594
23482W        W40330   7.588   0.525   1.293  0.0420 -0.1903  0.1481
23483W        W40331   1.106   1.589   4.768 -0.0361 -0.2624 -0.2257
23484W        W40332   6.585   3.386   2.262 -0.1624  0.1495  0.0004
23485W        W40333   3.955  14.249   1.276 -0.1989  0.1323 -0.3533
23486W        W40334   5.402   1.860   1.265 -0.0094 -0.0849  0.0445
23487W        W40335  11.825  17.053  15.768  0.1737 -0.0163  0.0659
23488W        W40336   6.659  16.767   5.040  0.2659 -0.1743  0.1521
23489W        W40337  15.505   7.789  16.258  0.0253  0.1090  0.1667
23490W        W40338   4.675  12.797  12.119 -0.2068  0.3348  0.2167
23491W        W40339   3.602   5.144  12.182 -0.2776 -0.3097 -0.0231
23492W        W40340   6.251  17.489   1.452 -0.1625 -0.1160 -0.0205
23493W        W40341  14.378  12.930   0.589 -0.1630  0.1394  0.1527
23494W        W40342   4.488   7.299  12.812  0.1335 -0.0317  0.4071
23495W        W40343  10.710  15.263   1.564 -0.1744  0.1076  0.0026
23496W        W40344  14.761  15.229  12.609  0.2116  0.3601 -0.1550
23497W        W40345   6.854   2.495   1.272 -0.1446 -0.2706  0.1445
23498W        W40346  15.387  10.924   3.035 -0.0064 -0.0402 -0.0922
23499W        W40347   6.877  17.655   4.664 -0.1405 -0.1137 -0.3093
23500W        W40348   4.243  13.937  13.610  0.3300 -0.2851 -0.0826
23501W        W40349  10.451  11.930   5.600 -0.1081 -0.1181 -0.3094
23502W        W40350   4.927  17.997   3.847 -0.0381 -0.2560  0.0421
23503W        W40351   6.556  11.531  14.516  0.1790  0.0611 -0.2511
23504W        W40352   9.957   7.177  13.377  0.0372 -0.2690  0.1446
23505W        W40353   7.122   9.747  14.452 -0.1675  0.1207 -0.1596
23506W        W40354  16.861  17.581  16.102  0.5159 -0.0822  0.1725
23507W        W40355  12.028   1.334   0.120  0.0407  0.0825 -0.1528
23508W        W40356   6.539  14.171   4.805 -0.1114  0.2176 -0.1943
23509W        W40357   2.646   9.091   4.719  0.1288 -0.1899 -0.1104
23510W        W40358   6.826  15.966  11.699 -0.1300 -0.2527  0.4826
23511W        W40359   1.617   0.740   2.977 -0.2814 -0.0624  0.1321
23512W        W40360   8.932  10.206  16.243  0.1262 -0.0155  0.0825
23513W        W40361   8.593   8.535  12.356 -0.1812 -0.1959 -0.1497
23514W        W40362   8.082   2.741  14.742 -0.0757  0.1030  0.0413
23515W        W40363   4.510   6.045  12.205 -0.1772  0.3262  0.0765
23516W        W40364  12.518   3.822  12.450 -0.0929  0.0393  0.1674
23517W        W40365   5.522   2.385   1.797  0.2567  0.1803 -0.2287
23518W        W40366  13.877  14.297   4.201 -0.1292  0.2460 -0.0675
23519W        W40367   7.073   5.654   2.011  0.0656 -0.0694 -0.0136
23520W        W40368  13.214   4.975  15.642 -0.0456  0.1511  0.1095
23521W        W40369  14.883   6.887   3.662 -0.0355 -0.0880  0.1903
23522W        W40370  17.895  17.444   2.976  0.4410 -0.1523  0.1326
23523W        W40371  12.758   6.949   1.056 -0.4247 -0.0810 -0.2317
23524W        W40372   9.278  18.045   5.200 -0.0491 -0.3174 -0.2509
23525W        W40373  15.692   1.382   4.926 -0.0013 -0.2290  0.0325
23526W        W40374   3.115  11.257  10.893  0.0631  0.1330 -0.2372
23527W        W40375  13.102   0.448  13.705  0.1043  0.1751 -0.1248
23528W        W40376  12.204   9.303  12.070 -0.0767  0.2794 -0.2776
23529W        W40377   5.284   2.932  12.613 -0.0109 -0.0199  0.0148
23530W        W40378   2.325   9.098   0.256 -0.0452  0.1361 -0.2156
23531W        W40379   2.748   1.846   4.948  0.2221  0.0625 -0.0520
23532W        W40380   0.311   8.615   4.501  0.1134  0.2385 -0.1816
23533W        W40381   5.065  12.837  14.080  0.0938 -0.1927  0.0178
23534W        W40382   2.476   7.111  15.814  0.1126  0.2441 -0.0209
23535W        W40383   7.049  10.486   1.645  0.4294 -0.1967  0.1331
23536W        W40384  12.418  13.931   1.885 -0.1617  0.0520  0.0115
23537W        W40385   8.136   8.867   4.881  0.0680  0.1479  0.1187
23538W        W40386  11.991  15.033   2.698 -0.1524  0.0550  0.1796
23539W        W40387  13.752  10.192  13.028 -0.0512  0.0034 -0.3466
23540W        W40388  11.192   6.166  12.842  0.3239  0.0673 -0.1207
23541W        W40389  12.209  14.065  14.922 -0.1798 -0.2092 -0.1566
23542W        W40390   6.939   7.969   1.944  0.1485 -0.0552 -0.1708
23543W        W40391   3.373   5.828   4.181  0.3516  0.1153  0.0937
23544W        W40392   5.358  17.168  14.060 -0.2195 -0.1493  0.0122
23545W        W40393   6.149   8.488   2.625 -0.2483  0.0842  0.1712
23546W        W40394   7.144  15.189  11.114  0.2587 -0.0395  0.0731
23547W        W40395  11.045   3.146   4.454 -0.2232  0.1268 -0.1993
23548W        W40396   7.940  17.643  16.187  0.2677  0.1208 -0.1881
23549W        W40397  15.727  11.790   2.279  0.3125  0.0316 -0.2645
23550W        W40398  16.912   9.790   5.074 -0.2360  0.0582 -0.1759
23551W        W40399   8.099   1.860   1.931  0.1166  0.0928  0.3666
23552W        W40400  17.535  11.059  10.933  0.1787  0.1112  0.2885
23553W        W40401   0.537   5.915  14.708 -0.0235  0.0169 -0.0031
23554W        W40402   6.749   8.995  11.501 -0.1317  0.2822  0.3134
23555W        W40403   1.049   9.904  13.561 -0.1372  0.0584  0.0332
23556W        W40404   2.338   2.297  11.994  0.1679 -0.1573  0.0282
23557W        W40405  12.318  17.938   3.159 -0.1691  0.0167 -0.0378
23558W        W40406   2.003   8.888  10.521 -0.4239  0.1930 -0.1013
23559W        W40407   1.916  15.048  11.580  0.1860 -0.1002  0.1078
23560W        W40408   9.628   4.575   1.389  0.0229  0.2847 -0.1373
23561W        W40409  13.617   8.580  10.884 -0.2212  0.3219  0.0952
23562W        W40410   4.814   4.829  13.090 -0.0744 -0.0584 -0.2360
23563W        W40411  16.693  13.048  10.872 -0.1974  0.1311 -0.3731
23564W        W40412   1.863  15.599   2.884  0.1628 -0.1098 -0.1361
23565W        W40413  14.353   2.452  13.457  0.2090  0.2380 -0.2170
23566W        W40414   6.606   6.849  11.662  0.2966 -0.2945 -0.1935
23567W        W40415   5.498   2.757  11.707 -0.2257  0.2911  0.0200
23568W        W40416  16.777  12.289  15.636 -0.0727 -0.0275 -0.1633
23569W        W40417  13.171  12.306   3.534 -0.0696 -0.1168 -0.0584
23570W        W40418   4.785   8.320  14.332 -0.1458 -0.0008 -0.1863
23571W        W40419  15.327  15.759   0.465  0.0177 -0.1575  0.1977
23572W        W40420  16.293   9.979   0.759 -0.0572 -0.1826  0.2064
23573W        W40421   9.868   6.827  14.664  0.0116  0.3662 -0.1202
23574W        W40422  11.049   6.148   5.301 -0.0917  0.2943  0.0272
23575W        W40423  12.422   3.737  11.942 -0.2685 -0.0291  0.1759
23576W        W40424   7.830   3.065   2.445 -0.1802 -0.2019 -0.1244
23577W        W40425   1.112  10.915   0.024  0.2351 -0.2154  0.0932
23578W        W40426   0.496  13.322  15.057  0.2114 -0.2652  0.0277
23579W        W40427   5.449   5.585   4.532  0.1532 -0.3583  0.1950
23580W        W40428   5.817   3.983  15.062  0.0885  0.0716  0.0410
23581W        W40429  12.335   2.601   4.191 -0.3621 -0.1626 -0.1340
23582W        W40430  16.797   2.010  15.083 -0.1429 -0.0942 -0.1088
23583W        W40431   6.947  15.885   1.121 -0.0036  0.2430 -0.0665
23584W        W40432  12.449   9.279  15.923 -0.0500 -0.1187  0.1298
23585W        W40433   1.011  11.801  15.716 -0.0821  0.1004  0.2990
23586W        W40434  10.193   2.660   2.778  0.2274  0.2472  0.1865
23587W        W40435  16.840   6.492  14.260  0.1036  0.1845  0.0994
23588W        W40436  10.356   5.870   2.974 -0.2904 -0.0792 -0.0621
23589W        W40437   3.729   9.267   4.780 -0.0301  0.1921 -0.2840
23590W        W40438   0.016   3.881   3.721 -0.1336  0.1565  0.1300
23591W        W40439   6.006  10.451   0.661 -0.0752  0.0483  0.0013
23592W        W40440  11.207  15.137  14.643  0.0297  0.0022 -0.1894
23593W        W40441  16.593   6.541   4.145 -0.1463  0.1651 -0.0620
23594W        W40442   2.871   5.228   4.571  0.1518 -0.2793 -0.1644
23595W        W40443   5.639  16.508   5.198 -0.1897 -0.0216  0.0583
23596W        W40444  16.030   6.212  13.541 -0.1284  0.3216 -0.0185
23597W        W40445   8.367   4.354  14.322 -0.3776 -0.0208 -0.1334
23598W        W40446  12.598  13.627   3.404  0.1909  0.3450 -0.2187
23599W        W40447   9.762  15.711   4.519  0.1537 -0.0434 -0.0782
23600W        W40448  15.544   6.136   6.011  0.0062  0.1008 -0.1945
23601W        W40449  11.171  15.955   2.711 -0.0865  0.1103 -0.2740
23602W        W40450  10.454   6.115   0.239  0.1170 -0.0454  0.1788
23603W        W40451   9.289   1.716  13.758  0.1683 -0.0774 -0.0266
23604W        W40452  13.481   3.375  13.503  0.2001  0.0964  0.1102
23605W        W40453  13.360   5.791   5.156  0.0035  0.3890  0.2653
23606W        W40454   6.613  12.922  10.796  0.2513 -0.1827 -0.1044
23607W        W40455  14.669   6.675   1.751 -0.0865  0.2254  0.0336
23608W        W40456  14.794  12.057   3.432  0.0877  0.2665  0.3351
23609W        W40457   9.813  11.568   3.120  0.2277  0.0360  0.0159
23610W        W40458   3.995  15.078  15.592  0.1652 -0.0767  0.0093
23611W        W40459  14.080   2.743   2.938 -0.0119  0.0431  0.1792
23612W        W40460   8.846   1.488   1.463  0.3016 -0.2348  0.1486
23613W        W40461  11.786  17.544  11.613  0.0000  0.2410 -0.2549
23614W        W40462  12.628   7.219  15.705  0.0062 -0.3015 -0.0454
23615W        W40463   2.422  17.928   3.775 -0.2388  0.0130 -0.2520
23616W        W40464  14.010   4.284  14.813 -0.1582 -0.1601  0.2697
23617W        W40465   1.214   8.450  15.585 -0.1394  0.1548 -0.0532
23618W        W40466   8.018   1.876  12.402  0.1529  0.0398 -0.1686
23619W        W40467   3.188   3.499  14.736 -0.3149  0.0389  0.0233
23620W        W40468   9.616  16.153   4.114  0.0614  0.1408  0.0408
23621W        W40469  12.108   2.839   0.139  0.4250  0.2896 -0.1751
23622W        W40470   5.171   5.108  15.678  0.1854  0.2699  0.3285
23623W        W40471  13.483   4.091   3.373 -0.0546 -0.2402 -0.0779
23624W        W40472   2.102  15.066   3.675  0.1481 -0.1644 -0.1323
23625W        W40473   3.452  11.912   2.983 -0.1106  0.0975 -0.1587
23626W        W40474   5.630  17.747   4.240  0.2877 -0.1162  0.0883
23627W        W40475   3.144   5.652   5.356 -0.1581 -0.0501 -0.1996
23628W        W40476   2.663   8.903   0.730  0.0506  0.0603 -0.2952
23629W        W40477  12.473   1.972  14.269  0.1779  0.1401  0.2808
23630W        W40478   5.277  15.165  13.708  0.1156  0.1646 -0.1936
23631W        W40479  15.147   5.504  11.155 -0.2813  0.0938 -0.1547
23632W        W40480  17.811   4.775  15.904 -0.3217  0.2324  0.1291
23633W        W40481   6.261  11.986  11.139 -0.0365 -0.0380  0.0440
23634W        W40482   8.596  10.933   2.392  0.1052  0.2303  0.2890
23635W        W40483   1.063   3.691  15.083  0.0818  0.3097  0.0513
23636W        W40484  11.587  16.995  12.210 -0.0182  0.1105  0.0777
23637W        W40485  14.505   8.094   4.180 -0.1795 -0.2153  0.0835
23638W        W40486   5.506   1.507   4.360 -0.2273  0.2048  0.1500
23639W        W40487  11.239  16.235   5.297  0.2467  0.0316  0.1288
23640W        W40488   2.189  11.680   2.244  0.2616  0.0597 -0.0092
23641W        W40489   5.057   0.098  13.079 -0.1841  0.0484 -0.0071
23642W        W40490  11.632  15.334   4.491  0.0649 -0.0308 -0.1538
23643W        W40491  16.055   1.205  13.772 -0.1377 -0.0728  0.2137
23644W        W40492   8.236   5.642  14.603 -0.1394  0.0803  0.0724
23645W        W40493  12.415  13.371   2.086  0.1518  0.0947 -0.1574
23646W        W40494  14.140   5.966  14.127  0.0919 -0.1177  0.0280
23647W        W40495  13.858  17.708   5.905  0.0770  0.1190  0.2287
23648W        W40496  13.721   6.801   4.438 -0.0696 -0.2632 -0.0263
23649W        W40497  14.003   2.143   2.350  0.0854 -0.0083  0.2514
23650W        W40498   6.424  14.574   3.019  0.0837 -0.0677  0.2499
23651W        W40499  17.105   2.065  11.688 -0.0447  0.1446  0.1893
23652W        W40500  17.786  13.714   4.171  0.2196 -0.1119  0.1092
23653W        W40501  11.490  14.628   1.270  0.3412  0.0344  0.1196
23654W        W40502   4.520  14.239   4.249 -0.0006 -0.2838 -0.0213
23655W        W40503  13.501  13.853   4.773 -0.0078 -0.0924 -0.0628
23656W        W40504   9.854   6.387  11.892 -0.2025 -0.0812 -0.1728
23657W        W40505   5.377   0.554  13.551  0.0844 -0.2533 -0.0120
23658W        W40506  10.423   8.629  13.932  0.0536 -0.0464  0.2307
23659W        W40507  10.096  14.544   4.874 -0.2189  0.2939 -0.2594
23660W        W40508  12.838   3.074   0.712  0.0742  0.1918  0.0128
23661W        W40509  11.605  16.140  15.850  0.0495 -0.0664 -0.1522
23662W        W40510  14.127  14.355  11.862  0.1001 -0.2964 -0.0801
23663W        W40511   3.302  10.838   4.686 -0.0493 -0.1145 -0.1925
23664W        W40512  14.935  16.892   1.450  0.0691  0.0294  0.1194
23665W        W40513   7.921  15.062  13.536 -0.2165 -0.2731  0.0140
23666W        W40514  12.422   0.739   1.541  0.1051  0.0873  0.1652
23667W        W40515   6.036  14.148   2.412  0.0928  0.0641  0.0693
23668W        W40516   6.803   9.705   4.991 -0.4356 -0.0516 -0.0807
23669W        W40517   8.758  10.957  12.738  0.1773  0.2072 -0.1290
23670W        W40518  14.649  17.846   5.436 -0.0412 -0.4448  0.1076
23671W        W40519  13.291   4.610  13.297 -0.0934  0.2210 -0.1175
23672W        W40520   7.269   9.718  15.113  0.1603 -0.2850 -0.0806
23673W        W40521   3.142   5.229  13.200  0.2987  0.0245  0.2132
23674W        W40522   8.794   5.481  12.811  0.3033  0.1257 -0.2941
23675W        W40523  17.979  17.375  14.272 -0.1647 -0.1898 -0.1354
23676W        W40524  17.399   3.495   3.462 -0.1664  0.1120 -0.0819
23677W        W40525  10.094   9.188  12.665  0.0091  0.1885 -0.1556
23678W        W40526   0.622  11.485  15.709 -0.1532 -0.1154  0.1742
23679W        W40527  11.398   1.309  11.570 -0.2439  0.0001 -0.2611
23680W        W40528   7.036  17.222  14.546  0.0850  0.3125  0.0324
23681W        W40529   0.653  10.064  13.293  0.0981 -0.0365 -0.0533
23682W        W40530   1.924  14.200  11.223 -0.0993 -0.3672  0.1696
23683W        W40531   8.173   3.968   2.642  0.0265  0.0943  0.3586
23684W        W40532  11.073  12.687  12.004 -0.0567 -0.1276  0.0375
23685W        W40533   6.063  10.670   3.189  0.0171 -0.0964 -0.1072
23686W        W40534  17.801   4.944   1.727  0.0361  0.0978 -0.1082
23687W        W40535  10.263   5.217  14.301 -0.2495  0.1297 -0.1941
23688W        W40536   6.504  10.080   0.222  0.0046  0.1198 -0.0960
23689W        W40537  14.057  10.151   3.794 -0.0653 -0.2131  0.0147
23690W        W40538   0.758   4.579  10.784  0.2571  0.3271 -0.1217
23691W        W40539   7.970  17.258  13.421 -0.3185 -0.1910 -0.1143
23692W        W40540  14.763   0.897  13.241  0.2296  0.0569 -0.0895
23693W        W40541   4.792   1.800   0.639 -0.1415  0.3957 -0.2776
23694W        W40542   2.546  10.291  12.220  0.2872 -0.0380 -0.0064
23695W        W40543   4.268  17.067  12.867  0.0280 -0.2948 -0.2582
23696W        W40544   8.190  15.913   1.743  0.0729  0.1767  0.1825
23697W        W40545   7.463   0.769   3.205 -0.0795  0.1350 -0.2923
23698W        W40546   2.640   3.870   1.853 -0.1224 -0.1691  0.1155
23699W        W40547   4.212  15.636  14.569 -0.0131  0.0227 -0.2165
23700W        W40548   4.095  12.967   0.399  0.0090  0.2701  0.2384
23701W        W40549   8.745  10.870   3.451  0.0558  0.3414  0.1019
23702W        W40550   3.279   4.373  14.993  0.1920  0.0664 -0.4286
23703W        W40551  17.658  10.399  11.596 -0.0838  0.1741  0.1086
23704W        W40552  14.761   3.358   1.904 -0.1365  0.0393 -0.0279
23705W        W40553  12.373   0.424  12.392  0.3736  0.1228 -0.2265
23706W        W40554   3.164  12.842  11.257 -0.1341 -0.0879 -0.0329
23707W        W40555   9.343  16.461  15.461  0.2228 -0.0752 -0.0328
23708W        W40556  15.577   7.389   0.952  0.2275  0.2205  0.0543
23709W        W40557  17.628   1.283  13.922  0.3920 -0.1878 -0.2763
23710W        W40558  15.239  15.654  16.213 -0.1674  0.1956  0.0078
23711W        W40559   8.668   1.476  15.048 -0.1052 -0.1781  0.0921
23712W        W40560   9.387  12.766   3.112 -0.1488 -0.4410 -0.1591
23713W        W40561   7.993   4.123  15.868  0.0357 -0.1285  0.2577
23714W        W40562  16.076   9.295  15.853 -0.0317  0.3307  0.1104
23715W        W40563  10.968   7.865  12.562 -0.0801  0.0858  0.1385
23716W        W40564  16.621   9.912   0.260 -0.0791 -0.0843  0.1591
23717W        W40565   9.209  17.157   0.271  0.3151 -0.3782 -0.0864
23718W        W40566  16.455   1.302  16.030 -0.1714  0.1136 -0.0582
23719W        W40567   9.714  13.990  11.899 -0.1444  0.1318  0.1937
23720W        W40568  11.219  16.256  16.183 -0.0426 -0.0474  0.1403
23721W        W40569  12.085   2.461  12.863  0.1821  0.2950 -0.1918
23722W        W40570  16.296   5.180  10.084  0.2713  0.1109 -0.0906
23723W        W40571   1.010  15.117   1.438 -0.0236  0.0159  0.0239
23724W        W40572  11.848  15.388   3.616 -0.1846  0.2441  0.2583
23725W        W40573  16.269  11.814   1.365 -0.0214  0.1137 -0.1294
23726W        W40574  15.033  15.584  13.506 -0.0469  0.0010  0.1789
23727W        W40575   1.470   5.450   4.314 -0.0508 -0.0334 -0.1833
23728W        W40576   4.259   7.762  12.766  0.1309 -0.0546 -0.2264
23729W        W40577  10.967   9.450   2.473 -0.0477 -0.3041 -0.0535
23730W        W40578   6.545   1.562   5.162 -0.2437 -0.2603 -0.0413
23731W        W40579   0.793  10.150   3.741  0.0171  0.0908  0.2278
23732W        W40580   1.950   0.360   2.313 -0.1220 -0.1909 -0.1625
23733W        W40581  10.064   6.769  13.061 -0.4016 -0.1851  0.0676
23734W        W40582   5.980  16.819   2.488  0.1139  0.0810 -0.1166
23735W        W40583   3.355   2.107  14.382  0.0802 -0.3219 -0.2314
23736W        W40584  12.783  13.307   1.774 -0.3350 -0.1312  0.2379
23737W        W40585   3.615   5.712  13.117  0.2414  0.1925 -0.1673
23738W        W40586   6.378  11.267   2.419  0.2135 -0.2647  0.1402
23739W        W40587   8.188   2.595   2.402 -0.3179 -0.0380 -0.1275
23740W        W40588  12.232  13.443  13.116 -0.1774 -0.1187 -0.2077
23741W        W40589  10.218  15.116   1.486 -0.3082 -0.2811 -0.0541
23742W        W40590   5.017   9.194   2.115  0.3550  0.1059 -0.3942
23743W        W40591  12.179  18.038  12.650 -0.0076 -0.1066  0.0080
23744W        W40592   9.531  11.362   3.824  0.2805 -0.1305  0.0479
23745W        W40593  15.100   1.588   3.679  0.0267  0.2052  0.1526
23746W        W40594   2.195   3.550   2.373 -0.0141 -0.0420 -0.0524
23747W        W40595  17.930  10.862   4.547 -0.0137  0.0568  0.0500
23748W        W40596   4.325   4.366   4.548  0.2365  0.2190 -0.4653
23749W        W40597  17.373   4.528  11.995  0.3181 -0.2162 -0.1343
23750W        W40598   9.358   4.322   4.666  0.2621  0.4562 -0.0914
23751W        W40599  11.311  12.889   1.965 -0.2206  0.3255 -0.1749
23752W        W40600   7.357   4.704   5.949  0.0550  0.1213  0.0010
23753W        W40601   7.559  12.783   3.409 -0.1151 -0.0151  0.0417
23754W        W40602   7.704   8.460  14.126  0.0568 -0.0904 -0.1651
23755W        W40603  11.529  13.492  14.828 -0.2636 -0.0413 -0.1543
23756W        W40604  15.209  14.284   3.142 -0.1379  0.0200 -0.1825
23757W        W40605  14.701  16.760  12.795  0.1658 -0.2197 -0.1747
23758W        W40606  12.789   1.176   2.525  0.0306 -0.0070  0.0622
23759W        W40607   8.064   3.946  11.328 -0.0901  0.1368  0.0828
23760W        W40608  10.511   7.217   3.921  0.1984  0.0648  0.0667
23761W        W40609  15.564   7.182  12.194 -0.1376 -0.0491  0.0524
23762W        W40610  11.440  13.878   3.251  0.0080  0.0508 -0.1320
23763W        W40611  15.942  17.885   2.520 -0.0117 -0.1471 -0.5046
23764W        W40612  10.834  13.086  14.907 -0.1260  0.3337 -0.1026
23765W        W40613   8.172  14.323  14.628  0.2372 -0.3974 -0.0636
23766W        W40614   6.061   5.903  12.313 -0.0409 -0.1104  0.0717
23767W        W40615   6.341  15.498  11.064  0.1367  0.0071  0.3546
23768W        W40616  17.488  16.067  15.382  0.2459 -0.3614  0.0929
23769W        W40617   9.523  14.764  11.609  0.1858 -0.2077  0.0514
23770W        W40618  15.420  10.483  12.408 -0.0987 -0.0000 -0.1179
23771W        W40619   8.033   7.485   2.194 -0.2160  0.1407 -0.3890
23772W        W40620   5.126   6.422  13.818  0.5045  0.0255 -0.1856
23773W        W40621  17.690   2.226   2.669  0.1255  0.0987  0.2213
23774W        W40622   1.495  11.316  16.130 -0.1505 -0.0465  0.2107
23775W        W40623   9.878  16.693  13.228  0.1829 -0.2127  0.0371
23776W        W40624   8.376   4.414   2.770  0.0303 -0.0299  0.2198
23777W        W40625   4.871  15.599   4.355  0.1224 -0.0391  0.1197
23778W        W40626   4.551   0.757  15.102  0.1182 -0.2829 -0.0512
23779W        W40627  13.919  13.699  10.411 -0.2226 -0.1654 -0.2034
23780W        W40628   4.319   4.602   1.439  0.0251 -0.0863  0.2218
23781W        W40629  11.884   3.011  15.212  0.0061 -0.1409  0.2731
23782W        W40630  15.980  15.309  14.199  0.0072 -0.2822 -0.3586
23783W        W40631   0.121   7.254  15.497  0.0180 -0.0766  0.1930
23784W        W40632   1.358   3.122   3.466 -0.2034 -0.0928 -0.1647
23785W        W40633   4.637  11.319  14.032 -0.3769 -0.1521  0.0097
23786W        W40634  17.974   7.635   3.862 -0.0789  0.3177  0.0239
23787W        W40635  14.322  11.152  12.356  0.2639 -0.0510 -0.0876
23788W        W40636   7.689  14.092   4.257  0.0895 -0.1956  0.0581
23789W        W40637   6.671   3.493   2.937  0.2267 -0.2024  0.2541
23790W        W40638  12.207   1.479  11.281 -0.0587 -0.5467 -0.2081
23791W        W40639   8.006   5.380   1.482  0.3059 -0.0645 -0.2559
23792W        W40640  17.176  11.778  14.379  0.0825  0.0838  0.0233
23793W        W40641  14.412   7.631  12.699  0.0015  0.4346 -0.2199
23794W        W40642  12.782  10.972  11.925  0.1111 -0.2035  0.1443
23795W        W40643   2.546  13.865   3.717  0.2354  0.0877  0.0449
23796W        W40644  10.518   3.874   1.394 -0.3044 -0.1796  0.0334
23797W        W40645   7.422  17.207   4.648 -0.0417 -0.2746  0.0022
23798W        W40646   6.011   1.403   1.527  0.1121  0.0283 -0.3052
23799W        W40647   5.255   0.349  12.238  0.1029  0.1731 -0.3232
23800W        W40648   3.632   2.800   3.978 -0.0364  0.1267 -0.0397
23801W        W40649  17.682  10.466  15.846 -0.2271  0.1336  0.0094
23802W        W40650  11.854  17.133   5.364 -0.0871  0.3156  0.2204
23803W        W40651   9.217  13.398   4.367  0.0380 -0.0221 -0.2800
23804W        W40652   3.910  16.959  15.717 -0.2373  0.0649  0.0348
23805W        W40653   0.636   1.170  14.904  0.2406 -0.1690 -0.1125
23806W        W40654  10.335   9.965  15.789 -0.1908 -0.1462 -0.2610
23807W        W40655  13.293   3.308   2.430 -0.0304  0.1054  0.0346
23808W        W40656   0.178   3.547  14.699  0.1003 -0.0170  0.2180
23809W        W40657   3.015   4.509  11.628 -0.4959  0.1411 -0.1624
23810W        W40658   4.720   6.452   5.515  0.3951 -0.4052 -0.1313
23811W        W40659   4.985  11.232  13.247 -0.2068  0.2754 -0.0853
23812W        W40660  10.403  11.842   4.155 -0.0027 -0.0521  0.0352
23813W        W40661  11.350   6.641   5.146  0.0542  0.1923  0.0589
23814W        W40662  16.884  17.016   4.610 -0.1287 -0.2071  0.0810
23815W        W40663  12.230   9.795  13.292  0.2238 -0.1822  0.2227
23816W        W40664   8.770   2.866   2.269  0.0904  0.1408  0.3307
23817W        W40665   3.351   8.081  15.968 -0.1508  0.1219 -0.1161
23818W        W40666   6.401   4.521  15.347 -0.2495  0.0201 -0.1689
23819W        W40667   2.761   5.772   1.266  0.1720  0.0826  0.0631
23820W        W40668  13.555   6.206  13.413  0.1376  0.1790 -0.2472
23821W        W40669   5.292   4.402  16.256 -0.0689 -0.2605 -0.2388
23822W        W40670  11.755  10.928  14.651  0.0724  0.0739  0.0996
23823W        W40671  12.163   8.250   1.021 -0.1985  0.1592  0.0335
23824W        W40672  11.066   0.545  14.550 -0.3758 -0.3513 -0.1846
23825W        W40673  13.981  14.492   3.613 -0.2537 -0.0066  0.1761
23826W        W40674  12.255   8.395   3.139 -0.0202 -0.0420  0.1749
23827W        W40675   5.185   8.449   0.186 -0.1188 -0.1542 -0.2458
23828W        W40676  15.814   7.530   1.784 -0.0043 -0.0293 -0.0686
23829W        W40677   6.901   8.922  12.267 -0.0215 -0.0254 -0.0711
23830W        W40678  14.346   4.476   5.158 -0.2934 -0.0187  0.0487
23831W        W40679   1.558   9.809   2.609 -0.1682 -0.2767 -0.0826
23832W        W40680   9.923   7.683  12.592 -0.1229  0.1185  0.1187
23833W        W40681   4.956   2.568   5.519  0.1374  0.2116  0.0847
23834W        W40682   6.984  11.127  13.101 -0.2279  0.1659  0.2233
23835W        W40683  15.647  17.600  12.350 -0.0021 -0.1506  0.0140
23836W        W40684   3.544  17.901  12.150 -0.1411 -0.1270  0.0843
23837W        W40685   1.226  16.767   3.808 -0.3551  0.1898  0.0843
23838W        W40686   7.816  15.413  16.033  0.4775 -0.2767 -0.3426
23839W        W40687   5.464   1.861   5.216 -0.1566 -0.2050 -0.1419
23840W        W40688   4.237  17.215  14.576  0.0000 -0.1453 -0.0501
23841W        W40689   8.348  12.928   3.054  0.1317 -0.1188  0.0587
23842W        W40690   8.763   0.803  14.291  0.0350 -0.0528  0.1883
23843W        W40691   1.078  10.841   2.819  0.1347  0.0058  0.2454
23844W        W40692  14.888   8.455  13.358 -0.0244 -0.1235  0.3225
23845W        W40693   2.971  17.829  15.845 -0.1349 -0.1720  0.1453
23846W        W40694   4.054   0.616   2.261  0.1508  0.4713 -0.0249
23847W        W40695  13.697   7.706   0.336  0.0233 -0.0029  0.1448
23848W        W40696  11.537   1.117  15.288  0.0822 -0.0106 -0.1438
23849W        W40697   7.722   7.376  16.200  0.1543 -0.2777  0.1358
23850W        W40698   5.025   6.491   4.600 -0.4352 -0.0368  0.1700
23851W        W40699  11.102  12.460   3.849  0.0860  0.1462  0.1464
23852W        W40700   9.672  17.826   4.433  0.0240 -0.0814  0.1888
23853W        W40701   9.429   5.252  13.301 -0.1763  0.2133 -0.0084
23854W        W40702  15.558   6.562  12.084 -0.2313  0.1835  0.2454
23855W        W40703  14.261  15.345   4.128  0.1929  0.2013  0.0315
23856W        W40704  10.837  14.767   5.537 -0.2315 -0.0067 -0.0264
23857W        W40705  16.622   1.728   2.935 -0.0113 -0.1960 -0.0140
23858W        W40706  11.445  15.867   0.167  0.4120 -0.3080 -0.1640
23859W        W40707  14.266  16.543   1.997  0.1548 -0.0720  0.0833
23860W        W40708   7.893  16.021   3.019 -0.3669  0.1924 -0.1414
23861W        W40709  11.220   0.498  11.518  0.3193 -0.0293  0.0226
23862W        W40710  16.581   8.326   1.398  0.0847 -0.2244  0.1101
23863W        W40711   4.804  12.618   2.329  0.1296  0.1523 -0.1335
23864W        W40712  14.549   8.023  15.401  0.2493 -0.0351 -0.1913
23865W        W40713  14.173   3.185  13.266  0.3653  0.0216  0.3463
23866W        W40714   7.992  12.963   3.554  0.0914 -0.0351  0.1028
23867W        W40715   6.703  14.329   1.242  0.0509 -0.0850  0.1620
23868W        W40716   8.353  12.073  13.568  0.0906 -0.0850  0.1198
23869W        W40717   9.053   5.195  12.395  0.2696  0.2493 -0.1829
23870W        W40718  16.730   6.503  12.442  0.3623 -0.0456  0.0346
23871W        W40719   6.615   6.770   2.824  0.0701 -0.2017 -0.0623
23872W        W40720   4.087  13.881  15.465  0.1525  0.1979  0.0190
23873W        W40721   9.401  14.870  11.124  0.0113  0.1529  0.1405
23874W        W40722   7.542  12.037  13.907 -0.4575 -0.2082  0.1935
23875W        W40723  13.732   6.290  15.156 -0.2378 -0.0024 -0.1352
23876W        W40724   4.132  15.022  12.717  0.1279 -0.2317  0.2271
23877W        W40725   6.408   2.222  14.076  0.0658  0.2475 -0.2645
23878W        W40726  12.452   4.645   3.784 -0.1000 -0.0747 -0.2575
23879W        W40727   4.874  14.393   1.762 -0.1107 -0.3240 -0.4153
23880W        W40728  12.979  15.958   1.403  0.0972  0.2434  0.3438
23881W        W40729   6.651   5.204  13.213  0.0327 -0.0916 -0.0489
23882W        W40730   2.465   3.914   2.872 -0.0300 -0.1990  0.1420
23883W        W40731   7.371   5.391   3.374 -0.0855  0.3524  0.0634
23884W        W40732   3.598   3.607   0.010  0.0279  0.1944  0.0123
23885W        W40733   2.315   7.095   2.682 -0.2561  0.1261  0.1388
23886W        W40734   6.922   3.910   5.321 -0.2470  0.2007  0.0726
23887W        W40735   3.001  14.839  14.924  0.2850  0.2627 -0.0420
23888W        W40736   0.611  11.232   3.515 -0.1224 -0.0336 -0.0438
23889W        W40737   9.181   9.134  15.659  0.2360  0.0121  0.1661
23890W        W40738   9.903  15.723   2.132  0.0118 -0.1632  0.0774
23891W        W40739   5.047   5.247   4.455 -0.2476 -0.2660  0.1098
23892W        W40740   1.839   7.779  16.057  0.0295 -0.0714 -0.2736
23893W        W40741  10.736   5.717  13.727  0.2073  0.2424  0.0482
23894W        W40742  10.553  12.523   1.030 -0.1846 -0.0921  0.2433
23895W        W40743   3.879   2.987  13.882 -0.1633  0.2120  0.0389
23896W        W40744   4.054  16.266   1.102 -0.4643  0.0885  0.1584
23897W        W40745  17.951  15.780   3.715  0.1830  0.2384 -0.1237
23898W        W40746  18.007   7.241   2.407  0.3128 -0.2954  0.0860
23899W        W40747   0.188   6.037   0.719 -0.0257 -0.2002  0.1137
23900W        W40748   1.291  13.952  13.457  0.3649 -0.2424 -0.2293
23901W        W40749   8.550   7.326  11.564  0.1596 -0.0824  0.0898
23902W        W40750   9.404  16.032  11.668  0.3123 -0.2116  0.3585
23903W        W40751  14.979   1.665   3.159 -0.2793 -0.1422  0.1274
23904W        W40752   7.665   1.015   1.263 -0.3197  0.0707 -0.5724
23905W        W40753  10.436  15.185   3.492  0.0054 -0.0223  0.0616
23906W        W40754   6.833  15.296  16.001 -0.0283 -0.0290  0.1348
23907W        W40755  14.312  13.009  12.460 -0.0940  0.0085  0.0752
23908W        W40756  15.690   4.430   3.452  0.0272  0.1466  0.4626
23909W        W40757   4.408  15.994  14.902  0.0001  0.3328  0.1782
23910W        W40758   8.881   8.510  11.105 -0.3481 -0.1684  0.2089
23911W        W40759   1.135   5.579   2.490 -0.0147 -0.1477  0.1447
23912W        W40760  14.156   6.230   4.199 -0.4508 -0.1286  0.1122
23913W        W40761  18.035   1.316  12.255  0.1135  0.1598 -0.3315
23914W        W40762   6.342  12.210   0.259  0.1131 -0.1982  0.2452
23915W        W40763   7.132   1.879  14.371  0.4298  0.0785 -0.1906
23916W        W40764   2.344  12.808   3.459  0.2242  0.1871  0.1952
23917W        W40765   8.877   6.479  12.102  0.2137 -0.0299  0.1282
23918W        W40766  12.717   8.292  12.676  0.3271 -0.2768  0.0345
23919W        W40767  12.289  16.275   2.133  0.0645  0.0293  0.0943
23920W        W40768   3.682   9.714   0.262 -0.0275  0.2671  0.3712
23921W        W40769   3.986   5.504  13.337 -0.0246  0.0859 -0.0208
23922W        W40770  13.748  10.216  10.944 -0.1965  0.1088 -0.2620
23923W        W40771   3.527  11.144  14.932  0.1922 -0.0847 -0.0301
23924W        W40772   6.469   5.535   3.195 -0.0512  0.2775  0.0085
23925W        W40773  16.959   5.939  12.454 -0.1335 -0.1545  0.0034
23926W        W40774   8.656  16.756  11.846 -0.1040  0.0032 -0.0106
23927W        W40775   4.376  10.552  14.764  0.2978  0.1697  0.0147
23928W        W40776   4.299  11.522  15.014  0.1344  0.1176  0.0076
23929W        W40777  17.631  15.548   4.655 -0.1603  0.0758  0.0291
23930W        W40778  16.213   9.759  14.823  0.2133  0.2299 -0.1250
23931W        W40779   7.698  16.240   4.859 -0.0374  0.0177 -0.0351
23932W        W40780  15.983  10.338   3.604  0.1366  0.0351 -0.0006
23933W        W40781   6.711   7.299  16.191  0.2019  0.1198 -0.0967
23934W        W40782  18.017   8.550   2.482 -0.1549 -0.1435  0.2020
23935W        W40783   4.442   7.165   4.942 -0.0660 -0.1378 -0.1259
23936W        W40784  17.159  10.298  14.786 -0.3645 -0.3383 -0.0242
23937W        W40785  10.453   8.821  14.430 -0.2651 -0.0421 -0.0804
23938W        W40786   2.483  17.624  15.148 -0.2293 -0.2239 -0.3873
23939W        W40787   6.189  13.342  14.578 -0.1059 -0.2300  0.1021
23940W        W40788  16.139  17.295   5.955  0.0419  0.1958 -0.2803
23941W        W40789  16.889  16.484   2.415 -0.1466  0.0265  0.0510
23942W        W40790   9.441   4.469  14.487 -0.1224 -0.1676 -0.0540
23943W        W40791  15.825  14.517  12.414  0.3317 -0.1383 -0.1665
23944W        W40792   4.630  11.059   3.082 -0.1875  0.1685 -0.0263
23945W        W40793  13.693  13.049   0.229  0.0161 -0.2485 -0.0886
23946W        W40794  15.187  12.858  15.967 -0.2747  0.1418  0.0594
23947W        W40795   2.988   5.597  14.853 -0.0847 -0.2248  0.1346
23948W        W40796  12.343  17.060  16.133  0.1674 -0.1414  0.2557
23949W        W40797   2.794   7.527   1.311  0.0171 -0.1747  0.1416
23950W        W40798   8.622   9.854   3.135  0.0302  0.1909 -0.1007
23951W        W40799  13.554   0.076   2.700 -0.0029 -0.1837 -0.2470
23952W        W40800   9.966   9.270   4.947 -0.1090 -0.0895  0.1706
23953W        W40801   7.443  15.393  15.548 -0.3381  0.1384  0.1503
23954W        W40802   8.894  10.310   3.267  0.0199 -0.1157 -0.2621
23955W        W40803   9.161   6.796   3.729  0.2749 -0.1098  0.1756
23956W        W40804   1.619  11.560  14.582  0.2386 -0.0107 -0.2564
23957W        W40805  17.047   7.049   2.997  0.0620 -0.2610  0.1248
23958W        W40806   7.406   3.238   3.038  0.2473 -0.3295 -0.0659
23959W        W40807   9.160   3.247  12.988 -0.1640  0.0134 -0.0713
23960W        W40808  15.335  14.727  15.266 -0.0412  0.0868  0.1928
23961W        W40809   4.565   9.020   1.258 -0.2589  0.1357  0.0256
23962W        W40810  12.002  13.652   1.984  0.2024  0.0829 -0.1900
23963W        W40811   0.550   5.233   0.724  0.1476 -0.2657  0.1576
23964W        W40812   1.980  14.474   1.235  0.1528 -0.0049 -0.1961
23965W        W40813  15.349   3.311  13.079  0.0822 -0.1196  0.1724
23966W        W40814  13.353   2.538  11.041 -0.2718  0.4084  0.2377
23967W        W40815   2.641  11.590  11.878  0.0667 -0.1874 -0.0340
23968W        W40816  10.846   8.748   4.427  0.0102  0.2759  0.2050
23969W        W40817  16.411   2.713   1.496 -0.1668 -0.2676 -0.1569
23970W        W40818  15.147   7.468  14.932  0.0936 -0.0216 -0.0250
23971W        W40819   1.082   3.953  15.648  0.0137 -0.0334 -0.0766
23972W        W40820  15.176   6.853  11.821  0.0019 -0.0071  0.1865
23973W        W40821  11.216   2.920  14.276  0.2614 -0.2388 -0.5276
23974W        W40822   5.551  11.847  14.442  0.0478 -0.1280  0.0762
23975W        W40823  14.679   3.944   4.237  0.1953 -0.2026  0.2631
23976W        W40824   5.097   1.461  14.497  0.1261  0.0121  0.2384
23977W        W40825  10.218   4.686   5.090  0.1434 -0.2884  0.2092
23978W        W40826   2.393   4.821  10.291  0.3138  0.0573  0.0690
23979W        W40827  10.757   8.170  10.964 -0.0420  0.2231  0.0073
23980W        W40828   1.904  11.304   5.125  0.1723  0.1941 -0.1960
23981W        W40829  14.252   6.607   1.086  0.0177  0.1454  0.0832
23982W        W40830  13.011   0.907   0.841  0.2429 -0.2762  0.1694
23983W        W40831  10.634   1.312  11.184 -0.1238  0.1643 -0.4198
23984W        W40832   1.165  15.798  11.966 -0.2382 -0.1034  0.2131
23985W        W40833   7.399   6.685   5.600  0.0789  0.0695 -0.0984
23986W        W40834  10.895   1.701   1.728  0.0534  0.0680  0.2039
23987W        W40835   6.222  12.169  13.773  0.0376  0.0322  0.0265
23988W        W40836   5.981   1.410  11.804  0.0246  0.1808  0.0612
23989W        W40837   3.368  12.384  11.252  0.0292 -0.0850  0.0743
23990W        W40838   5.994  15.299   3.334  0.1602 -0.2272 -0.2096
23991W        W40839  16.451  16.878   3.969  0.2985  0.0429 -0.2210
23992W        W40840   7.431   7.521  12.888 -0.0141 -0.0031 -0.2551
23993W        W40841   3.651   8.386  13.774 -0.2698  0.2406 -0.1217
23994W        W40842   2.461   1.753   5.345  0.0445 -0.0909  0.0419
23995W        W40843   6.913   9.257  12.664 -0.1603  0.1431 -0.2957
23996W        W40844   2.746   0.191   2.059 -0.1547  0.0411  0.0949
23997W        W40845   6.855   4.368   2.297 -0.0638  0.0656 -0.1617
23998W        W40846  15.359   5.324   1.016  0.3153  0.1842 -0.4148
23999W        W40847   4.268  11.835  13.088  0.0804  0.1117  0.0841
24000W        W40848   6.986   3.367  12.824  0.1296  0.1094 -0.3466
24001W        W40849   4.645   9.374  16.195 -0.1616 -0.0617 -0.0335
24002W        W40850  15.697   8.512   1.114  0.0005 -0.0254 -0.2296
24003W        W40851  11.157  16.047  15.624 -0.3768  0.0168 -0.1788
24004W        W40852   7.150   5.763   4.200  0.0796 -0.2385 -0.1662
24005W        W40853   6.818   5.817  16.098 -0.1131 -0.1555 -0.2204
24006W        W40854  10.257   0.339  15.005  0.4839 -0.3353 -0.1719
24007W        W40855   0.078   1.596   0.034  0.1305  0.0643 -0.0659
24008W        W40856  16.840   6.905   4.507 -0.1848 -0.4337  0.1101
24009W        W40857   5.505  15.418  11.584  0.0444 -0.0607  0.1419
24010W        W40858   8.687   2.614   1.010  0.1328 -0.0546 -0.0601
24011W        W40859  12.768  11.600  11.033 -0.2003 -0.2417  0.0893
24012W        W40860  13.617  10.613  15.969 -0.1209  0.1469 -0.0448
24013W        W40861  11.296  10.712  14.673  0.1631 -0.0031 -0.1878
24014W        W40862   3.221   5.962  13.189  0.2476  0.1277 -0.1883
24015W        W40863  15.392   2.771  15.288  0.3225  0.1801  0.0051
24016W        W40864  15.367   8.427   2.061  0.1686  0.1859  0.1294
24017W        W40865  14.937   3.544  13.275 -0.0087 -0.1144 -0.3063
24018W        W40866  17.380  13.936   3.926  0.1075  0.1220 -0.1513
24019W        W40867  10.082   1.131   5.439  0.2213  0.0288  0.1956
24020W        W40868  11.943   1.675  15.510  0.4530  0.1028  0.1719
24021W        W40869   9.191  11.213   4.231 -0.1173  0.0945 -0.0557
24022W        W40870   2.472  13.959   0.851 -0.0552  0.1380  0.0067
24023W        W40871  13.403   8.633  14.868  0.0968  0.1845 -0.1541
24024W        W40872  11.773   8.854  14.699  0.0501 -0.0686 -0.3498
24025W        W40873   7.024   1.521   5.480 -0.0644  0.1809 -0.0840
24026W        W40874  17.923   6.655   5.411 -0.1608 -0.2040 -0.0842
24027W        W40875  13.720  14.864   4.215 -0.0502  0.0732  0.0172
24028W        W40876   2.567   3.845  12.097 -0.3153  0.2375  0.3557
24029W        W40877  13.669  15.446   2.461  0.0555 -0.1085  0.0504
24030W        W40878   1.050  15.288  11.878 -0.3678  0.2811  0.0677
24031W        W40879  17.846  11.934  11.020 -0.0505  0.0918  0.1908
24032W        W40880  16.731   9.124   3.213  0.0440 -0.0836 -0.0270
24033W        W40881   0.414  13.726  10.535  0.4500  0.2793  0.0700
24034W        W40882   9.603   8.938   3.551  0.0364  0.2140 -0.4009
24035W        W40883  17.203  16.198   2.682  0.2819  0.0600 -0.1042
24036W        W40884   9.593  12.742   4.338  0.1599 -0.2694  0.1711
24037W        W40885   2.090  12.446  15.694 -0.2697 -0.0119 -0.4532
24038W        W40886   8.186  12.129   5.269 -0.0014 -0.0762 -0.0277
24039W        W40887  13.149   8.473  13.679  0.0437  0.0253  0.1532
24040W        W40888  11.847   0.284  13.520 -0.1564  0.0385  0.1122
24041W        W40889  10.882   5.774   0.577 -0.0574 -0.0745 -0.2697
24042W        W40890  14.818   0.311  14.115  0.2836  0.2717 -0.2882
24043W        W40891   8.314  18.038  13.709 -0.1455 -0.1067 -0.0976
24044W        W40892  12.522   6.552  12.091  0.2701  0.0863 -0.1154
24045W        W40893   4.818   3.276  12.446 -0.0789  0.1934 -0.0048
24046W        W40894   4.771   1.174  14.840 -0.0046  0.0316 -0.1108
24047W        W40895  11.750  16.763   3.898  0.1913 -0.1381  0.0553
24048W        W40896  16.518  15.770  15.350  0.0032  0.0576  0.0726
24049W        W40897   7.187   2.389  13.866  0.3193 -0.2034  0.2311
24050W        W40898   0.309   3.288   1.715 -0.0656  0.0607 -0.1189
24051W        W40899   7.321  14.418   3.097  0.0810 -0.0967  0.2949
24052W        W40900   4.792   1.206   3.298 -0.0065  0.1291 -0.1560
24053W        W40901  17.024   9.039  10.725  0.0943 -0.3519 -0.2387
24054W        W40902  13.549   1.794   0.848  0.1684  0.4253  0.0444
24055W        W40903   5.067  10.756  12.812  0.2180 -0.1102  0.0544
24056W        W40904   9.107   3.302  13.952 -0.1196  0.1635 -0.0138
24057W        W40905   7.696   4.807  11.534 -0.1804  0.0343  0.0892
24058W        W40906   3.323   0.905   1.676 -0.0653  0.1463  0.0341
24059W        W40907   0.624  11.337   2.157 -0.2442  0.0032 -0.2134
24060W        W40908   5.149  17.800   1.328  0.0767 -0.0073 -0.1188
24061W        W40909   4.612   4.534   0.850  0.0973  0.0065 -0.2416
24062W        W40910   4.081  10.445  13.051  0.2349  0.2961  0.1438
24063W        W40911  16.737  11.530  11.120 -0.2476  0.1946  0.1796
24064W        W40912  16.370  12.512  12.918 -0.4019 -0.2444  0.0882
24065W        W40913   4.887  11.568  15.711  0.1055  0.0942  0.0765
24066W        W40914  17.409   2.358  12.850  0.0455  0.3226 -0.1114
24067W        W40915   9.707   3.263   1.503 -0.1947  0.0158 -0.0451
24068W        W40916   2.413   1.715   3.565  0.0416 -0.0243  0.3382
24069W        W40917   0.004  14.311  11.534 -0.3612 -0.0192 -0.1547
24070W        W40918  11.689   9.729  15.844  0.2054  0.2027 -0.0193
24071W        W40919  13.208  13.065   1.920 -0.1550  0.3676  0.1711
24072W        W40920   9.847  12.357   0.811 -0.2038 -0.0197 -0.3263
24073W        W40921   1.985   6.456   0.644 -0.0309 -0.0492  0.2040
24074W        W40922   7.248  10.458   4.315  0.0109 -0.1197 -0.0687
24075W        W40923   5.960  10.333  12.626 -0.2049 -0.0497 -0.1228
24076W        W40924   7.429  16.743   0.347  0.1747  0.1366 -0.0873
24077W        W40925   7.773  13.629  11.286 -0.1559 -0.1352 -0.1966
24078W        W40926   6.965   5.153   1.971  0.1719 -0.2974 -0.2544
24079W        W40927   4.877   3.140  15.773  0.1571  0.0885  0.1108
24080W        W40928   7.164  14.397  16.183 -0.0292  0.0047 -0.0823
24081W        W40929   5.077   1.538   0.986 -0.0860  0.1467 -0.3542
24082W        W40930  17.384  12.960  12.344 -0.1251 -0.0203 -0.0617
24083W        W40931   7.900  17.604   1.792 -0.1607  0.0906  0.4326
24084W        W40932   1.365  17.253   1.362  0.1301  0.1087  0.4622
24085W        W40933  15.054   0.790   1.586 -0.1130 -0.2569  0.1718
24086W        W40934  15.742  13.536  15.160  0.0081  0.1786  0.3750
24087W        W40935  11.924   7.514  13.954  0.1372  0.2051  0.0410
24088W        W40936  12.772  13.835   3.841  0.3751 -0.0518 -0.2179
24089W        W40937  10.705   8.530  11.941 -0.2793 -0.0471 -0.2515
24090W        W40938  10.610   5.400  13.319  0.0219 -0.1598 -0.3761
24091W        W40939   2.754  16.819  15.139 -0.0382 -0.1505  0.0837
24092W        W40940   2.247  13.845   1.891 -0.1221 -0.3514 -0.1135
24093W        W40941   1.275  15.580   5.115  0.0320  0.0022  0.1755
24094W        W40942   6.901   6.059  12.795  0.1029  0.0106 -0.2873
24095W        W40943   9.921   0.265  13.255  0.0273  0.3860 -0.1609
24096W        W40944  15.713   8.067  13.727  0.1257 -0.3314  0.0020
24097W        W40945   6.353   3.415  14.399 -0.2844 -0.1745  0.1584
24098W        W40946   1.384  17.408  13.423 -0.0936 -0.4206  0.0046
24099W        W40947   3.874   1.178  13.233  0.2133 -0.1757  0.0987
24100W        W40948   3.551   3.928   5.125 -0.0235 -0.1435 -0.1861
24101W        W40949   9.079  13.251  15.567 -0.1799  0.1333  0.2271
24102W        W40950   6.333  11.157  12.194  0.1300 -0.0750 -0.0321
24103W        W40951  11.367  14.327   2.230  0.2577 -0.0458 -0.0851
24104W        W40952   8.238   3.047   2.135 -0.2860 -0.1218  0.3673
24105W        W40953   3.680   8.062   1.301 -0.0621 -0.4771 -0.1651
24106W        W40954   1.598   7.963   1.503 -0.0432 -0.0085  0.1447
24107W        W40955   7.125   8.458  10.413 -0.0672  0.0017  0.1532
24108W        W40956  12.794   6.707   3.112  0.0422 -0.0520 -0.0533
24109W        W40957   0.471  13.029   0.691 -0.2218 -0.0932  0.0614
24110W        W40958  10.961   1.890  11.014 -0.1026  0.1085 -0.0070
24111W        W40959   7.433   9.437  13.287 -0.0743  0.1618 -0.0465
24112W        W40960  16.484  16.055   4.966  0.1086 -0.0456 -0.2016
24113W        W40961   8.388  17.192   0.473  0.0350 -0.2190 -0.3419
24114W        W40962  16.619  15.368   5.482  0.2839 -0.1028  0.0333
24115W        W40963   7.843   5.643   3.856 -0.0921 -0.1539 -0.1396
24116W        W40964  15.245   6.892  15.256 -0.0280 -0.0143  0.1428
24117W        W40965   1.508  10.521   3.505  0.2229  0.0553  0.1210
24118W        W40966   4.899   0.072   4.337  0.0171  0.0997  0.0356
24119W        W40967   3.954   9.617   2.783  0.0232 -0.0170  0.2451
24120W        W40968  17.300   0.139   2.822  0.1709 -0.0576 -0.3696
24121W        W40969  13.285   7.679  14.604 -0.0418 -0.1746  0.0344
24122W        W40970  14.176   1.845   2.828 -0.3157  0.0306 -0.0883
24123W        W40971  14.105   8.202  13.687 -0.0458 -0.1657 -0.2278
24124W        W40972   1.133  14.615   0.275 -0.1404 -0.0841  0.0463
24125W        W40973  17.273  12.634  11.460 -0.1401  0.0760 -0.0935
24126W        W40974  10.873   0.624   4.045  0.1666 -0.3525 -0.0400
24127W        W40975  14.625  17.027  15.936  0.0817 -0.1083 -0.2635
24128W        W40976  10.920  14.401   2.609 -0.1650 -0.2589  0.0365
24129W        W40977   0.578   8.361  13.339 -0.0480 -0.1254  0.3507
24130W        W40978  16.432  16.386  10.361  0.0305 -0.2429  0.2455
24131W        W40979   1.946  11.342  12.823  0.1282 -0.0599 -0.0402
24132W        W40980  15.889  12.805   2.020 -0.1055 -0.0071 -0.0865
24133W        W40981  12.627   8.953   5.291  0.0211  0.1194 -0.1941
24134W        W40982   1.343   6.183  14.732 -0.1124 -0.0379 -0.0820
24135W        W40983   5.216   2.480  11.245  0.0924  0.2869 -0.1720
24136W        W40984   7.471   1.184   2.329  0.0611 -0.2798  0.0826
24137W        W40985  16.518  13.996   0.424 -0.0008  0.0994 -0.1247
24138W        W40986  13.891   1.881   0.524 -0.0310 -0.3429 -0.4298
24139W        W40987  12.186  15.069   0.482 -0.3121  0.1693  0.0422
24140W        W40988  10.754   4.353  12.937 -0.1126 -0.0063 -0.3276
24141W        W40989  12.309  14.521   4.185 -0.3548  0.3241 -0.2210
24142W        W40990  14.463   0.393   0.208  0.0346  0.0423 -0.0418
24143W        W40991   8.574   6.315  15.020 -0.1771  0.2087  0.2191
24144W        W40992  15.988   7.242  12.557 -0.1804 -0.1490 -0.0715
24145W        W40993  11.899   2.033  12.990 -0.0952 -0.0548 -0.0688
24146W        W40994   0.309  16.522  11.518  0.2022  0.1367  0.2262
24147W        W40995   0.636  12.098  15.822 -0.1737  0.0736 -0.0444
24148W        W40996   7.604  17.249  14.388  0.2126  0.1600  0.0511
24149W        W40997   1.265  17.610  14.341  0.2158 -0.1633  0.1313
24150W        W40998  15.222  13.982  16.115 -0.1970  0.2846 -0.2492
24151W        W40999   0.956  11.112   3.854  0.3251  0.0116 -0.0801
24152W        W41000  13.803   3.309  14.763  0.1485 -0.1858  0.0136
24153W        W41001  16.411   5.105   0.850 -0.0702  0.1033  0.2289
24154W        W41002   0.488   7.665   4.575 -0.2566 -0.3554  0.0034
24155W        W41003   6.386   8.170   2.899 -0.1049  0.0926 -0.1414
24156W        W41004  15.126   4.982   0.627 -0.1231 -0.2100 -0.1141
24157W        W41005   3.966   9.386   0.502  0.1228  0.3517  0.2324
24158W        W41006   6.737  16.646  11.607 -0.3449  0.1028 -0.1579
24159W        W41007   1.939   2.324  14.440  0.1360 -0.1144 -0.0863
24160W        W41008   2.991  13.654  16.173  0.0894 -0.1742 -0.2598
24161W        W41009   8.749   9.863  10.880 -0.4072 -0.0507  0.1231
24162W        W41010  11.836   9.426  11.314 -0.1608 -0.0583 -0.0782
24163W        W41011  17.393  12.452  12.541 -0.2700  0.1060 -0.2203
24164W        W41012  11.696  12.086   3.190 -0.0515  0.1663  0.0396
24165W        W41013  17.805   3.237   3.075 -0.0399 -0.1379 -0.2951
24166W        W41014  13.400  11.351   4.865 -0.0252  0.1144  0.1419
24167W        W41015   4.739  14.366  14.978  0.0645  0.1409 -0.0003
24168W        W41016   0.357   1.052   1.279 -0.0097  0.0293  0.1183
24169W        W41017   6.946  10.919  14.765 -0.2221  0.1337 -0.1560
24170W        W41018   6.055   7.088   1.113  0.2204 -0.0503 -0.2233
24171W        W41019   9.176   0.750  13.214 -0.3204 -0.1775  0.1879
24172W        W41020   8.211   8.649  13.465  0.4057  0.0218 -0.2253
24173W        W41021  16.702  16.937  13.732  0.0353 -0.1415 -0.0794
24174W        W41022   2.008   1.823  12.379  0.0538 -0.0546 -0.0825
24175W        W41023   8.394   3.783   3.795  0.0187 -0.3003  0.3290
24176W        W41024   7.325   5.401  14.888  0.2873  0.0912 -0.1511
24177W        W41025  11.682  17.616   3.491  0.2334  0.2105 -0.0118
24178W        W41026   7.580   1.238   3.946 -0.0725 -0.1091  0.0812
24179W        W41027  12.563  17.601  12.583  0.1199  0.2281 -0.2516
24180W        W41028  12.462   5.752  11.672  0.0635  0.0784 -0.0731
24181W        W41029   9.603  14.276   3.524  0.4298  0.2524 -0.0209
24182W        W41030   3.143  17.505  15.410  0.1179 -0.2354 -0.2867
24183W        W41031  16.194  14.488  12.818  0.0569  0.0406  0.2125
24184W        W41032   8.244   1.886   4.958  0.1077 -0.0796 -0.0621
24185W        W41033  17.616   0.518   0.516  0.1529 -0.4570  0.2717
24186W        W41034   3.894   5.865   0.033  0.5758  0.0637  0.2923
24187W        W41035   8.285   4.455  11.127 -0.2383 -0.0808  0.1315
24188W        W41036   3.981   6.458  13.148  0.0123 -0.0069  0.1037
24189W        W41037   3.857  10.742  11.956 -0.0737  0.1293 -0.0228
24190W        W41038  15.746  17.879   0.570  0.1038 -0.1069 -0.0205
24191W        W41039   8.787  13.627   0.356  0.0101  0.0552 -0.1117
24192W        W41040   1.869   4.198   3.484  0.1057 -0.2104 -0.1198
24193W        W41041  17.246   1.444   1.072  0.0605 -0.1021 -0.1184
24194W        W41042   4.050  13.900   4.892  0.0168  0.1601 -0.0135
24195W        W41043  17.623   1.543   3.224 -0.1885  0.4364  0.1018
24196W        W41044   1.970   5.299  14.517 -0.0338  0.0428  0.0076
24197W        W41045  10.946   2.679  12.044 -0.0733 -0.0910 -0.0465
24198W        W41046  18.010  11.818   2.059  0.0610  0.0823  0.0921
24199W        W41047   5.821  10.374   1.161 -0.2668 -0.0941  0.1033
24200W        W41048  17.662   9.771   2.692  0.0078  0.0115  0.0726
24201W        W41049   5.743  16.214   2.465  0.1674 -0.1108 -0.1258
24202W        W41050   4.859  10.212  15.585  0.3454  0.2814 -0.2368
24203W        W41051   6.271   9.234   3.032 -0.0049  0.5212  0.0128
24204W        W41052   4.699   2.644   2.248  0.0723 -0.1353 -0.3610
24205W        W41053   0.109  17.749  10.925  0.0779  0.2272  0.0489
24206W        W41054   4.831  14.829   5.152  0.2011  0.0624 -0.1161
24207W        W41055   6.527  10.224   1.655  0.1154  0.0474 -0.0213
24208W        W41056   8.947  10.615  15.227  0.0206  0.2474 -0.1978
24209W        W41057  10.381   1.790  15.166 -0.0676 -0.2763  0.0454
24210W        W41058   9.650   1.776   5.031 -0.0486 -0.2041 -0.1207
24211W        W41059  10.661   9.074   5.837 -0.3736 -0.1022 -0.1599
24212W        W41060  10.613   3.403   4.628  0.1864 -0.4497 -0.1360
24213W        W41061  15.559  16.217  13.125  0.3388 -0.1947  0.0811
24214W        W41062   1.395  16.823  11.759  0.0871 -0.0993 -0.2619
24215W        W41063   8.241   7.394   4.588  0.0755 -0.1105 -0.1488
24216W        W41064   2.664  15.073  16.131 -0.3253 -0.0694 -0.1178
24217W        W41065  15.436   8.561  15.040 -0.1252  0.0578 -0.0482
24218W        W41066  12.595  16.234  16.029  0.1120  0.2888  0.1532
24219W        W41067   5.555   4.908   6.068 -0.2196 -0.1061 -0.0406
24220W        W41068   6.878  14.541   4.639 -0.1664  0.0213  0.1837
24221W        W41069   3.319  17.767  16.153  0.0510 -0.3459 -0.0830
24222W        W41070   7.458   9.818   5.025  0.3602  0.3088  0.1354
24223W        W41071   6.098   7.496  11.777  0.1256 -0.0221 -0.0957
24224W        W41072   8.289   9.885   4.989 -0.1567 -0.1919 -0.1212
24225W        W41073   3.962   0.858   3.656 -0.1466 -0.0118 -0.0333
24226W        W41074   0.982   1.671  12.007 -0.1319 -0.1231  0.0677
24227W        W41075  14.924  17.501   0.080  0.1096 -0.1455  0.0019
24228W        W41076  16.508   4.227  13.415  0.1635  0.2741  0.1129
24229W        W41077   7.653   3.549   2.324  0.0634 -0.2511  0.1896
24230W        W41078   2.679  11.394   2.131 -0.1132 -0.1945  0.0544
24231W        W41079  12.161  16.526  10.368 -0.0693  0.2679 -0.0798
24232W        W41080   1.360   5.286   1.014  0.3689  0.1287  0.2077
24233W        W41081  16.047   7.493   2.588 -0.2381 -0.1266 -0.1334
24234W        W41082  17.911   2.707  12.842 -0.0645  0.2978  0.1024
24235W        W41083  10.388   1.369   1.445  0.1770  0.0745  0.0186
24236W        W41084   5.036  17.287  13.657  0.2617 -0.0237  0.4481
24237W        W41085  13.387   3.746  16.126 -0.1244  0.0925 -0.4334
24238W        W41086   0.503   3.256  11.867 -0.1825  0.4133 -0.0928
24239W        W41087   3.998   0.714  12.388 -0.3073  0.2181  0.0885
24240W        W41088  13.007   1.709  14.983 -0.2497 -0.1038 -0.0302
24241W        W41089  10.634  14.743   1.803  0.2444 -0.0838 -0.1567
24242W        W41090   2.543   3.112  11.598  0.1622  0.0983  0.1039
24243W        W41091   9.288  12.126  11.401 -0.0766 -0.0353 -0.2400
24244W        W41092  17.823   5.177  13.233  0.3014  0.0402 -0.1451
24245W        W41093  11.190  12.447  15.725  0.1032  0.0186  0.0781
24246W        W41094  17.270   6.892   5.262 -0.2022 -0.2985  0.0195
24247W        W41095   5.531  13.664   0.949  0.0868  0.1759  0.0498
24248W        W41096  13.292  11.436   2.108  0.2323  0.0680 -0.1351
24249W        W41097   2.098   9.516  12.828 -0.0934 -0.1412 -0.0142
24250W        W41098  15.547   9.706  11.949 -0.1688 -0.4642  0.0249
24251W        W41099  10.091   3.327  14.541 -0.1180  0.1371  0.0663
24252W        W41100   8.007   1.776   1.426 -0.0355  0.2161  0.0701
24253W        W41101   9.306   1.991   3.956 -0.0373 -0.4289 -0.4077
24254W        W41102  15.053  11.301  13.268 -0.1276 -0.2272 -0.0785
24255W        W41103  13.904   8.631   1.548  0.0143 -0.2991  0.2659
24256W        W41104   3.768   6.979  13.773 -0.1121  0.0150 -0.1590
24257W        W41105  11.208   7.299   0.909 -0.2575 -0.4045 -0.1690
24258W        W41106   4.822   5.056  13.760 -0.1737  0.0743  0.2424
24259W        W41107   6.977   9.585  12.082  0.2768  0.1911 -0.0531
24260W        W41108   8.480   0.635   0.740 -0.0635 -0.1295 -0.1981
24261W        W41109   3.155   7.132   4.453 -0.5523  0.1115  0.0446
24262W        W41110   1.589   8.900  14.322  0.1470  0.0499 -0.1183
24263W        W41111   6.923  16.487   5.365  0.2746 -0.0349  0.0243
24264W        W41112  12.242  14.571   3.314  0.0930 -0.1077  0.0494
24265W        W41113  13.811   7.697   3.301 -0.0635 -0.0529  0.2649
24266W        W41114  16.743  17.176  15.340 -0.0243  0.1053 -0.1131
24267W        W41115  10.791  11.867   3.320 -0.1389  0.1254  0.3509
24268W        W41116   4.057  11.501   4.212 -0.1181  0.1361  0.3003
24269W        W41117  12.375   0.168  13.321  0.1271 -0.1158  0.2122
24270W        W41118   8.557  11.698   3.447  0.0073  0.2109 -0.2823
24271W        W41119   6.560  13.871  11.752  0.1829  0.2470 -0.1080
24272W        W41120  11.631  14.426   4.223  0.2170  0.4012 -0.1626
24273W        W41121   4.364  15.344   2.686 -0.0422 -0.1463  0.1682
24274W        W41122  10.208  10.505  13.970 -0.2852 -0.0388  0.2559
24275W        W41123   2.187   8.823   3.166  0.0514 -0.0613 -0.2891
24276W        W41124  15.919   4.408  14.273  0.0750  0.4078 -0.2804
24277W        W41125  13.959  14.969  13.780  0.1772  0.0902  0.0993
24278W        W41126  17.450  13.372  14.229  0.1217  0.4566 -0.0169
24279W        W41127   6.286  13.270   3.044  0.0964 -0.0793  0.0070
24280W        W41128  13.065   8.695   4.013 -0.0391  0.1604 -0.3617
24281W        W41129  17.943   9.362  14.550  0.0537  0.0430 -0.2712
24282W        W41130  13.373  14.490   5.858  0.0028 -0.0990  0.2523
24283W        W41131   7.988   5.889   5.643  0.3179 -0.1835 -0.1518
24284W        W41132   5.114  12.255  14.947  0.2664 -0.0868  0.1616
24285W        W41133   3.920  11.435   0.987  0.1025 -0.1223 -0.1281
24286W        W41134   2.850   9.886   5.344 -0.0613 -0.1490  0.2930
24287W        W41135   9.907   9.025  11.824  0.0126 -0.1794 -0.1641
24288W        W41136   6.696  15.375  14.160 -0.3093  0.0734  0.1417
24289W        W41137   8.951  14.785  13.691 -0.2258 -0.1843  0.1271
24290W        W41138   5.734  11.715   4.632 -0.2292  0.0540  0.1317
24291W        W41139   3.972   9.280  11.639  0.1433 -0.2846  0.0991
24292W        W41140  14.893   2.738  15.381  0.0947 -0.1496  0.0178
24293W        W41141   3.543  12.520   1.774  0.2566 -0.0884 -0.2699
24294W        W41142   0.805   0.074  10.893  0.1593 -0.0503  0.2056
24295W        W41143  15.305  14.085  10.527 -0.1219 -0.5510  0.0482
24296W        W41144  13.402   2.252   2.726  0.0359  0.3032 -0.1654
24297W        W41145   9.898   0.123   3.046 -0.1707 -0.2847  0.1001
24298W        W41146   4.520  10.075   4.885  0.1363  0.2878  0.2241
24299W        W41147   8.252   5.478  12.886  0.1710  0.2828 -0.2226
24300W        W41148  11.697   9.386   4.966  0.2160  0.0408  0.2429
24301W        W41149  14.549  16.436  12.386 -0.2079  0.2555 -0.2316
24302W        W41150   7.811  12.377   1.727 -0.1481 -0.2536 -0.2273
24303W        W41151   3.058  16.620   4.479  0.0142  0.4035  0.0187
24304W        W41152   9.351   0.558   3.379 -0.1620 -0.2481 -0.0520
24305W        W41153   7.205   5.539  15.894 -0.1421  0.1531 -0.0367
24306W        W41154   0.424   8.478   2.421 -0.0289  0.0578 -0.2385
24307W        W41155   0.275   9.457  10.418  0.2864 -0.4257  0.2560
24308W        W41156   1.338   2.306   1.378  0.1405  0.0887  0.4074
24309W        W41157   1.233   6.519   6.028 -0.0240 -0.0639  0.0539
24310W        W41158   6.151  11.173   4.078 -0.3046  0.2663 -0.0536
24311W        W41159  15.019  16.739  12.364  0.2465 -0.3183  0.0615
24312W        W41160  17.785  16.312  16.238 -0.1294  0.0546  0.0324
24313W        W41161  10.845  13.510   2.497 -0.2307  0.0957  0.1314
24314W        W41162   9.554  18.016  14.580 -0.1302  0.1125  0.1400
24315W        W41163  17.637   6.307  11.754 -0.0868 -0.0330 -0.1459
24316W        W41164   6.949  13.574   2.154 -0.0496  0.2125  0.0456
24317W        W41165  12.106   0.965  14.685  0.0291 -0.0824 -0.2492
24318W        W41166  11.886  14.317  14.701 -0.0617  0.0138 -0.4734
24319W        W41167   8.118   5.149   4.002  0.3380  0.1784 -0.3205
24320W        W41168  13.520  12.252   2.201 -0.0284 -0.1338 -0.3403
24321W        W41169   3.763   6.451  16.019 -0.1266 -0.0110  0.1657
24322W        W41170   8.901   8.253   3.891 -0.0456  0.1135  0.1258
24323W        W41171   4.055   2.999  11.801  0.0551  0.1303  0.0278
24324W        W41172   3.211  15.869   0.087 -0.1348  0.0765  0.0081
24325W        W41173   1.479  10.538  13.006 -0.0344 -0.2861 -0.0738
24326W        W41174  15.756   2.524   0.898 -0.3297 -0.1588  0.0496
24327W        W41175  12.135  13.627  12.603  0.1162  0.3103  0.2754
24328W        W41176   8.057  15.434   1.619 -0.0262  0.2110 -0.1869
24329W        W41177  17.043   1.790   4.326 -0.0116  0.1505 -0.3103
24330W        W41178  13.818  11.064  15.802  0.2658  0.0082  0.0539
24331W        W41179  14.010   9.476  11.873  0.3261  0.0504 -0.0219
24332W        W41180  10.458   9.627   2.696 -0.2257  0.0826 -0.0480
24333W        W41181  16.705   5.512   0.433 -0.2129  0.0273 -0.1439
24334W        W41182   6.035   7.605   1.870 -0.1204  0.0410  0.2372
24335W        W41183  12.066  16.083   4.708  0.1500 -0.5303 -0.1884
24336W        W41184  11.011  13.112   5.155  0.0806 -0.4033 -0.1491
24337W        W41185   9.266   2.775   2.103  0.1020 -0.3442  0.1443
24338W        W41186   8.893  16.541  14.265  0.0648 -0.0925  0.1103
24339W        W41187   1.156  16.254   3.783  0.5154 -0.0116 -0.1053
24340W        W41188   3.501   2.437   4.283 -0.2683  0.1579 -0.3978
24341W        W41189   4.178  14.446  15.507 -0.1456  0.0631 -0.1535
24342W        W41190   9.407   0.390  13.536  0.0707  0.2180  0.1189
24343W        W41191   2.314  16.396  12.964  0.0120  0.1169  0.1451
24344W        W41192  16.683  10.786   5.288  0.3539 -0.3136 -0.1140
24345W        W41193   8.220  10.962  10.380 -0.0664 -0.0591 -0.0537
24346W        W41194  14.776   5.741  13.448 -0.0794 -0.1996  0.1916
24347W        W41195   5.610  11.390   5.506  0.2887  0.2750 -0.0033
24348W        W41196  10.204   8.231  12.783 -0.2547 -0.0050  0.2580
24349W        W41197   3.049   6.226   1.367 -0.3483 -0.2200 -0.0134
24350W        W41198   1.871   4.924   2.432 -0.0218 -0.2412  0.1421
24351W        W41199   4.112  14.809   2.135  0.0019 -0.1747 -0.1069
24352W        W41200  15.905   8.716   2.991 -0.1843 -0.1505 -0.3423
24353W        W41201  10.812  11.314  14.335 -0.0725  0.2227 -0.2938
24354W        W41202  10.694   5.212  14.035 -0.0970  0.1130 -0.2800
24355W        W41203  11.631   5.622  13.541  0.1375 -0.2370 -0.1816
24356W        W41204   0.351  14.273   1.807  0.0429 -0.0040 -0.0357
24357W        W41205  16.483  13.111   3.970  0.0924  0.0870  0.1282
24358W        W41206  16.884  16.624  15.966  0.1921 -0.3965 -0.1077
24359W        W41207   9.132   5.893   0.904 -0.1178 -0.0395  0.0995
24360W        W41208  16.635  12.679   1.663  0.0287 -0.1056  0.0282
24361W        W41209   7.550   2.805  13.976 -0.0732 -0.1282 -0.1866
24362W        W41210   5.350  13.464  12.863 -0.0409 -0.2371  0.1670
24363W        W41211   6.700   1.400  13.825  0.0393  0.2359  0.0068
24364W        W41212  14.180  10.694   5.070 -0.0457  0.0940 -0.1116
24365W        W41213   7.444   3.162   1.020 -0.2604  0.1703 -0.1962
24366W        W41214   4.342   2.488  12.637  0.0167  0.4718 -0.1124
24367W        W41215  12.304  16.331  11.372 -0.2389  0.0456 -0.0124
24368W        W41216   0.121  10.309  14.655  0.0407 -0.1315 -0.2630
24369W        W41217  14.020  14.841  13.023  0.4111 -0.1299 -0.1343
24370W        W41218   1.829  10.914   2.106  0.1646 -0.0038 -0.0469
24371W        W41219   7.772  10.785  13.421  0.2175 -0.2376 -0.2375
24372W        W41220  12.956   6.891  12.793 -0.1889  0.0661 -0.3425
24373W        W41221   0.377  12.176   0.391 -0.1685 -0.3509 -0.0821
24374W        W41222   1.700  12.017  12.106 -0.2568  0.1133  0.2001
24375W        W41223   4.746   2.679  13.292  0.0689  0.0912 -0.2147
24376W        W41224  10.158  17.971   2.545  0.1875  0.2113 -0.1448
24377W        W41225   8.408   4.895  14.170  0.1661  0.0903 -0.0285
24378W        W41226   0.241  10.579  12.627 -0.0161 -0.1938 -0.0269
24379W        W41227  17.775  12.905  15.120 -0.0617 -0.3558  0.2272
24380W        W41228   9.577   9.344  13.913  0.4056 -0.1731 -0.4306
24381W        W41229   0.756  12.778  14.046  0.2166 -0.1027  0.0912
24382W        W41230  16.800  14.993   2.220  0.0024 -0.1677 -0.2703
24383W        W41231  13.406  15.552  14.466  0.0721  0.1660 -0.0157
24384W        W41232   9.665  10.275  11.675 -0.1987  0.0502 -0.0103
24385W        W41233  13.266   1.053  15.996  0.0262 -0.2010 -0.0267
24386W        W41234  10.646  17.077  15.014  0.0014  0.0918  0.1947
24387W        W41235   5.310   5.519  10.858 -0.4872  0.0800  0.1652
24388W        W41236   6.024   7.027  16.011 -0.3250  0.0091 -0.1235
24389W        W41237   6.483  10.582  15.674  0.0625 -0.0400  0.0154
24390W        W41238   1.708   4.643   2.776 -0.3252 -0.0699 -0.2474
24391W        W41239  10.925   0.462  13.655 -0.4805  0.1396 -0.0362
24392W        W41240   1.385   0.356   3.179 -0.2167  0.0465 -0.1157
24393W        W41241   4.096  12.063   3.850 -0.2728 -0.1112  0.2450
24394W        W41242   5.710  11.522  12.867  0.1692  0.1201  0.0717
24395W        W41243   9.934   1.152  13.053  0.0382 -0.0045 -0.0905
24396W        W41244   5.579  14.203  15.037  0.0582 -0.2751 -0.1419
24397W        W41245   7.873   7.319  12.428  0.2542  0.2577  0.3149
24398W        W41246  14.283  10.828  16.028 -0.0219 -0.0333 -0.0385
24399W        W41247   6.302   3.200   2.750 -0.3868  0.1358 -0.0880
24400W        W41248   7.837   2.198  14.695 -0.0326  0.2091 -0.0661
24401W        W41249  17.856   6.365   5.015 -0.1004 -0.0509 -0.1290
24402W        W41250  15.100   4.706  13.375  0.1452  0.1215 -0.0613
24403W        W41251   7.277  12.990   2.860 -0.1542 -0.0904 -0.1644
24404W        W41252   3.494  13.905  14.157 -0.0428  0.1534  0.0156
24405W        W41253   1.494  10.823   4.189 -0.1982 -0.3570 -0.1433
24406W        W41254   1.845  12.606  12.270  0.0631  0.2257  0.1061
24407W        W41255  12.711  12.966  12.293  0.0333 -0.2362 -0.2891
24408W        W41256   9.054  14.063   1.916  0.1739 -0.0408  0.4751
24409W        W41257  11.606   1.905   2.463 -0.2331  0.0637  0.0759
24410W        W41258   7.362   0.163   5.882  0.0483 -0.0903  0.1120
24411W        W41259  11.975  17.520  12.637  0.1089  0.1911  0.0972
24412W        W41260  13.581  10.576   0.733  0.0945 -0.2090  0.2287
24413W        W41261  15.547   4.887   1.895  0.0911 -0.1125  0.1588
24414W        W41262   0.872  14.768  16.183  0.1649 -0.1706  0.2324
24415W        W41263   5.003  12.251   0.214 -0.3166  0.0054 -0.0491
24416W        W41264   7.125   2.449   2.326 -0.1174 -0.2070  0.2140
24417W        W41265  13.508  12.813  15.933  0.1282  0.0367  0.3761
24418W        W41266   7.558  13.808   0.551  0.2420 -0.1241 -0.1571
24419W        W41267  14.774  10.956  14.262  0.1230  0.1766  0.4201
24420W        W41268   2.917   4.786   2.367 -0.0606  0.1356  0.0317
24421W        W41269  10.545  10.848  16.073 -0.1645 -0.1798 -0.1288
24422W        W41270   3.360  10.075  12.732  0.0479 -0.0168  0.0962
24423W        W41271  11.969   5.459  10.989  0.0441 -0.4763  0.0515
24424W        W41272  14.975   7.454  10.970 -0.0686 -0.0256  0.1945
24425W        W41273   5.514   5.442   2.281 -0.0593  0.0130 -0.1777
24426W        W41274   0.399  13.931  15.533  0.2032 -0.1363 -0.0333
24427W        W41275   9.496   4.242   5.233  0.0988 -0.2540  0.1959
24428W        W41276  15.894   7.663   3.064 -0.0416 -0.0827 -0.1183
24429W        W41277   3.906  13.171   4.613  0.2070 -0.4404  0.0107
24430W        W41278   2.553   6.500   3.961  0.0417  0.4213  0.3080
24431W        W41279  10.955   2.638  12.549  0.1365  0.2202  0.0825
24432W        W41280   4.463   3.886   4.776  0.0362  0.0659  0.1935
24433W        W41281   5.658  12.527   0.856  0.0075  0.3076  0.2266
24434W        W41282  13.489   4.154  12.912 -0.1788  0.3230  0.2088
24435W        W41283   1.271   9.365   2.659  0.3588  0.1099  0.2168
24436W        W41284   1.383   4.075  12.066  0.1065  0.1037 -0.0625
24437W        W41285   4.184   4.178   0.758  0.1065 -0.0469  0.2086
24438W        W41286   1.395   6.655   4.501  0.0134  0.3189  0.0270
24439W        W41287  14.349  17.046   1.678  0.1854  0.1764 -0.2583
24440W        W41288   5.243   1.669   2.813  0.0691 -0.2282 -0.1884
24441W        W41289   6.230   7.558  16.058  0.0758  0.0713  0.0703
24442W        W41290   3.905  12.775   2.833  0.0616 -0.1186  0.2753
24443W        W41291   8.421  15.755   4.083  0.0393  0.0639 -0.0523
24444W        W41292   6.207  13.770   3.306 -0.0900 -0.0873  0.1390
24445W        W41293  15.848  17.462   3.276 -0.0270  0.1269 -0.2677
24446W        W41294  15.001  16.530   5.678  0.2443  0.3998 -0.1139
24447W        W41295   5.765   8.755   2.373  0.0610  0.0521  0.0183
24448W        W41296   0.073   8.256   2.085 -0.2776  0.0861  0.0805
24449W        W41297   7.709   5.481  12.640 -0.0187  0.2251  0.1625
24450W        W41298   6.019   6.478  11.867  0.1423 -0.3033 -0.2548
24451W        W41299   6.552  13.033  13.557  0.1473 -0.0611 -0.0384
24452W        W41300  17.819  14.167  15.757  0.1680 -0.0792 -0.0030
24453W        W41301   6.236   6.117  16.127  0.3520  0.3087  0.0953
24454W        W41302  14.151   8.271  14.670  0.3193 -0.0823 -0.0822
24455W        W41303   3.053  16.594   3.653  0.4747  0.0654 -0.1504
24456W        W41304  14.124   4.542   1.979 -0.0098 -0.2514 -0.0944
24457W        W41305   0.495  13.376   3.441  0.0602 -0.2289  0.0043
24458W        W41306  12.222   7.886   2.425 -0.0371 -0.0033 -0.2058
24459W        W41307  14.812   1.899   4.546  0.0757  0.1312  0.0841
24460W        W41308  12.355  17.139  14.096 -0.3303  0.0025  0.0460
24461W        W41309  13.928   1.011   2.494  0.0135  0.1382  0.2639
24462W        W41310  12.706  15.505  13.212  0.2756  0.2698 -0.0053
24463W        W41311  16.521   3.550   3.583 -0.0587  0.0318 -0.2544
24464W        W41312   8.826  14.250  11.932  0.0346  0.1938  0.0500
24465W        W41313   9.838  13.905   4.910  0.0416  0.0775 -0.2235
24466W        W41314  12.272  17.620  16.253  0.1192 -0.1979 -0.0204
24467W        W41315   3.611   3.479  15.114 -0.0802  0.0182  0.3115
24468W        W41316  17.131   6.226   3.798 -0.3373  0.2611 -0.0068
24469W        W41317   3.018   6.634   2.214 -0.0592  0.0286 -0.1797
24470W        W41318   5.464  15.501  13.295 -0.0692  0.0487 -0.0850
24471W        W41319   0.965  15.983   5.902  0.1288 -0.0781  0.1793
24472W        W41320   4.268  15.932   0.306 -0.3070 -0.2927 -0.2044
24473W        W41321   5.544  16.362   4.307 -0.2497  0.0627  0.1369
24474W        W41322   8.815  12.187   5.331 -0.2252  0.6599  0.0454
24475W        W41323   9.161   5.937  11.746 -0.1123  0.2690  0.1540
24476W        W41324  15.718   3.624   2.348 -0.0685  0.3655 -0.2611
24477W        W41325  16.168   2.203  11.386  0.1491  0.1602  0.2254
24478W        W41326  16.030   7.412  14.548  0.1609 -0.1721 -0.0872
24479W        W41327  11.013  15.060  14.180 -0.1267 -0.0108 -0.0229
24480W        W41328  15.490  17.225   4.191  0.1994  0.1069  0.2542
24481W        W41329   7.783   4.258   2.534 -0.0271  0.0990 -0.1950
24482W        W41330   9.232  12.901   4.597  0.2155  0.3806 -0.2447
24483W        W41331   5.844   4.925  11.204  0.1139 -0.1251  0.2101
24484W        W41332  17.575   1.949  11.963 -0.2965 -0.0612  0.0035
24485W        W41333  10.385   9.869  11.974 -0.1081 -0.0196  0.1257
24486W        W41334  13.067   6.639  14.722 -0.2691 -0.1177 -0.1676
24487W        W41335  17.144   1.793   4.798 -0.0801 -0.2317 -0.2369
24488W        W41336  12.698   1.733  11.468  0.0454 -0.1298  0.2257
24489W        W41337  15.095  13.416   0.748 -0.3537  0.0172 -0.1944
24490W        W41338   8.501  14.300  12.949  0.2188 -0.0687 -0.0426
24491W        W41339  12.079   0.873   3.031  0.1600  0.3743 -0.1390
24492W        W41340  10.522   0.033   4.610 -0.3660  0.0682  0.0590
24493W        W41341   3.664   6.596   0.221 -0.2721 -0.0617 -0.1306
24494W        W41342   7.214   3.317   4.086  0.0942  0.1861 -0.3499
24495W        W41343   2.669   1.339  11.185 -0.0959  0.1334 -0.1668
24496W        W41344   4.682  13.211  11.752  0.2288 -0.1242  0.0258
24497W        W41345   7.239   2.398  14.838  0.2863  0.0037  0.2687
24498W        W41346  14.786  12.964  15.150  0.3924  0.1358 -0.0637
24499W        W41347  12.836   4.059   4.303  0.0657 -0.0343 -0.2406
24500W        W41348   6.640  11.995   5.433 -0.0887  0.1553  0.0329
24501W        W41349  11.115   6.161  12.273 -0.1123  0.1746  0.2388
24502W        W41350   0.466  17.889   3.787 -0.1612 -0.0410  0.1186
24503W        W41351  13.461  12.769   2.370 -0.2846 -0.0782 -0.2760
24504W        W41352   1.350  16.576  15.376 -0.1532  0.0117 -0.1325
24505W        W41353   8.706   5.883  13.715 -0.1200 -0.2714 -0.1973
24506W        W41354   1.013   4.059  12.368  0.1131 -0.0125  0.5094
24507W        W41355   4.044  15.954   0.752  0.2898  0.1941 -0.4172
24508W        W41356  18.016  16.226  13.045 -0.0348 -0.1150  0.3158
24509W        W41357  16.553   5.975  15.540 -0.1051  0.2267 -0.1219
24510W        W41358   4.204  14.205   3.366 -0.0707 -0.0246 -0.2233
24511W        W41359   9.825   4.273   4.852  0.1299  0.0008 -0.2115
24512W        W41360  16.881  14.133  10.916  0.2139  0.1628 -0.0804
24513W        W41361   9.403  16.771   1.899  0.2699 -0.3836 -0.1271
24514W        W41362   9.922   2.326  15.201 -0.1059  0.2059  0.2530
24515W        W41363   2.959   7.041  14.953  0.0680 -0.1030  0.3394
24516W        W41364   3.219  12.689  12.744 -0.2307  0.2271 -0.1425
24517W        W41365  17.383   0.999   5.620  0.0242 -0.0376  0.1321
24518W        W41366   7.590  13.717   3.516 -0.1222 -0.0459  0.1736
24519W        W41367  11.471   2.229  11.017  0.2998  0.2004 -0.0549
24520W        W41368   1.372  12.808   3.310  0.1533 -0.1832 -0.2808
24521W        W41369   2.452   3.351   3.861  0.1812 -0.0325 -0.0086
24522W        W41370  12.722   1.554   2.181  0.1128  0.1104  0.0020
24523W        W41371   9.074   6.725  16.150  0.0253 -0.0873  0.0358
24524W        W41372   7.889   3.351  11.861 -0.3363  0.2634 -0.0336
24525W        W41373   9.298   7.215   2.926  0.0952 -0.1212 -0.1430
24526W        W41374   0.352   4.473  13.573  0.1654  0.0037 -0.0221
24527W        W41375  16.282  17.594  16.052  0.0370 -0.0865 -0.0087
24528W        W41376   4.485  18.040   0.664 -0.2031  0.1065 -0.1377
24529W        W41377  11.345   1.029  10.337 -0.1479  0.0872  0.1276
24530W        W41378  15.059  14.396   2.123  0.2120 -0.0604 -0.2038
24531W        W41379   8.405  16.948   2.836  0.3138  0.0472  0.0475
24532W        W41380  17.885  11.598  11.989 -0.1594  0.2043  0.0639
24533W        W41381  16.637   6.311   3.415 -0.0710  0.1999  0.2276
24534W        W41382   5.155   9.103   5.063  0.0346 -0.0805  0.2734
24535W        W41383  16.482  16.443  12.806  0.4623 -0.0252 -0.1373
24536W        W41384  12.606   9.635  11.856 -0.0744  0.1855 -0.0482
24537W        W41385  17.642   7.263   4.567  0.1595 -0.1678  0.1129
24538W        W41386   5.145   2.898   4.003 -0.0795 -0.0990  0.0841
24539W        W41387  14.707   5.081  11.988  0.1101  0.0846  0.2727
24540W        W41388  14.386   6.974  16.266  0.0028 -0.0921 -0.0500
24541W        W41389  16.102  17.820  14.770  0.0372 -0.3273 -0.0731
24542W        W41390  17.485  11.252  15.258  0.1408  0.2205  0.0005
24543W        W41391   2.413   2.626  13.360  0.1284 -0.3981 -0.3527
24544W        W41392   5.695   6.444   0.601  0.1388  0.0894 -0.1860
24545W        W41393   6.981  17.715   3.119  0.5205  0.0430  0.1713
24546W        W41394   8.509   9.440  14.688 -0.1902  0.0920  0.1768
24547W        W41395   9.681   5.876   1.223  0.0741 -0.1248  0.4005
24548W        W41396   9.656   2.821   4.140 -0.0341 -0.0462 -0.0316
24549W        W41397   8.046  11.521  15.849  0.0154 -0.2424  0.3094
24550W        W41398   3.745   2.195  12.129 -0.0535 -0.2154  0.0298
24551W        W41399   6.991  13.390  14.244 -0.3972 -0.0804  0.2722
24552W        W41400  14.626   3.490  15.343 -0.0858  0.0061 -0.0147
24553W        W41401   7.128  13.580  12.655  0.1291  0.2554  0.2167
24554W        W41402   1.511  10.672   3.043 -0.1337  0.1324  0.0077
24555W        W41403   7.908  16.870   1.646 -0.2683 -0.4061 -0.0051
24556W        W41404   2.216   7.290  13.227  0.1383  0.1210  0.1194
24557W        W41405  13.235  13.720  15.919  0.0213  0.0548  0.3219
24558W        W41406  14.229   5.621  11.262 -0.2039 -0.3675  0.1487
24559W        W41407   4.915   7.318  15.918 -0.1947 -0.2798 -0.2076
24560W        W41408   4.367  14.649   5.041  0.5495  0.2351  0.0297
24561W        W41409   8.597  13.766  16.144  0.1659 -0.0028 -0.0830
24562W        W41410   7.677  17.163   1.139  0.2599  0.0761 -0.0499
24563W        W41411  14.471  11.084  11.277 -0.4440  0.4019 -0.0607
24564W        W41412  14.450  16.941  14.152 -0.1363 -0.1471 -0.0474
24565W        W41413  16.234   7.317  15.298 -0.3423 -0.1047  0.1327
24566W        W41414   6.040   6.799  14.993 -0.0664 -0.0832 -0.0329
24567W        W41415   1.448   5.954  12.834  0.2845  0.0307 -0.1083
24568W        W41416   6.285  13.892   4.332 -0.0000  0.0341 -0.0234
24569W        W41417   7.815  14.421  14.266  0.0389  0.0454 -0.1957
24570W        W41418   1.636  10.362   1.109 -0.1602 -0.0496 -0.0343
24571W        W41419  17.756  11.386   4.587 -0.0812  0.4322  0.1248
24572W        W41420   3.298  10.885   2.767 -0.0908  0.1324  0.3367
24573W        W41421   9.390   7.168  14.760 -0.0612 -0.0759  0.0325
24574W        W41422   9.481   2.161   1.919  0.2991  0.1679 -0.4159
24575W        W41423   5.549   3.360  15.762 -0.2210  0.4863 -0.5373
24576W        W41424  11.707  15.663   4.858  0.1842  0.0458  0.3155
24577W        W41425   1.504   8.472   2.672 -0.0839  0.0578  0.0320
24578W        W41426   5.610   3.812  12.655  0.1655  0.1248 -0.0619
24579W        W41427   5.004   3.331   0.252  0.3665  0.1382  0.1916
24580W        W41428   1.237   3.815   4.387 -0.0722  0.1989 -0.1637
24581W        W41429   3.476  14.358  15.549 -0.0989  0.1434 -0.2363
24582W        W41430  16.498   9.719   2.646  0.0134 -0.1415  0.2133
24583W        W41431   4.006  14.767  11.701  0.2869  0.3509  0.3305
24584W        W41432  10.907   2.571   3.915 -0.0515  0.0441 -0.2128
24585W        W41433  10.069   5.087   1.806  0.1087 -0.1030 -0.1393
24586W        W41434   4.517  15.517  13.232  0.0508 -0.3090 -0.0830
24587W        W41435  15.456   4.559  11.574 -0.1143 -0.1843 -0.0062
24588W        W41436  12.775   7.677  15.531  0.0982 -0.0265  0.2078
24589W        W41437  12.441   6.533  12.616 -0.4305 -0.1445 -0.3789
24590W        W41438   1.792   5.648  11.003 -0.2280  0.0340 -0.0201
24591W        W41439  15.644   8.995  12.548  0.0239 -0.1372 -0.0491
24592W        W41440  15.261  13.725   3.223 -0.3020  0.0930  0.0351
24593W        W41441  12.096   5.607  15.863  0.0440 -0.1065 -0.2609
24594W        W41442   7.476   8.795   2.839  0.0188  0.0946  0.0935
24595W        W41443   3.620   3.395   0.627  0.0685 -0.1814  0.1732
24596W        W41444  15.589   4.625   3.025  0.0164 -0.0084 -0.1145
24597W        W41445   8.412   4.902  15.950  0.1785  0.0347  0.0537
24598W        W41446   2.617  17.179  16.026 -0.0100 -0.1312  0.3467
24599W        W41447   8.465   9.061  12.356  0.0927  0.1436 -0.0581
24600W        W41448   4.961   4.862   2.907 -0.1065 -0.2880 -0.0334
24601W        W41449   5.947  13.391  15.613 -0.0560  0.0711  0.0174
24602W        W41450   7.331   5.286  12.931  0.0210  0.0572  0.1858
24603W        W41451   5.007   9.206   2.736 -0.0878 -0.1029  0.2414
24604W        W41452   5.810   9.752   4.902  0.3537  0.0284 -0.0395
24605W        W41453  13.986  14.760   2.613  0.3061 -0.3225  0.2660
24606W        W41454  15.513  15.975  13.601 -0.0134 -0.1741 -0.0083
24607W        W41455   5.274   9.869  12.917  0.4635 -0.0469 -0.1228
24608W        W41456  10.353  12.631  12.523  0.1752 -0.6365 -0.2206
24609W        W41457   0.070   0.543   3.184  0.0731  0.0067 -0.3558
24610W        W41458   5.917   7.230   2.179 -0.0656 -0.2813  0.2832
24611W        W41459   8.747   0.401  12.716  0.0539 -0.0667  0.2304
24612W        W41460  12.392   7.120  10.453 -0.1528  0.2361 -0.3002
24613W        W41461   9.882   9.602   2.641  0.0766 -0.0284 -0.1396
24614W        W41462   6.038  15.011   0.973 -0.2010  0.0088 -0.1296
24615W        W41463   2.077   5.238   4.718  0.1316  0.0531 -0.5136
24616W        W41464   6.384   1.972  12.153 -0.1219  0.0123  0.1293
24617W        W41465  17.804   7.305   1.979 -0.0305  0.0894 -0.0139
24618W        W41466  15.656   3.133  14.114 -0.0301  0.0298 -0.2797
24619W        W41467   8.338   1.981   2.569 -0.0986 -0.2383  0.1329
24620W        W41468  17.244  15.378   1.150  0.1834  0.2201  0.0216
24621W        W41469  17.240   5.033  12.110  0.2808  0.0917 -0.2530
24622W        W41470  14.871  10.028  16.188  0.0425  0.0387  0.0835
24623W        W41471  15.716   1.694  16.114 -0.3441 -0.3049 -0.0155
24624W        W41472  10.304   5.612   1.547 -0.0592 -0.0431  0.0478
24625W        W41473   7.198  11.211   2.922  0.0269 -0.1498 -0.0084
24626W        W41474  11.549  12.274  13.830 -0.1520 -0.2009 -0.0459
24627W        W41475   9.328   4.691   4.216 -0.3647 -0.0343 -0.1867
24628W        W41476  12.577   7.328  10.851 -0.1417 -0.1265  0.0010
24629W        W41477  17.019  16.298  13.683 -0.0255  0.0260  0.1293
24630W        W41478   7.842   5.860   1.543 -0.0308 -0.0610 -0.2845
24631W        W41479   0.076   3.927   1.064  0.1383  0.2728  0.2959
24632W        W41480  13.247  13.237   2.505 -0.0217 -0.2485  0.0631
24633W        W41481   1.580   1.355   0.962 -0.0541 -0.0372 -0.0756
24634W        W41482  10.660   0.123   1.408  0.2292 -0.0260 -0.0273
24635W        W41483   1.979  17.204   4.618 -0.0020 -0.0129  0.0151
24636W        W41484   5.990   0.901  11.973  0.1775 -0.0086 -0.1136
24637W        W41485   4.982   7.351  15.015  0.1140  0.0800  0.1702
24638W        W41486  16.176  14.935   1.813 -0.0999  0.0347 -0.0128
24639W        W41487   3.904   0.666   4.087  0.3532  0.2172  0.2384
24640W        W41488  12.099   8.854   3.118 -0.2787 -0.0880  0.4112
24641W        W41489   6.962   2.327   0.027  0.2511 -0.0584 -0.2678
24642W        W41490  11.313   2.940   3.975 -0.0885 -0.0959  0.1329
24643W        W41491   6.438  11.073  13.745  0.3265 -0.1786 -0.1363
24644W        W41492   0.200  15.934  14.479  0.3712  0.0776 -0.0155
24645W        W41493   4.245   2.458  13.137 -0.2446 -0.3008 -0.0538
24646W        W41494  14.684   2.884  13.135 -0.2229 -0.0857  0.1581
24647W        W41495  10.053  18.021  13.638  0.1932  0.3313 -0.1430
24648W        W41496  17.842   8.625   1.252 -0.4102  0.1234 -0.0293
24649W        W41497   6.673  17.546  14.868  0.2730 -0.1704  0.4279
24650W        W41498  13.480   2.043   1.595  0.2841 -0.2403 -0.3340
24651W        W41499   1.880   9.060  15.345 -0.0307 -0.2947 -0.0820
24652W        W41500   7.358   2.774  12.518  0.3991 -0.1066  0.1583
24653W        W41501   4.990   1.467   4.348 -0.4508 -0.1194  0.4724
24654W        W41502   2.837   8.375  14.899 -0.0540  0.1282  0.1600
24655W        W41503  12.313  14.940   1.804 -0.2190 -0.1756 -0.0437
24656W        W41504  12.645  17.418  14.829  0.0971  0.0790 -0.1000
24657W        W41505   5.286  10.578  13.707  0.1195  0.2157 -0.1490
24658W        W41506  13.871   0.336   1.676  0.3191 -0.0984 -0.0206
24659W        W41507  16.561  12.946  13.730 -0.1917 -0.0038  0.1156
24660W        W41508   1.855   1.963  16.008 -0.0163 -0.2636 -0.0250
24661W        W41509   9.675   8.323  10.971 -0.2313 -0.0174  0.1502
24662W        W41510  12.979  13.124   3.418  0.1952 -0.3289  0.0998
24663W        W41511   7.377   4.388  11.317 -0.0710 -0.0869  0.1149
24664W        W41512  13.501   0.353   4.438 -0.0465 -0.1027 -0.5218
24665W        W41513  11.216  15.114  11.790  0.1444 -0.0073 -0.2548
24666W        W41514  11.149  17.655   2.319  0.0700 -0.0634 -0.0755
24667W        W41515   0.081   2.489   4.310 -0.3026 -0.1445 -0.0986
24668W        W41516   4.174  15.039   0.363  0.1571  0.0472  0.0752
24669W        W41517  16.168  12.459   0.877 -0.1629 -0.1682 -0.0526
24670W        W41518   0.040   2.718  11.415 -0.0257 -0.0349 -0.0100
24671W        W41519   4.919  12.445   1.869 -0.0527 -0.2558 -0.0233
24672W        W41520   8.276   9.237  15.081 -0.1071  0.1695 -0.1256
24673W        W41521  17.864   4.360   1.026 -0.1667  0.2788 -0.0835
24674W        W41522   2.091   3.805   0.343  0.0367  0.1487 -0.0114
24675W        W41523  17.538   5.545   0.418 -0.3729 -0.1110 -0.1492
24676W        W41524  12.763  16.544  11.532 -0.1258 -0.0751  0.3439
24677W        W41525  15.063   7.852   5.308 -0.2003  0.1191  0.1936
24678W        W41526  15.166   0.975   1.097  0.1709 -0.0904 -0.3176
24679W        W41527  11.917  11.907  13.691  0.1909 -0.1123  0.1210
24680W        W41528  12.189   5.589  14.773 -0.1906  0.1851  0.0483
24681W        W41529  10.938  14.838  12.812  0.1854 -0.1697 -0.1052
24682W        W41530   1.864   9.659  12.164 -0.0904  0.0289  0.0765
24683W        W41531  13.447   4.951  15.193  0.1622  0.0130 -0.0648
24684W        W41532   4.695  17.836  12.939 -0.0719  0.0404  0.1331
24685W        W41533  15.508  17.118  11.662 -0.2012 -0.4275 -0.1128
24686W        W41534   2.106  16.361  12.057 -0.2135 -0.0884 -0.4372
24687W        W41535  13.923   4.393  16.097 -0.1245  0.4280 -0.0242
24688W        W41536  13.161  10.973  12.233  0.3253 -0.1900  0.0154
24689W        W41537   6.375   5.110  12.197  0.0260 -0.1192 -0.0074
24690W        W41538   6.877   1.808   4.460  0.1983  0.1911  0.1524
24691W        W41539   9.479   6.720  15.034  0.0011 -0.0154  0.0878
24692W        W41540   1.655  12.345  13.225  0.1199  0.0037 -0.3590
24693W        W41541  13.902  17.228  11.484 -0.1721 -0.3102 -0.2947
24694W        W41542  10.369   4.640   3.763  0.0780 -0.0042 -0.3243
24695W        W41543   4.433  12.564   3.858  0.1503 -0.1364  0.0376
24696W        W41544   1.483   6.455   2.965  0.0194  0.1391  0.1870
24697W        W41545   7.237  16.269   4.332 -0.0632  0.0868 -0.0598
24698W        W41546   5.928   6.915  13.422  0.2428 -0.2121 -0.2189
24699W        W41547   8.505   4.232  12.532 -0.1737  0.0258 -0.0247
24700W        W41548  17.565   6.534   1.450 -0.1603 -0.0089  0.0628
24701W        W41549  17.178   2.315  13.450 -0.2891 -0.1337  0.1675
24702W        W41550   5.821   3.206   2.682  0.4134  0.2827  0.0187
24703W        W41551  11.998  15.070   6.260  0.2223  0.1120  0.0362
24704W        W41552   7.569   7.696   2.222 -0.0005 -0.0366  0.0277
24705W        W41553   4.567  15.792   0.709 -0.1104  0.0112 -0.0822
24706W        W41554   8.236  13.461  12.711  0.2124  0.2715  0.2248
24707W        W41555  10.730   5.464   0.258 -0.0702  0.0449  0.0063
24708W        W41556   3.217   8.627   4.100  0.0871 -0.0854 -0.0034
24709W        W41557   3.604  17.108  16.106 -0.0382 -0.0971 -0.0844
24710W        W41558   1.045   4.263   2.301 -0.2866  0.0120  0.3265
24711W        W41559  17.624  17.927  12.788  0.0507  0.3954  0.2061
24712W        W41560  12.593  17.136  11.585 -0.3828  0.1957  0.2277
24713W        W41561  11.766   7.384  15.753 -0.0703 -0.1944 -0.2654
24714W        W41562   9.328  15.202   4.958  0.0147  0.3534  0.4390
24715W        W41563  16.163   4.528  11.121  0.1736  0.0777  0.1949
24716W        W41564   4.182   9.696   1.439 -0.1735 -0.3944  0.4674
24717W        W41565  17.792  11.476   3.650  0.1642 -0.0453  0.0644
24718W        W41566   7.355  10.713   2.058 -0.1215 -0.0065 -0.0094
24719W        W41567  10.109   6.542   5.356 -0.0927  0.1460 -0.1221
24720W        W41568   7.091   0.323   0.816 -0.1422  0.0253 -0.0006
24721W        W41569  18.035   5.499   3.080 -0.1921  0.1179  0.1986
24722W        W41570  16.047  12.060  11.585  0.1320  0.3469  0.1222
24723W        W41571   6.235   1.051  11.517 -0.0284 -0.0144 -0.0140
24724W        W41572  12.712   6.580  14.282  0.0034  0.0474  0.0051
24725W        W41573  14.971  17.462  14.556 -0.3356 -0.3074 -0.0232
24726W        W41574  18.021   3.832  15.636  0.2389  0.0158  0.0738
24727W        W41575   4.639  12.830   3.034 -0.0455  0.2937 -0.2623
24728W        W41576  11.459   3.993  12.224 -0.1117  0.2420  0.4142
24729W        W41577   8.274  12.886  11.215  0.1579  0.1362 -0.1146
24730W        W41578   2.125  13.272   4.936 -0.0179 -0.0047 -0.0007
24731W        W41579   0.096  10.328   4.675 -0.1599  0.1392  0.1308
24732W        W41580   1.116   7.543  13.083  0.0658  0.0955  0.2726
24733W        W41581   8.783  17.452   4.653  0.0917 -0.1194  0.1158
24734W        W41582  13.970   5.518   4.432 -0.0899 -0.2761 -0.0922
24735W        W41583   0.184  11.043  11.086  0.0002  0.3893 -0.3071
24736W        W41584  14.370   5.414   0.788  0.0026  0.0139  0.1933
24737W        W41585  10.099  15.081  12.695  0.0698 -0.0902  0.3254
24738W        W41586  17.784  11.984   3.304 -0.2701 -0.1923  0.1058
24739W        W41587   8.585  17.294   1.255 -0.0624  0.2336  0.1251
24740W        W41588  15.181  15.619   2.573  0.0182  0.2074  0.0199
24741W        W41589  12.298  14.147   6.106 -0.3399  0.1726  0.0231
24742W        W41590  14.562  10.600   3.218 -0.1243 -0.0070 -0.3073
24743W        W41591   8.326  14.921  15.802 -0.1018  0.0539 -0.1039
24744W        W41592   0.049   2.323   1.204  0.2946  0.2012 -0.2133
24745W        W41593  10.361   3.770  12.244 -0.2352 -0.1095  0.0212
24746W        W41594  13.280  13.041   3.027 -0.1915 -0.0880  0.0043
24747W        W41595   3.260  11.935  11.574  0.2853  0.1053  0.3484
24748W        W41596  16.785  17.723  11.446 -0.0148  0.2280  0.0921
24749W        W41597  12.609   6.420  14.764  0.0216  0.2433 -0.0336
24750W        W41598  14.565   5.767   1.223  0.0401 -0.4862 -0.0066
24751W        W41599   5.827   6.368   5.592 -0.1686 -0.1138  0.3860
24752W        W41600  11.274  11.378  12.598 -0.0549 -0.0833 -0.0852
24753W        W41601   3.580  12.189   2.324 -0.1791 -0.0250  0.1101
24754W        W41602   3.826   3.776  12.954  0.0291 -0.0302 -0.0167
24755W        W41603  16.028   3.125  16.034 -0.0906  0.2469  0.0459
24756W        W41604   8.745   6.578   5.598 -0.1529  0.0917 -0.2678
24757W        W41605   2.165   9.309   4.450 -0.1473 -0.0239 -0.1747
24758W        W41606   8.130   3.456   3.499  0.2717 -0.1106 -0.2646
24759W        W41607  12.657  12.571   1.252 -0.2227  0.1638  0.4910
24760W        W41608   4.521  18.029  13.458  0.0321 -0.3024 -0.4911
24761W        W41609   1.269   5.121  14.882 -0.1911 -0.3909 -0.1521
24762W        W41610  16.066  12.696  16.248  0.0652 -0.0585  0.1031
24763W        W41611   4.064  16.283  14.096  0.0794 -0.2243 -0.4556
24764W        W41612  12.351  14.067   3.235 -0.4412  0.2266 -0.0604
24765W        W41613   3.763  17.214   6.512  0.1261  0.0502  0.1243
24766W        W41614  11.641  15.337  13.481  0.4080 -0.1274  0.0253
24767W        W41615  11.964   2.018   3.383  0.2066  0.1434  0.1894
24768W        W41616   7.764  14.921  15.130  0.0784 -0.3033  0.0576
24769W        W41617  13.821  12.581  15.477  0.0455  0.1195  0.3186
24770W        W41618  16.176  11.253  14.249 -0.1661 -0.0023  0.2341
24771W        W41619  10.632  11.321  15.804 -0.0018 -0.0827 -0.0124
24772W        W41620   4.348   2.750  14.512 -0.1541 -0.0221  0.2624
24773W        W41621   8.911   4.925  14.129 -0.0901  0.2962  0.0550
24774W        W41622  17.615  14.296  11.964 -0.0110 -0.2666 -0.0853
24775W        W41623  13.097  12.176   3.047  0.1160  0.0181  0.0434
24776W        W41624  13.024   3.990  15.762  0.0153 -0.5219  0.0514
24777W        W41625  16.931   8.013   0.656 -0.0700 -0.0282  0.2041
24778W        W41626   1.793  17.855  13.344  0.3787 -0.0055  0.1051
24779W        W41627   5.996  13.435   1.012  0.0506 -0.0723  0.4553
24780W        W41628  17.819   8.078  16.144  0.2872  0.3836 -0.4096
24781W        W41629   9.761  14.461   1.247 -0.1231 -0.1185  0.1407
24782W        W41630   1.071  12.100  12.929 -0.5391 -0.1973  0.0610
24783W        W41631   6.809  14.142   4.357 -0.1476  0.0988 -0.1148
24784W        W41632   3.034  11.154   0.600 -0.0540 -0.0958  0.2285
24785W        W41633  16.377  13.757   3.316  0.1000  0.0011  0.4069
24786W        W41634  17.520   4.258   4.729 -0.2813  0.4609 -0.0732
24787W        W41635  10.635  16.363   0.393  0.0625  0.0740  0.0480
24788W        W41636  13.711   0.705   4.881 -0.1133 -0.1104 -0.2349
24789W        W41637   6.898  12.364   5.715  0.0005  0.1621  0.0411
24790W        W41638   4.379   0.017   4.545 -0.0465  0.3721 -0.1281
24791W        W41639   2.762   1.811  15.366  0.4266  0.1642  0.2705
24792W        W41640  16.730  11.436  10.458  0.2193  0.1200 -0.2980
24793W        W41641   7.139  15.457  12.438  0.0128 -0.1058 -0.0836
24794W        W41642   9.195   3.709  12.956 -0.0409  0.1790  0.0905
24795W        W41643   8.627   9.425   1.244 -0.2590  0.2382 -0.2262
24796W        W41644  10.635   6.128  12.233 -0.0476  0.1317 -0.1778
24797W        W41645  10.392   2.133   1.958  0.0914  0.1968 -0.2132
24798W        W41646   0.438  12.822   5.058  0.0137 -0.4385  0.2272
24799W        W41647   0.456   3.511  12.715 -0.0308  0.2160 -0.1642
24800W        W41648  17.279   3.829  14.862 -0.3010 -0.2348  0.1823
24801W        W41649  15.976  16.053   4.131 -0.1213  0.1453  0.1876
24802W        W41650  11.986   1.614   2.709  0.1951 -0.0959 -0.0243
24803W        W41651  13.353   7.421  11.726 -0.0612 -0.2557 -0.3907
24804W        W41652   5.185   3.978  12.126  0.2083  0.0984  0.4219
24805W        W41653  13.459  16.509   0.260  0.0938 -0.1276  0.0880
24806W        W41654  16.019   6.863  12.136 -0.1477  0.0309  0.0639
24807W        W41655   7.993   8.841  15.034  0.1620  0.0409 -0.1256
24808W        W41656  14.737   3.935  15.040  0.0808  0.0217 -0.0480
24809W        W41657   3.717  10.805  13.994 -0.1252 -0.0846  0.1885
24810W        W41658  11.902   2.615  12.397  0.2589 -0.2043 -0.1306
24811W        W41659  11.447  10.965  12.920 -0.0663 -0.3306  0.3711
24812W        W41660  12.386  14.312   2.254 -0.0233 -0.3008  0.2992
24813W        W41661  16.380  16.170  11.029  0.3260 -0.1869 -0.0323
24814W        W41662  13.246  13.061  13.226  0.3311 -0.1240  0.3035
24815W        W41663   1.805  17.443  12.998  0.2370  0.0773  0.0106
24816W        W41664  17.338  13.844  15.508 -0.0666 -0.2549 -0.0227
24817W        W41665   6.612   4.679  11.761  0.0521 -0.1399 -0.4319
24818W        W41666  11.286  16.847  12.541 -0.1544  0.0329 -0.3607
24819W        W41667  13.538   1.337  11.106  0.1215  0.0923  0.1056
24820W        W41668   7.802   4.505  11.104 -0.0585  0.0584  0.1520
24821W        W41669   2.254   0.974  14.006  0.0434  0.0909  0.1354
24822W        W41670  11.723  14.934  15.188 -0.4677  0.0234  0.0403
24823W        W41671  14.228   9.366  13.892 -0.1853  0.2373  0.1004
24824W        W41672   6.646   0.515   3.664  0.1165 -0.2649  0.0790
24825W        W41673  10.591  12.518  12.115 -0.3083 -0.0533 -0.0617
24826W        W41674   8.646  17.072  14.009 -0.1917 -0.0415 -0.2445
24827W        W41675   5.910  14.776   3.105  0.1068  0.1126 -0.1850
24828W        W41676   0.802  16.506   1.569  0.1634  0.2208 -0.2408
24829W        W41677   7.505  17.305  12.897 -0.2385  0.1769 -0.1936
24830W        W41678  11.066   3.414  14.489  0.2011  0.2058  0.3948
24831W        W41679   5.108   3.907   4.509  0.2482 -0.0395  0.0055
24832W        W41680  15.137   8.251  12.710  0.1108 -0.0391 -0.0191
24833W        W41681   3.654   4.781  12.758 -0.0227  0.1349 -0.1308
24834W        W41682  12.878  17.365  15.366  0.0160  0.0147 -0.0101
24835W        W41683   7.016  11.936  13.926 -0.0700 -0.2487 -0.0645
24836W        W41684  14.256   8.403  14.153 -0.1759 -0.3164 -0.0338
24837W        W41685  10.461   8.821  12.803  0.7124  0.0240 -0.1947
24838W        W41686   1.922   2.409  13.380  0.0644 -0.0885 -0.1316
24839W        W41687  15.250   2.840  16.164 -0.1049  0.1637 -0.2280
24840W        W41688  14.183   1.094   4.380  0.0604 -0.0003  0.1946
24841W        W41689  10.573   2.893   2.999  0.0586  0.0809  0.0910
24842W        W41690   4.740   1.367   1.915 -0.0003 -0.2200 -0.3056
24843W        W41691  14.454  13.711  15.804  0.1980 -0.0006 -0.0275
24844W        W41692   2.189   5.523  11.440  0.1796 -0.0533 -0.0715
24845W        W41693  14.054   5.303  12.660 -0.2192  0.0685 -0.1812
24846W        W41694  10.185  18.016   4.271 -0.0785 -0.0729  0.1360
24847W        W41695   5.467  17.842  13.059 -0.1843 -0.1328 -0.1989
24848W        W41696  10.979   3.030   2.174  0.0199 -0.0247 -0.2890
24849W        W41697  11.529   2.339   3.358 -0.0225  0.0365 -0.1081
24850W        W41698   2.989   8.726   2.874  0.2753 -0.1316 -0.2292
24851W        W41699   1.274   1.670   4.115  0.3952 -0.2521  0.0745
24852W        W41700  17.074  11.809  11.415 -0.1401 -0.2394  0.0574
24853W        W41701  14.696   4.657  16.109 -0.0188  0.0319  0.0720
24854W        W41702  10.841  13.580   0.746 -0.0199 -0.1013 -0.2131
24855W        W41703   6.292   6.809  12.053  0.3363 -0.0055 -0.5044
24856W        W41704   1.205  12.127   1.971  0.1858 -0.2184  0.0595
24857W        W41705  12.771  13.190  11.835 -0.0912 -0.2451 -0.1002
24858W        W41706  17.676   7.991   2.106  0.0994 -0.2866  0.2205
24859W        W41707  11.616   0.082   2.492 -0.1167  0.1153  0.0476
24860W        W41708   2.772   7.092  10.793 -0.0151 -0.1356 -0.0579
24861W        W41709   8.524   1.174   3.718 -0.0757 -0.1510  0.2126
24862W        W41710  17.792  12.836  12.718 -0.1372  0.0059 -0.0135
24863W        W41711  12.749  17.688   1.841 -0.2782 -0.1010 -0.1265
24864W        W41712   7.309   2.806  13.523  0.1069 -0.0361  0.1304
24865W        W41713  11.785  17.938   4.550  0.0701 -0.1405  0.1052
24866W        W41714  14.635   0.672   1.790 -0.0418  0.2092 -0.1161
24867W        W41715  15.895   4.881  13.884 -0.3452  0.1493  0.1056
24868W        W41716   1.195   2.941   1.949 -0.0545 -0.2669  0.2618
24869W        W41717   8.984   9.627  15.852  0.3200 -0.2702 -0.1807
24870W        W41718  16.666   1.741   1.684  0.1568 -0.1010 -0.2430
24871W        W41719   9.250  10.518  11.805 -0.0997  0.1418 -0.0368
24872W        W41720   4.290   9.608  15.455 -0.0133 -0.2186  0.0703
24873W        W41721  15.001  17.232  13.519  0.1794 -0.2144  0.0870
24874W        W41722  17.132   3.013   1.759  0.0803  0.2023 -0.1005
24875W        W41723   2.763   0.563  13.012 -0.0700 -0.1045 -0.3582
24876W        W41724   5.750  10.826   0.321 -0.1860 -0.0827  0.0228
24877W        W41725  11.166  16.892  11.894 -0.3147  0.3801  0.0153
24878W        W41726   0.379   0.815   4.670 -0.2479  0.2069  0.0343
24879W        W41727  12.207  13.279   0.956  0.2418 -0.0456  0.1892
24880W        W41728   7.422   5.229   4.751  0.0255  0.1620  0.0872
24881W        W41729   0.147   4.633   3.022 -0.0871  0.2312  0.0081
24882W        W41730  16.263   3.077  14.182 -0.0359 -0.1311  0.3133
24883W        W41731   9.006  14.324   1.346  0.0059 -0.0583 -0.0241
24884W        W41732  17.988   6.940   5.903 -0.0363  0.1652  0.2651
24885W        W41733  15.597  12.606   2.725 -0.0165  0.2005 -0.2510
24886W        W41734  11.360   7.427  15.377  0.2995  0.3502  0.2986
24887W        W41735   0.702   8.000  11.457  0.2368  0.2050 -0.0929
24888W        W41736  16.126   9.159   0.873  0.2587  0.0600  0.1153
24889W        W41737   0.128   6.218  13.997 -0.2828  0.1608  0.1160
24890W        W41738   1.581   3.468  15.790  0.2345 -0.4467 -0.0635
24891W        W41739   9.727  12.315   3.051 -0.1027 -0.0418  0.2547
24892W        W41740  14.336   8.013   0.404 -0.0981  0.0910 -0.1433
24893W        W41741   2.808   3.753   4.635  0.0809 -0.1342 -0.0105
24894W        W41742  14.764   5.803   0.726 -0.4285  0.0419 -0.0399
24895W        W41743  15.243  16.132  15.451 -0.0283  0.3351 -0.0754
24896W        W41744  15.603   6.145  12.958  0.1447  0.1374 -0.0264
24897W        W41745   6.855  17.539  11.930 -0.0076 -0.0852 -0.2562
24898W        W41746  15.909   9.070  14.962 -0.3235  0.0142 -0.1612
24899W        W41747   8.096   6.982  12.134  0.0631  0.1107  0.1011
24900W        W41748  15.961  17.301   4.939  0.0353 -0.0192  0.1129
24901W        W41749  14.054   8.175  16.245 -0.2143  0.1921 -0.1796
24902W        W41750  14.693  10.273   2.869  0.2334 -0.1493 -0.0478
24903W        W41751   2.102  15.498   5.350  0.1305 -0.0704 -0.4505
24904W        W41752  15.934  10.059   1.845  0.0423  0.0321  0.1895
24905W        W41753  10.175   2.560  11.882  0.0712  0.2668 -0.4394
24906W        W41754   6.427  11.470   3.541  0.2379  0.0721  0.0915
24907W        W41755  15.054   3.118   0.329 -0.2411  0.0210  0.0252
24908W        W41756   0.721  15.998   2.977  0.2208 -0.1676  0.0855
24909W        W41757  10.289   9.507  13.087 -0.1612 -0.1334 -0.2766
24910W        W41758  13.112   4.778   5.673  0.0336  0.1796 -0.0410
24911W        W41759  12.099  10.573   4.336  0.0452 -0.4576  0.0331
24912W        W41760   1.312   5.618  13.509 -0.1817 -0.1271 -0.2972
24913W        W41761   8.093  16.832   1.190 -0.0599 -0.0737 -0.1808
24914W        W41762   8.639   8.797  13.946  0.1163  0.0642 -0.2001
24915W        W41763  15.469  13.620   1.012 -0.0155 -0.3602 -0.1302
24916W        W41764   4.898  13.144   0.150  0.1306 -0.2203  0.1679
24917W        W41765  10.841  14.076  15.311  0.0160 -0.2742  0.0972
24918W        W41766   9.411  11.043  12.239  0.1365 -0.3030  0.1385
24919W        W41767   2.320  13.001  14.578  0.0729  0.0586  0.1550
24920W        W41768   5.753   8.738  13.193 -0.0410  0.2046  0.0415
24921W        W41769  16.674   0.821  15.840 -0.0411  0.1586 -0.2041
24922W        W41770   8.343   8.301   3.790  0.0746 -0.1622  0.4091
24923W        W41771  10.089  11.242  15.127 -0.0104  0.2123  0.0167
24924W        W41772  16.893  17.425   3.362 -0.1868  0.0192 -0.1478
24925W        W41773   4.730   5.840   2.029  0.2941  0.0696  0.0614
24926W        W41774   3.426  11.077   2.254  0.0610  0.2811  0.1112
24927W        W41775   9.854   0.274  15.607 -0.1808  0.0189  0.2975
24928W        W41776   9.712  14.894  12.384 -0.1483 -0.0674 -0.0410
24929W        W41777   2.175   3.402   1.140  0.1002 -0.0875 -0.0534
24930W        W41778  10.817   9.456   1.999 -0.0977  0.0358 -0.0508
24931W        W41779   0.879  11.408  12.154 -0.0594 -0.3872  0.4469
24932W        W41780   6.329  10.523   2.752 -0.0684  0.1826 -0.0836
24933W        W41781   3.340   8.869   1.089 -0.0684  0.0074 -0.0155
24934W        W41782   6.960   3.178  11.178  0.6787 -0.2613 -0.2777
24935W        W41783   8.666   3.684  14.193 -0.1044 -0.1111  0.0129
24936W        W41784   0.636   9.754  12.023 -0.3087 -0.0281  0.2365
24937W        W41785   5.848  16.570   4.696 -0.0116 -0.1624 -0.1548
24938W        W41786  12.357  12.445  13.290 -0.1057  0.2612 -0.0204
24939W        W41787   1.723   2.124  15.501  0.3439 -0.0121 -0.0654
24940W        W41788  10.488   2.890   2.455 -0.3259  0.2926  0.0801
24941W        W41789   5.725   1.201  12.232  0.3253 -0.0295 -0.0513
24942W        W41790  14.487   1.739  14.550 -0.0565 -0.2823  0.1054
24943W        W41791  14.288   3.114  14.650 -0.0560 -0.2244 -0.0341
24944W        W41792   4.872  11.076  12.055  0.0532 -0.0528 -0.2427
24945W        W41793  13.135  10.387   0.810  0.3021  0.0298  0.2263
24946W        W41794  15.195   9.471   4.665  0.0981  0.0405 -0.2800
24947W        W41795   5.432  13.190   6.063  0.3160 -0.0356  0.0629
24948W        W41796   8.547  16.051  13.645  0.0700  0.1401 -0.0832
24949W        W41797  13.832   8.385  12.475 -0.0759  0.0350 -0.1338
24950W        W41798   6.479   9.586  12.318 -0.0294  0.0187 -0.0425
24951W        W41799   9.299  12.383  13.439 -0.1006 -0.1758 -0.0747
24952W        W41800   9.072   5.025  12.903  0.1027  0.0862  0.1226
24953W        W41801   0.249   9.396  14.263  0.1803  0.0997 -0.0756
24954W        W41802  17.474   3.742   5.137  0.1999  0.1841 -0.0212
24955W        W41803   6.545   2.689  14.265  0.4247  0.1678 -0.0613
24956W        W41804   7.399   7.704  11.962  0.3756 -0.2066 -0.0862
24957W        W41805  13.638   1.563  10.461 -0.0065  0.2033  0.2114
24958W        W41806   1.788  15.629  13.321  0.0039 -0.0458  0.0459
24959W        W41807   3.142   0.204  11.724  0.4026 -0.0349  0.1647
24960W        W41808  14.951  10.339  15.794 -0.0124 -0.0536 -0.0525
24961W        W41809  15.550  16.859   2.311  0.3313 -0.1814  0.1480
24962W        W41810  16.446   4.647   5.470  0.1575  0.1355  0.1086
24963W        W41811   3.765   1.065  14.627 -0.2802 -0.2837 -0.0373
24964W        W41812   9.594   3.400   3.212  0.0731 -0.1383  0.0715
24965W        W41813  11.729  17.476  12.114  0.0604  0.1382 -0.2245
24966W        W41814  15.763  15.651   2.780  0.3281 -0.0540  0.0288
24967W        W41815  14.820   7.469   0.536 -0.1385 -0.3241 -0.3304
24968W        W41816   8.533   0.067   1.012  0.0825  0.0284  0.0976
24969W        W41817  14.309   8.410   4.687  0.1236  0.3574  0.0139
24970W        W41818   8.163   2.339   2.917 -0.2763  0.3182  0.4185
24971W        W41819   5.128   3.496   2.016  0.1623 -0.2719 -0.1451
24972W        W41820  13.538  16.834  11.357  0.1405 -0.1666 -0.4300
24973W        W41821   0.543  10.684  13.295  0.2030 -0.1957  0.4790
24974W        W41822  15.115  12.414   4.901 -0.1099  0.0452  0.0128
24975W        W41823   2.392   9.696   1.216 -0.2243 -0.0071  0.0736
24976W        W41824   7.303  16.847  10.206 -0.4460  0.5065  0.0405
24977W        W41825   0.743  15.682  11.733 -0.0839 -0.2964 -0.0974
24978W        W41826  11.369   0.026   5.459 -0.0804 -0.0948  0.1262
24979W        W41827   6.410  15.622   5.319 -0.1523  0.1089 -0.0383
24980W        W41828  13.088   7.590  11.340 -0.0524 -0.2278 -0.1286
24981W        W41829   7.079  15.727  15.683 -0.0254  0.0438  0.0023
24982W        W41830  15.056   2.131   3.941 -0.3673  0.1425 -0.0280
24983W        W41831   2.763  14.275   5.591  0.2059  0.1261  0.0115
24984W        W41832  15.740   0.665   4.917  0.1946 -0.0677 -0.1970
24985W        W41833   5.355   7.747  15.419  0.2098 -0.0681 -0.0537
24986W        W41834   7.237   8.163  12.342 -0.1908  0.0799  0.2764
24987W        W41835  14.997  14.107   0.329  0.2188  0.0567 -0.2380
24988W        W41836  14.483  11.681  13.276  0.1043 -0.0674 -0.0686
24989W        W41837   0.124  13.413  12.079  0.1513  0.2839 -0.1882
24990W        W41838   0.065  14.445  14.481  0.0833 -0.0499 -0.0977
24991W        W41839  14.684   3.522   3.787  0.0245  0.3536  0.2568
24992W        W41840  17.085   4.128   0.072  0.1615  0.0513  0.0672
24993W        W41841   7.718   6.371   2.254  0.1788 -0.4097 -0.3838
24994W        W41842   7.444   9.672   0.147  0.2053  0.0336 -0.1875
24995W        W41843   5.081   4.855  12.630  0.1691  0.1370 -0.0890
24996W        W41844  13.567   0.294  15.297 -0.0933 -0.1297  0.2669
24997W        W41845   8.839  13.722   4.440  0.1262 -0.3246  0.0825
24998W        W41846  11.345  11.293   0.720  0.0196 -0.1038  0.1681
24999W        W41847   0.033  13.622  11.405 -0.0247  0.2851 -0.0442
25000W        W41848   0.813   3.359  11.430 -0.1487 -0.1605  0.0308
25001W        W41849  15.065  17.017  11.865  0.0784  0.0156 -0.0193
25002W        W41850  17.907  12.162   4.398 -0.0526  0.0973  0.3108
25003W        W41851   2.293   1.383  12.085 -0.0333  0.2798 -0.2550
25004W        W41852  12.727   2.667   2.506  0.1732  0.0070  0.0613
25005W        W41853   7.099  12.331  13.538 -0.4549 -0.4707  0.0775
25006W        W41854  16.414  15.433   3.660  0.0471  0.3295 -0.0663
25007W        W41855   8.954   2.116  15.192  0.2921 -0.0141 -0.3617
25008W        W41856   6.084  10.396   2.062  0.2018 -0.1477 -0.2459
25009W        W41857  15.831   8.157   1.995  0.3205  0.0076  0.0861
25010W        W41858   0.192  12.769  12.406  0.0243 -0.1670 -0.2656
25011W        W41859   2.485   2.233  12.626  0.1899  0.0873 -0.1567
25012W        W41860   5.158  16.552   2.996 -0.0614 -0.2749 -0.1730
25013W        W41861   2.074  17.683   0.950  0.4137  0.0524  0.0150
25014W        W41862   9.985  12.746   2.833 -0.2221  0.2016 -0.0375
25015W        W41863  11.105   5.682  12.129  0.1916  0.0753  0.2629
25016W        W41864   6.201  16.471  12.435  0.2982  0.0513 -0.1032
25017W        W41865   6.998   4.077   1.187 -0.0183  0.4808  0.1820
25018W        W41866   8.386   9.616  13.293 -0.1437  0.0636  0.2918
25019W        W41867   5.565  14.113   4.700  0.0043  0.1246 -0.1407
25020W        W41868  17.004  15.181   5.246 -0.3469 -0.0067 -0.2144
25021W        W41869  15.329   8.400  13.642  0.1094  0.1227 -0.1738
25022W        W41870   9.768  16.136  12.050  0.0480  0.2331 -0.2496
25023W        W41871   0.215  10.154   2.197 -0.1380  0.1941  0.0547
25024W        W41872  11.418  12.848  15.459 -0.3101 -0.0619 -0.0199
25025W        W41873  10.010  11.049   1.521  0.0825 -0.2930 -0.1720
25026W        W41874  15.465  13.803  11.842  0.1716  0.0787  0.0597
25027W        W41875   6.148   0.092   6.468  0.1867 -0.1050 -0.1392
25028W        W41876   2.749   4.737   1.869  0.1158 -0.0288 -0.0408
25029W        W41877   0.319   5.630   5.319  0.1897 -0.5305 -0.3329
25030W        W41878   2.197  12.394  10.615  0.0600 -0.0362 -0.0088
25031W        W41879   2.943   7.744  10.104  0.1033  0.3017  0.1935
25032W        W41880  12.791  13.356   4.744 -0.1289 -0.1185  0.0102
25033W        W41881   9.246   2.959   5.421  0.1433  0.0979 -0.1620
25034W        W41882   5.353  15.034  11.965  0.1191 -0.2402  0.6005
25035W        W41883  16.274   1.302  15.522 -0.0455  0.0598 -0.2993
25036W        W41884   8.183  15.317  13.917  0.2212  0.0299  0.0564
25037W        W41885   0.857   2.965  13.936 -0.1373  0.1743  0.0372
25038W        W41886   9.485  15.343   3.693  0.2413  0.0648  0.0791
25039W        W41887   8.226   9.574  14.257 -0.1787  0.0769 -0.0113
25040W        W41888   2.446   9.785   4.618 -0.1745 -0.1208  0.0892
25041W        W41889  13.309  15.197  14.159  0.0369 -0.1092  0.0826
25042W        W41890   6.406  17.271  15.713 -0.3078  0.2313 -0.0494
25043W        W41891  17.023  10.666   3.077 -0.1433  0.0556  0.2499
25044W        W41892   6.015   3.461  11.270  0.0010 -0.2166 -0.1666
25045W        W41893  15.024   3.146  12.187 -0.3465 -0.0081 -0.0209
25046W        W41894  15.558  17.425   3.687 -0.2229 -0.2919 -0.0788
25047W        W41895   9.226   1.364   3.922 -0.1191 -0.1042 -0.0394
25048W        W41896  10.660   3.953  15.101  0.0633 -0.0031 -0.1659
25049W        W41897  13.128  15.586  11.484  0.3521  0.0107  0.2183
25050W        W41898  12.660   0.762   1.134 -0.0509 -0.0166 -0.0486
25051W        W41899   2.832  16.978  12.981 -0.0508 -0.2009  0.0835
25052W        W41900  15.026  11.877  12.114 -0.1214  0.1017  0.0732
25053W        W41901   1.165   7.297  11.466  0.0791  0.0430 -0.2000
25054W        W41902   7.783  10.886   3.612  0.2133 -0.2466  0.2886
25055W        W41903   7.545   6.993   4.365 -0.1213 -0.0078  0.0167
25056W        W41904  16.639   9.855   1.291  0.0867  0.0445 -0.0446
25057W        W41905   6.442  15.770   3.575  0.3018 -0.2363 -0.0687
25058W        W41906   1.236  11.680  12.344 -0.1289  0.2288 -0.0354
25059W        W41907   5.831   3.600   2.991  0.1482  0.0219  0.0238
25060W        W41908   0.568  12.371  12.895 -0.0920  0.1687  0.1458
25061W        W41909   2.385   8.845   2.179  0.2004  0.1347  0.0677
25062W        W41910  13.160   7.048  13.402 -0.0156  0.0095  0.1709
25063W        W41911  16.165   1.910   2.782  0.2473 -0.1671 -0.0743
25064W        W41912   2.578  14.389  15.456 -0.4246  0.1172 -0.2903
25065W        W41913  16.428   3.512   1.316 -0.0387  0.2374 -0.3427
25066W        W41914  12.600  16.834  14.433 -0.3077  0.1300  0.2582
25067W        W41915   5.531   1.656  12.127 -0.5333 -0.1530 -0.3138
25068W        W41916   6.243  16.378   2.461  0.0256  0.2502 -0.0370
25069W        W41917   2.755  17.586  14.575  0.0587  0.1178 -0.0295
25070W        W41918   8.991   1.197   2.868  0.0688  0.1255 -0.0187
25071W        W41919  11.006   4.158  10.869 -0.2018  0.0038 -0.2136
25072W        W41920   1.589   7.297   0.753  0.0749  0.0494  0.0321
25073W        W41921   3.477   5.387   3.824  0.2464 -0.2124  0.0412
25074W        W41922   6.586  11.563   5.830 -0.1437 -0.4382  0.0985
25075W        W41923   6.682  14.677   0.374 -0.0255 -0.1657 -0.2166
25076W        W41924  14.271   4.855  16.194  0.0555  0.0460  0.1989
25077W        W41925   0.228  11.971  13.313 -0.1504  0.4273  0.3432
25078W        W41926   0.755   8.459  10.519  0.1190 -0.1241  0.0390
25079W        W41927  12.018  17.209   3.847 -0.1700  0.2393 -0.1476
25080W        W41928   0.836  16.963  15.497  0.3374 -0.2806  0.0230
25081W        W41929   3.061   3.765  13.304  0.0256  0.0652 -0.2282
25082W        W41930   6.226   9.977  13.319  0.1239 -0.0421 -0.0095
25083W        W41931  13.057   7.368  10.030  0.1009 -0.0039 -0.1382
25084W        W41932   4.742  10.845   4.931  0.0202  0.1438  0.3393
25085W        W41933  10.743   3.721   2.743  0.2962 -0.0819  0.2994
25086W        W41934   4.282   3.494  12.778 -0.0015  0.3037  0.1654
25087W        W41935   2.462   5.933   0.398 -0.1802  0.0390  0.1952
25088W        W41936   1.753   7.794  14.661 -0.1714  0.1551 -0.2824
25089W        W41937  17.228  10.597   6.027  0.0471  0.1817  0.2335
25090W        W41938  15.182   9.834   0.693  0.0413  0.0236  0.5312
25091W        W41939   0.121   6.779  15.110  0.2981  0.1645  0.3603
25092W        W41940   4.831   5.904  15.901 -0.1196  0.1882  0.1067
25093W        W41941  17.537   5.655  16.132 -0.0933  0.2250  0.0938
25094W        W41942   6.797   0.214  14.298  0.0645 -0.2774  0.1545
25095W        W41943   7.553  11.422  15.645 -0.1347  0.1890 -0.2252
25096W        W41944  17.686   0.229   1.471  0.0681 -0.2726  0.0358
25097W        W41945  16.655  10.245   0.959  0.2530 -0.1931 -0.0356
25098W        W41946  15.848   7.349  16.057  0.1724  0.0965  0.0087
25099W        W41947  16.899   5.968  15.212  0.1348  0.0255 -0.0150
25100W        W41948   1.330   1.197   4.486 -0.0252  0.0555 -0.0068
25101W        W41949  16.186   0.855  16.069  0.1635  0.1119  0.0488
25102W        W41950  16.491  11.962  15.811  0.0119 -0.0520 -0.1846
25103W        W41951  12.560   9.559   1.162  0.2634  0.1134  0.1679
25104W        W41952  16.459   2.016  13.737 -0.2430  0.1349  0.1066
25105W        W41953   6.482  10.571  14.333  0.1392 -0.1339 -0.0247
25106W        W41954   6.036  10.241  15.180  0.2175 -0.2167  0.0865
25107W        W41955   6.929   0.798  15.872 -0.0599  0.1131 -0.0013
25108W        W41956   1.335   5.711   0.668 -0.0587 -0.3916 -0.0081
25109W        W41957   1.648   4.767  13.501  0.2384  0.0735 -0.0672
25110W        W41958  15.198  12.607   4.445  0.0949  0.1981  0.1016
25111W        W41959  14.436  13.751   2.714 -0.1694  0.2397  0.0898
25112W        W41960  14.990  10.779   1.152  0.0177 -0.1280 -0.0961
25113W        W41961   6.863   8.068   5.208 -0.2042 -0.3167  0.1061
25114W        W41962  14.450   7.238   4.290 -0.0133 -0.0344  0.0399
25115W        W41963  17.723  14.799   1.171 -0.0095  0.0858  0.0760
25116W        W41964  17.835  12.709   4.461  0.2177  0.3283  0.0109
25117W        W41965   2.598  14.602   4.573 -0.1457  0.1481 -0.4014
25118W        W41966  17.853  15.469   2.857  0.2032 -0.2611 -0.0377
25119W        W41967   2.548  16.533   0.714 -0.0793 -0.1750  0.1496
25120W        W41968  14.255  12.598   1.134 -0.2464  0.0786  0.0101
25121W        W41969   3.262   7.215  12.096 -0.0682 -0.0311 -0.3069
25122W        W41970  16.802  13.553  10.943 -0.2833 -0.0603 -0.0398
25123W        W41971  16.968   8.841   5.127 -0.1021  0.0732 -0.0091
25124W        W41972  10.881   5.074   4.634  0.0097  0.1773  0.2130
25125W        W41973   0.264  16.343  14.173 -0.2348  0.1399 -0.0480
25126W        W41974   7.219   4.127  12.325 -0.2305 -0.2967 -0.2663
25127W        W41975   7.712   5.260  12.113 -0.1307  0.2222 -0.0049
25128W        W41976   1.693  16.529   1.810  0.1434  0.0349 -0.2576
25129W        W41977   3.220   7.829   1.007 -0.1414  0.3452 -0.2542
25130W        W41978   9.650   1.471  12.723  0.1836  0.0387  0.0636
25131W        W41979   6.827  13.620   0.082 -0.0128 -0.1095 -0.3628
25132W        W41980   5.000   0.900   3.677 -0.0221 -0.0322 -0.2394
25133W        W41981   2.128  13.719   2.507  0.1272 -0.5173  0.1268
25134W        W41982  14.652  10.629  11.626  0.0106 -0.2414  0.3210
25135W        W41983  16.902  10.409   0.108 -0.0740 -0.0630  0.3355
25136W        W41984  17.842  11.914  12.409  0.1684  0.1017  0.1521
25137W        W41985   8.498  12.640  14.563  0.0294 -0.3705  0.0447
25138W        W41986   6.955  13.136  11.177 -0.1239  0.1182  0.1705
25139W        W41987   3.542  16.186  10.501  0.3649  0.2118  0.3939
25140W        W41988  16.700   3.637   2.382 -0.1212  0.3556 -0.1500
25141W        W41989   9.122  10.767   3.162  0.0243 -0.0212 -0.1981
25142W        W41990  17.096  17.886   5.491 -0.2512 -0.2203  0.1571
25143W        W41991  16.519   4.651  11.636  0.0153  0.1175  0.0966
25144W        W41992   0.074  13.445   0.852 -0.2384  0.0134 -0.0552
25145W        W41993   0.001   0.454   3.666  0.2850  0.1257  0.1285
25146W        W41994   2.284  11.164  16.053  0.1977 -0.0681  0.1240
25147W        W41995   8.030   4.841  13.725 -0.1583 -0.0271  0.1439
25148W        W41996   2.311  14.034  13.097 -0.0141 -0.2691 -0.0404
25149W        W41997  17.411  10.762   1.140 -0.0033  0.0206  0.0279
25150W        W41998  16.739   4.799   0.545 -0.1160  0.1281  0.0214
25151W        W41999   8.929   3.530   4.857  0.2199 -0.2729  0.2099
25152W        W42000   4.321   0.194   0.117 -0.0636  0.1448 -0.0208
25153W        W42001  16.893   8.228   0.197 -0.3007  0.0274 -0.2741
25154W        W42002  17.000   7.295  13.729  0.4407  0.0801 -0.0210
25155W        W42003  10.556   0.796   0.763 -0.1737 -0.2561 -0.1566
25156W        W42004   4.150  16.386  15.853  0.0513  0.2118 -0.4879
25157W        W42005   9.651   5.114   2.134 -0.3841  0.0534 -0.1587
25158W        W42006   2.283  17.985   2.328 -0.2033  0.0155 -0.1227
25159W        W42007   3.350   1.629   6.210  0.1115  0.4255 -0.0156
25160W        W42008   0.573   0.609  15.723  0.3126  0.4018  0.3638
25161W        W42009   7.038   1.093  14.041 -0.0469  0.0283  0.0202
25162W        W42010  15.341   1.065  12.500 -0.2042 -0.1005 -0.2153
25163W        W42011  15.093  13.874  13.934 -0.2016 -0.1665 -0.1651
25164W        W42012  11.064   5.606  14.274 -0.0765  0.1124 -0.2698
25165W        W42013  16.709   3.033  11.526  0.0073  0.1849 -0.0818
25166W        W42014   0.274  11.944  16.240 -0.1141 -0.0062 -0.0218
25167W        W42015  15.963  17.127  11.119 -0.1654 -0.3430  0.0298
25168W        W42016   5.543   0.492  10.686  0.1761  0.0648 -0.0691
25169W        W42017   8.701   6.860   3.515 -0.0563  0.2455 -0.3108
25170W        W42018  16.188  10.822  15.975 -0.1670  0.4137 -0.3462
25171W        W42019   3.716   7.034  12.215  0.1278  0.1423  0.4117
25172W        W42020  11.652   4.903   3.340 -0.1687 -0.0137  0.0840
25173W        W42021   1.849  12.507   3.248 -0.0122  0.0823 -0.1147
25174W        W42022  16.111   9.487   0.068  0.2226 -0.0226  0.2977
25175W        W42023   3.021  15.130  11.448 -0.0276  0.0145 -0.2269
25176W        W42024  10.805   2.905   1.673 -0.1213  0.0853 -0.0611
25177W        W42025   5.809   1.024  14.901  0.0794 -0.1970  0.1000
25178W        W42026  11.639   9.684   0.549 -0.0654  0.1958  0.0011
25179W        W42027  10.660  16.024  15.496  0.2361  0.0777 -0.0682
25180W        W42028  11.156  13.477   4.148 -0.0029  0.0863  0.0799
25181W        W42029   3.662  10.619   1.197 -0.0812  0.0039  0.0375
25182W        W42030   4.892  11.114  15.472 -0.2321 -0.2940 -0.2431
25183W        W42031  12.933   8.101  13.934  0.0225 -0.0247  0.1616
25184W        W42032   2.825  15.757   6.208  0.0972  0.0806  0.0837
25185W        W42033  11.737  10.027  13.205  0.1423 -0.0704  0.4946
25186W        W42034   9.370   3.056  16.069  0.0652 -0.1832  0.0419
25187W        W42035   4.000  15.426  12.093  0.0959  0.1666 -0.1016
25188W        W42036  12.748   6.913   0.285  0.2366  0.2325 -0.3033
25189W        W42037   9.495   1.639   1.875  0.0873 -0.0182 -0.1394
25190W        W42038  11.280   8.195   2.232  0.2114  0.0948  0.0287
25191W        W42039   7.447  13.219  12.383 -0.1671 -0.3383 -0.0069
25192W        W42040   1.452   8.075   2.361 -0.0953 -0.0243 -0.0602
25193W        W42041  11.778   5.399   0.553  0.1711  0.0461 -0.1883
25194W        W42042  11.928  13.741   0.999  0.2631  0.0761  0.2283
25195W        W42043  16.940   1.632   2.554  0.0398 -0.2023 -0.0243
25196W        W42044  11.897   5.183  14.974  0.0000  0.0680 -0.1463
25197W        W42045   9.382  12.364   4.697  0.4646 -0.0023  0.1495
25198W        W42046  15.974  13.150  12.528  0.0222  0.0040 -0.1776
25199W        W42047   2.080  10.086  15.579 -0.0940  0.0539  0.4485
25200W        W42048   3.981  15.512   0.446 -0.5550  0.0570  0.1675
25201W        W42049   7.195   7.364   4.523  0.0844  0.2482  0.2911
25202W        W42050  17.914   3.476   0.867  0.2439 -0.2120  0.0198
25203W        W42051   5.973   5.459   4.522  0.0790  0.0263  0.0188
25204W        W42052  12.976  11.850   3.413  0.1506  0.1995 -0.0183
25205W        W42053   8.944  13.744   1.330  0.0071  0.1758 -0.0334
25206W        W42054  17.296  13.125   2.199  0.0159 -0.5825  0.4253
25207W        W42055   0.524  10.044   4.622  0.1259  0.0849  0.1434
25208W        W42056  14.098   4.485   1.465 -0.3716 -0.1029 -0.1111
25209W        W42057  12.221  12.475  15.510  0.1057  0.0941  0.2029
25210W        W42058   7.806   7.214   3.225  0.0524  0.3338  0.1335
25211W        W42059   2.641   1.490   0.866 -0.0575 -0.1126  0.1242
25212W        W42060   5.466  11.189   3.314 -0.1046  0.1138 -0.1276
25213W        W42061   5.259   2.718   5.185  0.1069  0.0078  0.1051
25214W        W42062   8.806   2.552  15.532 -0.0796 -0.0806 -0.0210
25215W        W42063  17.446   8.370  12.972 -0.1526  0.2313 -0.0258
25216W        W42064   4.935  10.496  11.530 -0.1841 -0.0682  0.2814
25217W        W42065   5.486  13.903  13.686  0.2963  0.1238 -0.0984
25218W        W42066   3.659  13.074  14.297  0.0257 -0.1166  0.1065
25219W        W42067   1.841   1.204   1.613 -0.2495  0.0695 -0.1818
25220W        W42068  10.917   5.636  11.192  0.1959  0.0681  0.1246
25221W        W42069   5.681   9.140  12.115 -0.0622 -0.0265  0.2410
25222W        W42070   7.778   4.741  15.488  0.0884  0.1914 -0.1033
25223W        W42071   7.161   6.633  15.778 -0.1000  0.2400 -0.0134
25224W        W42072   4.922  14.810  14.467 -0.0980 -0.2206  0.3005
25225W        W42073  16.368  16.374  14.834 -0.0703  0.0591 -0.2008
25226W        W42074  13.680   9.660   4.621 -0.0208  0.0771  0.1339
25227W        W42075  16.840   1.552   0.786  0.0954 -0.2168  0.1271
25228W        W42076   4.417  13.034   4.623  0.0592  0.3485  0.2022
25229W        W42077  13.088   1.316  12.732 -0.6043 -0.0093  0.0961
25230W        W42078   4.251  13.538   3.670 -0.2093 -0.0868  0.3487
25231W        W42079   5.304  10.552   1.408  0.1428 -0.3248  0.0950
25232W        W42080  10.264   5.708   0.565 -0.0355 -0.0074  0.1637
25233W        W42081  12.784  11.171   2.976  0.1948  0.0006  0.1055
25234W        W42082   4.298  17.296  13.997  0.1378  0.0695  0.0842
25235W        W42083   5.916   3.132   1.730 -0.2197 -0.0032  0.0099
25236W        W42084   3.194   8.437  14.526  0.3180 -0.1704  0.0613
25237W        W42085   3.180  12.980   4.096  0.1120  0.3606  0.2630
25238W        W42086   1.858   8.760   5.248 -0.1303  0.0829 -0.1898
25239W        W42087   6.325   4.399   2.142  0.1473 -0.1504  0.0170
25240W        W42088   7.744  12.869  13.796  0.1263  0.1533 -0.0151
25241W        W42089  13.813  17.876   4.237 -0.0570  0.1370  0.0605
25242W        W42090   2.885  12.682   2.719  0.0890  0.4096  0.0140
25243W        W42091  17.477  10.323   2.433 -0.3815  0.0973  0.0085
25244W        W42092  17.790   1.412  13.373 -0.1793 -0.2365 -0.0662
25245W        W42093  15.259   9.491  11.573 -0.0717  0.2182 -0.1416
25246W        W42094  15.529  16.643   0.812  0.2895  0.0069 -0.2103
25247W        W42095  14.267  11.497   2.792  0.0452 -0.2709  0.1292
25248W        W42096   3.416  12.565  15.625 -0.1849 -0.1438  0.0764
25249W        W42097  15.721   9.693   3.418  0.0413 -0.1099 -0.0745
25250W        W42098   8.753   3.322  15.950 -0.2165  0.0163 -0.3767
25251W        W42099   0.704   2.521   5.134  0.4364  0.1656 -0.0090
25252W        W42100  16.384   9.809  16.144  0.0268 -0.0300 -0.0330
25253W        W42101  13.309  10.929  10.877 -0.0630  0.2901  0.0140
25254W        W42102   0.653   9.621  10.749 -0.1314  0.4123 -0.1478
25255W        W42103  13.804  12.181  15.193 -0.0553 -0.0673 -0.2148
25256W        W42104  13.741  16.032  14.173 -0.0368  0.0652 -0.0740
25257W        W42105   4.476   0.353   1.407  0.2418 -0.0256  0.0087
25258W        W42106  13.055   0.907  12.032  0.1249  0.0573 -0.2404
25259W        W42107  13.909  13.314  13.943  0.1062 -0.1471 -0.0227
25260W        W42108  10.916   5.009  13.260  0.2140  0.2495 -0.1140
25261W        W42109  16.621  11.135   1.300  0.2207 -0.3286  0.0921
25262W        W42110   1.872   5.086  13.122  0.0825  0.1841  0.0747
25263W        W42111  10.123  13.049   0.559 -0.2869 -0.2734 -0.2487
25264W        W42112  15.800  13.515  12.850 -0.1106  0.0424  0.1515
25265W        W42113  16.218   4.983   4.575 -0.1551  0.2077  0.3527
25266W        W42114   6.096   8.280  13.154  0.2228 -0.0337  0.0209
25267W        W42115   3.989  10.030   0.557 -0.0418 -0.0149 -0.2059
25268W        W42116   4.222   8.895   2.392 -0.0172  0.2024 -0.1552
25269W        W42117  16.025   0.518   4.545  0.0252 -0.4082 -0.1267
25270W        W42118  11.977   1.469   1.620  0.1393  0.0971 -0.1856
25271W        W42119   2.211  16.308  14.843  0.1941  0.0648 -0.0748
25272W        W42120   4.945   9.755   0.040 -0.3344  0.0723  0.0594
25273W        W42121  10.889   7.634   0.839 -0.1858 -0.4564 -0.1475
25274W        W42122  17.984   9.614   3.073  0.1211 -0.1068 -0.1278
25275W        W42123   0.634   0.324  13.901 -0.1789 -0.0984  0.0978
25276W        W42124   4.978   9.367   0.383 -0.0397  0.2928  0.1309
25277W        W42125  10.398   2.801   0.444 -0.1932  0.0834 -0.3610
25278W        W42126   2.679   7.158  14.028  0.0282 -0.1367  0.0244
25279W        W42127  15.201  14.942  12.469 -0.3067  0.2264  0.2149
25280W        W42128   4.348   3.068  12.392  0.0089  0.0007  0.0506
25281W        W42129  10.717   0.583   3.154  0.1902 -0.1623 -0.2846
25282W        W42130  11.501  14.576   0.167 -0.3307 -0.2414  0.1673
25283W        W42131  14.722   6.862   5.269 -0.0787 -0.2261  0.0374
25284W        W42132   4.777   6.622   2.860  0.2960 -0.0062 -0.2634
25285W        W42133   4.025  14.509  12.824 -0.0800  0.2359  0.0941
25286W        W42134   8.619  17.701   3.990 -0.2256  0.3016 -0.2794
25287W        W42135   3.623  16.522  15.631  0.1437 -0.1018  0.1724
25288W        W42136   6.217  16.882  15.429  0.0106 -0.1283 -0.1767
25289W        W42137   7.731  17.441  14.849 -0.3282 -0.0989  0.0908
25290W        W42138  14.251   4.878  11.861 -0.0546 -0.1691 -0.0616
25291W        W42139   5.126  11.661   0.587  0.0676 -0.0620  0.0402
25292W        W42140  11.779  16.720   3.100 -0.1562 -0.0419 -0.0310
25293W        W42141  17.286  15.572  14.171  0.1040 -0.2143 -0.1636
25294W        W42142   6.607  11.938   4.231 -0.1020  0.1672 -0.2465
25295W        W42143  14.120  13.014   2.438 -0.0511  0.1494  0.2307
25296W        W42144  15.809   0.681   2.297  0.0803  0.1145  0.4919
25297W        W42145  14.946   0.905  11.541  0.1182  0.2664 -0.0120
25298W        W42146   9.035   6.328   4.826 -0.2541 -0.1624  0.0150
25299W        W42147  15.653  16.822   3.243 -0.2207 -0.0915  0.1712
25300W        W42148  14.619   5.210   0.326  0.3031 -0.2229  0.0600
25301W        W42149   9.153  16.067  11.227 -0.3795 -0.3278  0.0748
25302W        W42150   4.552  12.426   4.670 -0.0140 -0.2525 -0.1523
25303W        W42151  12.741  14.615   2.486 -0.1936  0.1583 -0.0531
25304W        W42152   5.119   5.829   2.505 -0.0514  0.3329  0.0311
25305W        W42153  10.946   1.622  14.606  0.1645 -0.0859 -0.0235
25306W        W42154   1.665  13.834   0.185  0.0683 -0.1925 -0.2771
25307W        W42155  13.572  17.918   1.267  0.4115  0.0807 -0.0883
25308W        W42156   3.267   9.140   3.774  0.0544  0.1515 -0.0619
25309W        W42157  16.584  14.055  15.005 -0.1201 -0.1664  0.2686
25310W        W42158   8.108  16.637  13.917 -0.0556  0.2756 -0.1240
25311W        W42159  16.463   6.855  13.803 -0.1234  0.2990  0.0575
25312W        W42160   1.801  17.791  15.157 -0.2383  0.2988  0.0629
25313W        W42161   3.996  12.024   2.631  0.0359  0.0707 -0.0778
25314W        W42162  10.287  10.120   2.924  0.0936 -0.0308 -0.0008
25315W        W42163  12.976  14.688  11.127  0.0830 -0.0203  0.0415
25316W        W42164   0.401   0.211   3.445  0.1150  0.0408  0.4329
25317W        W42165   9.674   2.778   5.065 -0.0671 -0.2973  0.1266
25318W        W42166  14.445  17.801   0.909  0.0283  0.0198 -0.1647
25319W        W42167   3.513   3.097   3.307  0.0706  0.2561 -0.0357
25320W        W42168   6.197   4.216  11.124  0.4060  0.2669  0.3630
25321W        W42169   0.530  16.495   0.267  0.0211  0.0217  0.1002
25322W        W42170   4.930   6.341   3.259  0.1246 -0.1634  0.1198
25323W        W42171  11.481  10.116   0.257  0.1419  0.1001 -0.1238
25324W        W42172   7.538  16.923   2.792  0.3187 -0.0486  0.2835
25325W        W42173   8.291  16.432   0.997 -0.1722  0.2136  0.2557
25326W        W42174  13.389  12.990  13.810  0.1029  0.1967  0.2456
25327W        W42175  15.293   9.969  15.481  0.2136 -0.2020  0.2090
25328W        W42176   8.912  13.592  13.240 -0.0672  0.1443 -0.0223
25329W        W42177  13.505  13.504  15.456  0.0365  0.3586  0.2286
25330W        W42178   5.537   6.339   4.003 -0.1306  0.0630 -0.1540
25331W        W42179  10.032  14.338   2.003  0.2532  0.0252 -0.0120
25332W        W42180   9.571  14.695  15.041  0.1819  0.1267  0.1724
25333W        W42181  11.196  13.679  11.701  0.0123 -0.0194  0.1149
25334W        W42182   3.582   5.703   5.071 -0.0287  0.0410 -0.1067
25335W        W42183   5.659   6.754   1.541 -0.0328 -0.1574 -0.0089
25336W        W42184   7.008   9.206   1.723  0.0612 -0.2446  0.0193
25337W        W42185  17.395  10.920  13.869 -0.2996 -0.0089 -0.0132
25338W        W42186   2.497   6.198   4.882  0.2526 -0.0514  0.0693
25339W        W42187  17.738   4.301  11.749  0.0890  0.0787  0.1174
25340W        W42188  10.874   8.938   1.936 -0.0904 -0.0258  0.0047
25341W        W42189   6.166   1.098   3.973 -0.0136 -0.1193  0.1753
25342W        W42190   7.327   8.962  13.473 -0.0309 -0.0637 -0.3411
25343W        W42191   9.622   8.196   3.701 -0.1204  0.0143 -0.2704
25344W        W42192  17.039  15.585  11.427  0.1161  0.2484 -0.0899
25345W        W42193  16.548  16.772  15.009 -0.0980 -0.0945  0.1117
25346W        W42194  11.427  10.021  15.022 -0.3182  0.0604 -0.1844
25347W        W42195  13.692   3.186   1.747  0.0450  0.0706  0.4223
25348W        W42196   9.323  13.136   3.931  0.0686  0.0119  0.1188
25349W        W42197  17.078   8.253   2.020  0.1648  0.0129  0.0132
25350W        W42198  12.875   3.539   4.455 -0.2783  0.0828  0.1438
25351W        W42199   3.307  10.518  16.216  0.0604 -0.2173  0.1418
25352W        W42200  17.832   1.252   0.343 -0.2042  0.0898  0.0406
25353W        W42201  10.484   2.294   0.319  0.1201 -0.1507 -0.0669
25354W        W42202   4.729  11.345   3.480 -0.5610  0.0399  0.0715
25355W        W42203  16.659   9.866  10.541  0.0484  0.1443 -0.0403
25356W        W42204   0.054  10.586  13.538  0.0125  0.1036  0.2052
25357W        W42205   8.679   7.363  13.699  0.1750 -0.3185  0.0375
25358W        W42206   9.016  12.735  13.100  0.1922  0.0046  0.0072
25359W        W42207   7.540  10.187  10.698 -0.0096  0.2043 -0.0220
25360W        W42208  12.425   1.999  14.829 -0.1692  0.0254 -0.0278
25361W        W42209  15.091  15.694  14.528 -0.1214 -0.1014 -0.2234
25362W        W42210   1.179  17.980   3.487 -0.0400  0.3273  0.0912
25363W        W42211   4.339  16.779  16.123  0.2719 -0.0985  0.0457
25364W        W42212   0.996  12.901   3.795 -0.2832  0.1310  0.0046
25365W        W42213  14.617   3.185   0.891 -0.1928  0.1474  0.2672
25366W        W42214   3.328   6.783  13.576  0.0980 -0.1331 -0.0766
25367W        W42215   1.597   4.167   0.127  0.2266 -0.3973 -0.0777
25368W        W42216  15.324   7.392  15.941 -0.0997  0.0906  0.3125
25369W        W42217  12.732  12.918  15.421  0.1596  0.1202 -0.0061
25370W        W42218   7.314   6.477  14.470  0.2866 -0.0441 -0.2300
25371W        W42219  13.922   5.569  15.455  0.1510 -0.0097 -0.1793
25372W        W42220  16.585   3.833   4.923  0.1906 -0.2533  0.2533
25373W        W42221  17.238  15.202   4.698 -0.0644 -0.2011  0.1304
25374W        W42222   2.204   7.478  12.319  0.0648  0.0758 -0.5595
25375W        W42223  10.144   1.033   0.607 -0.2294 -0.1289  0.0873
25376W        W42224   1.514  12.124  13.738 -0.1580 -0.1957 -0.4084
25377W        W42225   4.636  17.440  13.399  0.1590 -0.2272  0.2564
25378W        W42226   9.295  17.821  12.020  0.0587  0.0056 -0.1277
25379W        W42227  12.460  10.193  13.568 -0.0728  0.0151 -0.2137
25380W        W42228   2.043   3.518  12.885  0.0438  0.2644 -0.1690
25381W        W42229  15.418   1.307   1.384 -0.2292 -0.2803  0.3070
25382W        W42230  10.788   8.966   0.266 -0.0331 -0.2727 -0.2223
25383W        W42231   0.734   2.736  14.387  0.0953  0.2045  0.2449
25384W        W42232  14.007   2.834   1.590 -0.5046  0.2955 -0.1405
25385W        W42233   2.048   2.891   3.827  0.1073  0.0665 -0.0756
25386W        W42234  10.556   8.098  16.246  0.0625 -0.0566  0.0613
25387W        W42235   3.647  16.948   1.145  0.0615  0.2713  0.1144
25388W        W42236   2.457   0.094   4.276  0.2148  0.0806 -0.3493
25389W        W42237   4.131  12.754  12.376  0.1133  0.1739 -0.0778
25390W        W42238  16.060  15.509   3.211  0.0603  0.1185 -0.2855
25391W        W42239   8.608   4.745   4.745 -0.0124 -0.0107  0.0837
25392W        W42240  13.051   8.310   2.353  0.0867 -0.0493  0.0136
25393W        W42241   5.314  14.535   2.000 -0.0587 -0.3878  0.1440
25394W        W42242   4.036  17.767  14.085 -0.1288 -0.0389  0.2130
25395W        W42243  10.801   5.833   4.162 -0.1062  0.0030  0.0199
25396W        W42244  16.620   2.022   4.151 -0.2094 -0.0636  0.4305
25397W        W42245  13.214   9.148  13.441 -0.3552  0.1019  0.1236
25398W        W42246   0.623   3.975  12.678 -0.0855  0.0628  0.1464
25399W        W42247  12.273   3.776  14.478 -0.0118  0.2704  0.1127
25400W        W42248   6.036  11.163   3.219  0.0593  0.0717  0.1023
25401W        W42249   7.125  17.578   3.695 -0.2014  0.2170 -0.2298
25402W        W42250   0.332   0.862  15.257  0.1297 -0.0955 -0.1490
25403W        W42251  11.585  15.360  13.970  0.1566  0.0025 -0.0927
25404W        W42252   3.582   1.874  13.065  0.0920  0.0373 -0.0266
25405W        W42253   3.803  12.134  11.538  0.0806 -0.2714 -0.0919
25406W        W42254   4.519  14.804  15.217 -0.1851 -0.2098 -0.4321
25407W        W42255   2.085  13.837  15.020 -0.0781  0.1864  0.0285
25408W        W42256   6.812   9.611   1.366 -0.1741  0.0170  0.2828
25409W        W42257   6.219  17.205   2.719  0.1038  0.0828  0.1890
25410W        W42258  16.738  16.985   0.508  0.1797 -0.2494 -0.0826
25411W        W42259   5.276   2.792   6.082  0.0664  0.2400  0.1097
25412W        W42260  12.101   0.598  11.759  0.2810 -0.1192 -0.2175
25413W        W42261  11.773   8.554   1.116  0.0159 -0.0135  0.1741
25414W        W42262  16.777   0.525  12.792 -0.2502  0.1604  0.3892
25415W        W42263   9.584   9.687  13.593 -0.1057  0.0204  0.1671
25416W        W42264  11.204  17.271  12.827 -0.2374  0.2732  0.3979
25417W        W42265  14.493  10.394   3.721  0.1319 -0.4265 -0.1116
25418W        W42266   2.055   8.216  11.346 -0.0174  0.2116  0.2375
25419W        W42267   9.942  15.677   0.811  0.0730 -0.0929 -0.0211
25420W        W42268  14.154   7.473  11.495  0.0041 -0.0141  0.1612
25421W        W42269  13.351   0.233   3.472 -0.1974 -0.1666 -0.0016
25422W        W42270  10.838  11.174   4.180 -0.0129 -0.0469 -0.0008
25423W        W42271   9.786   1.880  11.442  0.0412  0.0428 -0.1617
25424W        W42272  15.432   1.216  14.507 -0.0576 -0.1803  0.0875
25425W        W42273  13.801   4.122  13.709  0.0201 -0.0754 -0.0226
25426W        W42274  12.341  13.942  13.390 -0.1980  0.1173 -0.1041
25427W        W42275  13.359   8.703  14.088 -0.1518  0.4004 -0.0529
25428W        W42276   8.931  12.627  14.912 -0.0456  0.2111 -0.1142
25429W        W42277  12.524   8.978  11.678 -0.1682  0.0021 -0.2450
25430W        W42278   9.055   3.437   0.718  0.1950  0.0522 -0.1427
25431W        W42279  17.603   1.189   5.160 -0.0202  0.0480 -0.1597
25432W        W42280  12.336   9.908   5.102 -0.1306 -0.0305 -0.2871
25433W        W42281   6.601  10.119  13.661  0.1276 -0.0987  0.0612
25434W        W42282  12.077   7.242   5.629 -0.0004 -0.1954  0.0378
25435W        W42283  17.690   9.191  15.379  0.2054 -0.0569 -0.4339
25436W        W42284   2.835  11.650  10.760  0.1161  0.1889  0.0087
25437W        W42285  10.624   5.988  11.403  0.1147  0.1158 -0.4179
25438W        W42286  14.511   9.237   3.637  0.0337  0.0067 -0.0586
25439W        W42287   0.765  15.638   0.578 -0.0052  0.0978  0.1414
25440W        W42288  10.260   5.019  15.808  0.0109 -0.0082 -0.1239
25441W        W42289  14.219   4.692  15.721 -0.2751 -0.1695 -0.0919
25442W        W42290   1.214  16.972  13.580 -0.3511  0.1869 -0.0317
25443W        W42291   0.113   9.956   3.721  0.0730 -0.0694  0.0470
25444W        W42292  15.911  10.449  15.428  0.2521  0.1432 -0.0133
25445W        W42293   0.326  17.088   4.334  0.3390 -0.1700  0.1258
25446W        W42294  10.615   3.508  11.841 -0.0886 -0.1514  0.1565
25447W        W42295  16.216   3.479   3.198  0.1413 -0.3260 -0.1419
25448W        W42296  17.907   0.579  15.956  0.2900  0.5630  0.0880
25449W        W42297  10.602   4.609   0.592  0.2007 -0.2765  0.0028
25450W        W42298   3.028  18.045   1.234  0.1970  0.0170 -0.3333
25451W        W42299  14.590   6.106  14.364 -0.1435 -0.1835  0.0284
25452W        W42300   3.020  12.790   1.543  0.0169 -0.0549  0.0093
25453W        W42301  14.400   6.879  12.890 -0.1051 -0.1151 -0.1821
25454W        W42302   8.329  18.032  15.190 -0.0472 -0.0888  0.0759
25455W        W42303  12.304  11.182   1.143  0.2080  0.0002 -0.0895
25456W        W42304  16.426  16.282  15.330 -0.0802 -0.1643  0.1564
25457W        W42305   6.715   5.308  15.750 -0.5452  0.2003 -0.0156
25458W        W42306   4.098   8.247  12.905 -0.3840  0.2218 -0.0424
25459W        W42307   0.990  15.024  12.738 -0.1646 -0.2087  0.0668
25460W        W42308  15.535  11.300   2.406 -0.0483 -0.1723  0.2360
25461W        W42309  16.538   7.051   4.034 -0.1633  0.1000 -0.0210
25462W        W42310   2.937   1.106   1.019  0.2173 -0.2724 -0.2991
25463W        W42311  11.580   8.954  12.081  0.0988 -0.0862 -0.2610
25464W        W42312  10.851   8.040   3.520  0.0185  0.3123 -0.0423
25465W        W42313   6.592   7.009   4.336 -0.0265 -0.0702  0.1380
25466W        W42314   8.736  11.721  14.626 -0.1089  0.2031  0.0827
25467W        W42315  14.876   7.636  11.535 -0.1712 -0.1167  0.2437
25468W        W42316   3.366  17.521   6.502  0.2206  0.0188  0.2702
25469W        W42317   4.077   3.452  12.239  0.0480  0.3701 -0.1867
25470W        W42318   9.722  16.535   4.472  0.1345  0.2021  0.1839
25471W        W42319  12.678   3.079  13.019 -0.0135 -0.0582  0.1874
25472W        W42320   6.024  11.688   1.319 -0.0364  0.3318 -0.2565
25473W        W42321  15.738   4.247  12.221 -0.1083 -0.0621 -0.1526
25474W        W42322  17.713   0.859  13.283  0.1082 -0.1960 -0.2158
25475W        W42323  17.408  10.832  15.769  0.1772 -0.3041 -0.1800
25476W        W42324  13.756   3.709  12.056  0.0812  0.2190  0.0720
25477W        W42325  17.127   0.120  11.669  0.0594 -0.0025 -0.0036
25478W        W42326   3.896   0.844   4.816 -0.0554  0.1354  0.0231
25479W        W42327  16.369  11.677   3.724 -0.0851  0.1912  0.3012
25480W        W42328  10.265   4.669   3.089  0.0572 -0.0440 -0.2958
25481W        W42329   9.142  16.323   2.046 -0.1041 -0.1416  0.0858
25482W        W42330   9.105   4.020   2.845  0.1166 -0.0640  0.0580
25483W        W42331  17.681  16.816   3.503 -0.1111  0.1172 -0.1517
25484W        W42332   5.405   7.556  11.524  0.0725  0.1425  0.2839
25485W        W42333  17.986   6.448   2.735 -0.1835  0.1123  0.2111
25486W        W42334   5.795   8.613   1.873 -0.1681 -0.0166 -0.2789
25487W        W42335  12.983   5.081  12.475 -0.0425 -0.0170 -0.1033
25488W        W42336   8.620   3.917   2.920 -0.0845 -0.0861  0.1826
25489W        W42337   4.113  13.813   0.835 -0.1979 -0.0650 -0.0435
25490W        W42338   4.228  16.380   0.092  0.0173 -0.0250 -0.0506
25491W        W42339   2.861  16.177  16.191 -0.0543 -0.1424 -0.1098
25492W        W42340   3.835  16.076  16.054  0.1228 -0.2641  0.1304
25493W        W42341  11.268  16.249  14.273 -0.0147  0.1058  0.0012
25494W        W42342   6.572  11.780   1.208  0.4296 -0.1334  0.3390
25495W        W42343   4.076   5.285  14.148  0.2532 -0.1436 -0.1700
25496W        W42344  13.682  11.768  11.076 -0.2844 -0.2603 -0.0114
25497W        W42345   1.943  10.976   2.986 -0.0539 -0.0719 -0.1703
25498W        W42346   3.942  11.962   4.425 -0.1865  0.1101 -0.1807
25499W        W42347  16.762   3.118   3.713 -0.3151  0.1401 -0.1927
25500W        W42348   1.103  13.055  12.391 -0.0576  0.1317  0.0530
25501W        W42349  17.076   8.444  15.303 -0.1471 -0.1873 -0.0025
25502W        W42350   7.591  15.341   6.419  0.0765  0.0900 -0.0868
25503W        W42351   6.649   6.003  15.101  0.1611 -0.2713 -0.1123
25504W        W42352   3.709   6.809  12.740  0.0265  0.1413  0.1639
25505W        W42353  13.353   2.375   3.710  0.1477  0.0770  0.0416
25506W        W42354   0.067   4.248  15.922  0.3002  0.2435  0.2511
25507W        W42355   1.420  15.184   4.194 -0.0093  0.0285 -0.1094
25508W        W42356   8.197  11.422   4.032 -0.2536  0.1080 -0.1831
25509W        W42357   9.826   9.586   4.445 -0.1547  0.0996 -0.1941
25510W        W42358   4.401   6.873   3.007 -0.0108 -0.3431 -0.3858
25511W        W42359   2.720   0.893   4.936 -0.0932  0.0666  0.1472
25512W        W42360  13.678   5.286   1.221 -0.2363  0.0338  0.1138
25513W        W42361  12.742  17.332  14.392  0.2424 -0.1482  0.1093
25514W        W42362  10.120   5.899  15.135 -0.0895  0.4190 -0.0625
25515W        W42363   7.736  13.246   2.051 -0.1811  0.4039 -0.0637
25516W        W42364   9.349  11.043  14.887 -0.0892 -0.1874 -0.1319
25517W        W42365  17.367   4.357  10.956  0.2242 -0.2224 -0.1696
25518W        W42366   3.038   2.975   0.131  0.1441 -0.0245  0.0108
25519W        W42367   6.504  12.059   3.742  0.0304  0.0064 -0.2050
25520W        W42368   6.459   2.938  10.628  0.1417 -0.1998  0.1983
25521W        W42369   3.638   8.697   5.585  0.0183  0.2052  0.2553
25522W        W42370   2.018   7.314  12.791 -0.0149  0.0840 -0.1781
25523W        W42371   7.049  11.509   1.970  0.1338 -0.0897 -0.2311
25524W        W42372   3.699  10.122  13.301 -0.1870  0.3999 -0.1736
25525W        W42373   2.627   9.905  11.870 -0.0866 -0.0532  0.0442
25526W        W42374  13.098  11.349   2.585  0.2162 -0.0329  0.1164
25527W        W42375   2.063   2.519  14.914 -0.0638 -0.0477  0.1914
25528W        W42376   6.368  10.826   2.253 -0.0370 -0.0876 -0.2780
25529W        W42377   0.921   7.032  11.788 -0.0110 -0.1297 -0.1232
25530W        W42378   8.565  13.841  14.270 -0.0667 -0.1655  0.1897
25531W        W42379  12.610   0.448  15.745 -0.1207 -0.1788  0.0997
25532W        W42380   8.277   7.905  13.882  0.1334  0.0862  0.2367
25533W        W42381  12.047  15.358   4.048  0.1729 -0.2179 -0.1274
25534W        W42382   3.793  14.556   3.294  0.0223  0.0102  0.2193
25535W        W42383   3.638  12.908   4.247 -0.1822  0.0149 -0.1171
25536W        W42384  12.347  10.020  12.001 -0.1731 -0.2029  0.3315
25537W        W42385  15.922  13.421  11.056 -0.0278  0.0432  0.1080
25538W        W42386   2.831   1.820  13.500 -0.1568  0.1034  0.0094
25539W        W42387  17.852   6.914   2.935 -0.2132  0.0886 -0.0600
25540W        W42388  16.998  15.016  10.805 -0.0126  0.2170 -0.1623
25541W        W42389   6.897  15.359   2.820 -0.0398  0.2200 -0.1127
25542W        W42390   6.537  13.819   2.347  0.1494 -0.1105 -0.1577
25543W        W42391   8.938   1.087   2.362 -0.0738 -0.2812  0.1339
25544W        W42392  13.995   3.752   3.024 -0.0935  0.2490 -0.3004
25545W        W42393   5.716   5.394   3.704  0.1724 -0.0149  0.0573
25546W        W42394   5.714  17.273   3.956  0.1208 -0.1849 -0.1046
25547W        W42395   3.308  11.924  11.067  0.3933 -0.0405 -0.0445
25548W        W42396  12.617   3.788   0.213  0.1129  0.1877 -0.0492
25549W        W42397  15.731   2.295   4.126 -0.0428 -0.1146 -0.0273
25550W        W42398  15.944  10.544   4.871  0.3506  0.1987 -0.0103
25551W        W42399  16.484  15.586   0.784 -0.0427  0.0021 -0.1041
25552W        W42400   6.171   0.149  13.653 -0.3920 -0.2069  0.3243
25553W        W42401   9.256   9.715   2.464  0.3830 -0.1439  0.0754
25554W        W42402   7.532   3.092  14.941 -0.0895  0.2131  0.0648
25555W        W42403   8.151  13.080  12.360  0.1409  0.2537  0.0545
25556W        W42404  14.359  14.399  12.735 -0.0377 -0.1410 -0.2046
25557W        W42405   7.076   5.311  15.335 -0.3137 -0.1469 -0.0570
25558W        W42406   8.223  10.954   5.157  0.0263  0.1149  0.0419
25559W        W42407   2.881  10.592  14.176  0.2101  0.0337 -0.2849
25560W        W42408   4.620  14.516   5.495 -0.5173  0.3061 -0.1524
25561W        W42409   3.849   1.643   2.250  0.2415 -0.0005 -0.0245
25562W        W42410   8.093  16.822  13.219 -0.2560 -0.0045 -0.0139
25563W        W42411   2.811  17.337   1.311  0.1178  0.1975 -0.0185
25564W        W42412   0.845  15.087  14.141 -0.1141  0.0170 -0.0270
25565W        W42413  10.408  16.389   1.673 -0.0025  0.1302 -0.1269
25566W        W42414   7.079   7.102  11.721  0.0184 -0.1479 -0.1681
25567W        W42415   5.975   5.523   2.450  0.3642  0.1446  0.1213
25568W        W42416   3.832  13.712  13.275  0.5551  0.2027 -0.1279
25569W        W42417   5.168  13.247   4.992 -0.0966 -0.0301 -0.1204
25570W        W42418  11.947  17.035   1.880  0.2557  0.0335  0.2378
25571W        W42419  14.817  13.212  11.746 -0.0932  0.0742  0.2324
25572W        W42420   2.916  17.833  14.012 -0.2368  0.4555  0.2145
25573W        W42421  12.298   4.537   2.400 -0.0379  0.1938  0.3008
25574W        W42422   9.104   2.759  13.931  0.0668 -0.1801 -0.1105
25575W        W42423  16.989   3.010  15.404  0.4684  0.0263  0.0632
25576W        W42424  14.051   1.020   5.110  0.1744 -0.1594  0.1341
25577W        W42425   1.589  12.579   0.151 -0.0290  0.0197 -0.0328
25578W        W42426  12.503   6.697   2.054  0.1970  0.1847 -0.1599
25579W        W42427  16.760   3.743  14.872  0.1368 -0.4108 -0.1595
25580W        W42428  13.630   1.814  11.977  0.0540 -0.3586 -0.3299
25581W        W42429  14.764  16.523  16.031 -0.0305 -0.1376 -0.0303
25582W        W42430  12.167   2.327   1.017 -0.0567  0.3658  0.0281
25583W        W42431  14.842   2.549   3.757  0.0260 -0.1852 -0.3142
25584W        W42432  14.077  16.826  15.613 -0.0087 -0.2300 -0.2512
25585W        W42433   5.621   6.014   2.365  0.1000  0.2060  0.0575
25586W        W42434  17.254  12.065  15.340  0.1721  0.0021 -0.0586
25587W        W42435   8.559   1.098   0.413  0.0458 -0.0641  0.2783
25588W        W42436   2.045  12.053   4.570 -0.2037  0.4398  0.1553
25589W        W42437   6.967   7.937  10.672  0.0637  0.1198  0.1713
25590W        W42438   6.627  11.829  11.546  0.2868  0.1154  0.1884
25591W        W42439   5.694  12.821  11.972 -0.0889 -0.2442 -0.1217
25592W        W42440   9.805   0.972  14.542  0.1949 -0.2093 -0.2249
25593W        W42441  16.107   6.622   1.792  0.1467 -0.1660  0.0867
25594W        W42442  15.782  16.351   1.184 -0.2693  0.1734  0.0939
25595W        W42443   5.546   9.877   1.440 -0.1287  0.2572 -0.0060
25596W        W42444   5.706  15.213   3.733  0.0445 -0.1310 -0.1547
25597W        W42445   9.936  12.360  12.545  0.2118 -0.0500 -0.2476
25598W        W42446   4.027   0.680  14.506 -0.0689 -0.1283  0.2988
25599W        W42447  10.036   2.317  15.962 -0.1436 -0.0225 -0.3283
25600W        W42448  15.674  10.587   4.369  0.1350 -0.1950  0.0369
25601W        W42449   1.892  13.398  15.798 -0.3836 -0.1028  0.0116
25602W        W42450   5.418   7.468   0.331 -0.4126  0.1082  0.0029
25603W        W42451  17.740   3.704  11.745 -0.1870 -0.3881 -0.0177
25604W        W42452  16.238  10.132  15.237  0.0969  0.3566  0.3080
25605W        W42453  17.675  14.325  15.179 -0.0763 -0.0791 -0.1617
25606W        W42454   7.318  10.265   5.840 -0.0030  0.3039  0.1234
25607W        W42455   8.171  15.725   5.356  0.0075  0.0737  0.0676
25608W        W42456  14.834  13.054   4.386 -0.2027  0.0732 -0.3259
25609W        W42457  15.531  13.579  16.112 -0.1700 -0.0299 -0.3778
25610W        W42458  14.909   8.863   2.808 -0.1496 -0.0215  0.2176
25611W        W42459   0.892  15.601   3.328 -0.3023  0.4853  0.5350
25612W        W42460   1.918  15.120   4.253  0.0062  0.0253  0.0833
25613W        W42461  16.578   4.393   3.417  0.2221  0.3267  0.0436
25614W        W42462  12.476   9.762  15.548  0.0606 -0.0234  0.3216
25615W        W42463  17.406   5.029  14.902  0.1171  0.0226  0.2392
25616W        W42464  17.290   6.422  13.518  0.0605  0.0044 -0.0378
25617W        W42465   9.507  10.791  16.038 -0.1450  0.1787  0.1498
25618W        W42466  14.114   3.357   2.625 -0.1295  0.1404  0.2561
25619W        W42467   1.837  15.432  15.443  0.2022 -0.3885  0.0620
25620W        W42468  13.646   6.144   4.881 -0.0652  0.1525 -0.2467
25621W        W42469   1.321   0.314   4.823 -0.0838 -0.1227 -0.0345
25622W        W42470   1.045  14.110  13.042  0.3372  0.0637 -0.2921
25623W        W42471   2.349   2.172   2.296  0.0043 -0.3569 -0.0553
25624W        W42472   1.434  14.264  14.253  0.1285  0.0109 -0.1597
25625W        W42473   0.431  15.390   1.094  0.2401  0.2062  0.0804
25626W        W42474   9.667   7.585  11.362 -0.2082 -0.1371  0.1670
25627W        W42475  15.340  16.771   4.295 -0.1069  0.1235 -0.0891
25628W        W42476  10.182   1.618  12.856 -0.1198 -0.0708  0.0185
25629W        W42477   0.038   7.698  15.898  0.1074  0.2122 -0.1513
25630W        W42478   6.035   3.549  11.793  0.1350  0.1080  0.1132
25631W        W42479   2.241   0.767  12.170  0.0868  0.0981 -0.2783
25632W        W42480   3.661  12.957  12.574  0.4467 -0.1039  0.2727
25633W        W42481  10.496  17.967   0.495  0.2006  0.0737  0.2235
25634W        W42482  11.111   4.759  11.590  0.0126 -0.2199  0.0098
25635W        W42483   3.134  17.706  13.539 -0.4151  0.0538 -0.0202
25636W        W42484  12.122   9.563   4.792  0.1551 -0.0900 -0.0564
25637W        W42485  16.770   5.064   0.119 -0.0385  0.0617  0.0762
25638W        W42486   3.855   3.721   4.780  0.0809  0.1382 -0.0799
25639W        W42487   5.103  16.792   2.548 -0.0354 -0.0920  0.1693
25640W        W42488   8.390   5.727   1.574 -0.0889  0.2248  0.1892
25641W        W42489  13.349   2.832   2.496  0.2682 -0.1370 -0.2713
25642W        W42490  17.333   3.998  11.666 -0.1173  0.2914  0.2561
25643W        W42491  14.756  12.040  14.299 -0.0985 -0.0066  0.2429
25644W        W42492  17.560  12.360   0.347 -0.1642  0.0139 -0.0776
25645W        W42493  11.598  14.418  12.773 -0.2952  0.0594  0.0188
25646W        W42494  10.716  12.933   3.485 -0.3815  0.0866  0.3998
25647W        W42495  16.592  14.497   1.917 -0.0039  0.4079  0.0370
25648W        W42496   5.379  11.746   3.429  0.0299  0.0635  0.0988
25649W        W42497  11.255   0.371   2.704 -0.2496  0.1296  0.1578
25650W        W42498   6.809  14.215  13.174 -0.1742 -0.0255 -0.1121
25651W        W42499  16.236  13.251  10.718  0.1699 -0.0184 -0.1342
25652W        W42500  17.525  13.377   3.044 -0.0031 -0.0793 -0.1958
25653W        W42501   6.280  15.844  12.447 -0.0167  0.1866  0.3112
25654W        W42502   5.491  15.497   0.295  0.1228 -0.0630 -0.0441
25655W        W42503  15.599  11.710  14.786  0.0361 -0.2244 -0.2687
25656W        W42504  14.586   5.776  14.907 -0.0315  0.1348 -0.2619
25657W        W42505  15.849   0.566  15.214 -0.0005  0.0861  0.3845
25658W        W42506   8.406   4.092   1.304 -0.1221  0.3084  0.2610
25659W        W42507   2.339  12.274  13.761  0.0958  0.2992 -0.1653
25660W        W42508   7.371   4.139   1.492  0.0903  0.1980 -0.0234
25661W        W42509   0.640   4.779   3.094  0.1441 -0.0619 -0.0725
25662W        W42510   1.248   2.193   2.024 -0.2170 -0.3946  0.2851
25663W        W42511   2.064   8.230   0.522  0.0571  0.0697 -0.0006
25664W        W42512   5.087  13.891  12.396  0.0899 -0.1279  0.2281
25665W        W42513  12.266   1.235   4.892 -0.1212 -0.4752  0.1557
25666W        W42514   0.325  12.355  15.313 -0.1296 -0.0805  0.0120
25667W        W42515  16.425  12.850  12.333 -0.3064  0.0823 -0.0143
25668W        W42516  16.917   9.714  14.189  0.0194  0.3489 -0.0304
25669W        W42517   6.979  10.222   2.727 -0.1189 -0.1558 -0.0797
25670W        W42518   7.607   0.756   3.735 -0.4000  0.0508  0.0074
25671W        W42519   0.379   9.122   3.938  0.0346  0.1977  0.0302
25672W        W42520  13.530   3.473   6.038 -0.1813 -0.1074  0.0520
25673W        W42521  14.716   3.876   1.934  0.1127  0.0724 -0.2346
25674W        W42522  13.423  17.695   3.929 -0.2869  0.2683  0.2108
25675W        W42523   6.246  16.116   5.292  0.0015 -0.1479 -0.0971
25676W        W42524  12.908   7.977  15.952 -0.3251 -0.1186 -0.0456
25677W        W42525   2.988   7.331  12.486 -0.3383 -0.2064 -0.1322
25678W        W42526   5.606   5.171  11.605 -0.1240 -0.1504 -0.1336
25679W        W42527   1.896   6.261   1.853  0.0168  0.0239  0.1203
25680W        W42528  13.962   5.018  14.116  0.1312  0.2905 -0.0234
25681W        W42529  16.051  14.337  15.017  0.1235  0.0311 -0.0012
25682W        W42530  17.214   7.234   1.771 -0.1851  0.2647 -0.0418
25683W        W42531   8.288   9.384  12.764 -0.1343 -0.2457  0.0653
25684W        W42532  11.035  10.276  13.776 -0.1018  0.0934  0.2188
25685W        W42533   1.396  16.367  13.290 -0.1594  0.0489 -0.1342
25686W        W42534  11.743  15.801  13.325 -0.0015 -0.3258  0.0402
25687W        W42535   9.147   5.456   4.872 -0.2467 -0.0863 -0.4093
25688W        W42536   5.322   0.073  12.642 -0.1369 -0.0060  0.1747
25689W        W42537   2.250   0.688   0.447  0.0550 -0.1023  0.1169
25690W        W42538  13.604   0.277   5.202  0.0755 -0.0595 -0.1266
25691W        W42539   0.682  15.337  16.181  0.1793 -0.0622 -0.4201
25692W        W42540  14.488   5.369   4.791  0.0866 -0.2181 -0.0826
25693W        W42541   9.427   1.008   4.882 -0.0261 -0.0456 -0.2431
25694W        W42542  12.085  17.136  12.364 -0.1160  0.0593  0.3411
25695W        W42543  11.625  13.112   4.167  0.0398  0.2125  0.1339
25696W        W42544   2.206   1.558   4.402 -0.3166 -0.2285 -0.0094
25697W        W42545   4.021  16.628   1.970 -0.0233 -0.2038 -0.1523
25698W        W42546   3.254  10.962  13.197  0.1685 -0.0395  0.1128
25699W        W42547   7.194   6.787   1.439 -0.2558 -0.2052  0.0772
25700W        W42548   7.475  10.319   5.367 -0.2476  0.0132  0.1957
25701W        W42549   8.238   2.439  15.145 -0.2698 -0.1627 -0.1497
25702W        W42550   5.420   4.226   2.529 -0.1726  0.1963 -0.0302
25703W        W42551   4.329   7.334   3.785 -0.0780 -0.4243 -0.0576
25704W        W42552   6.655  16.043   5.715 -0.3505  0.0517  0.0136
25705W        W42553  13.793   8.427   0.334  0.1899  0.2349 -0.0928
25706W        W42554  17.091  12.879  15.780  0.3444  0.0096  0.2962
25707W        W42555   0.276  11.392  14.746 -0.1199 -0.0199  0.0657
25708W        W42556  14.136  11.551   5.468 -0.1409  0.0239 -0.0366
25709W        W42557  11.807  15.330   3.071  0.2546 -0.0901 -0.0756
25710W        W42558   8.324  16.665   0.451  0.1607  0.0650 -0.1342
25711W        W42559   2.477   5.765   0.868  0.1639 -0.1885 -0.3142
25712W        W42560  11.136   4.581   4.222 -0.0281  0.2214 -0.0005
25713W        W42561   6.737  13.556   3.257  0.3041 -0.0729 -0.1610
25714W        W42562  13.197   8.874   4.480  0.0869  0.2681 -0.0864
25715W        W42563  12.158  16.674  16.016  0.0704  0.4015  0.2706
25716W        W42564   5.338  12.633  14.603 -0.1337  0.2278 -0.2509
25717W        W42565  18.036  11.414  12.535  0.1534 -0.2004 -0.4435
25718W        W42566  11.991  12.032   2.775 -0.0513  0.0101 -0.1124
25719W        W42567  10.471   0.615  13.881 -0.0385  0.1959  0.0138
25720W        W42568  10.278  16.324  11.879 -0.1466 -0.0112 -0.2560
25721W        W42569  13.277   2.242  15.863 -0.2471 -0.0327 -0.1084
25722W        W42570   0.435   4.168  14.329 -0.3026  0.0542 -0.2343
25723W        W42571   7.677  11.726   3.382  0.0251 -0.0475 -0.1057
25724W        W42572  17.987  15.903   1.717 -0.1382 -0.1360 -0.0747
25725W        W42573   2.712  11.072   4.497  0.1538  0.0480 -0.0125
25726W        W42574  11.199  15.428   1.371  0.1095 -0.2290 -0.1292
25727W        W42575  11.138   0.949   1.170  0.0016  0.1807 -0.5615
25728W        W42576   1.394   6.282   0.702 -0.2570 -0.1117 -0.0944
25729W        W42577  15.603  12.260   4.723  0.1576  0.0341  0.1080
25730W        W42578   4.345  16.423   4.328 -0.2027  0.0319 -0.1747
25731W        W42579   4.310   2.293  14.093 -0.0111 -0.0010 -0.0274
25732W        W42580  13.409   3.099  14.525  0.3854 -0.2868  0.1289
25733W        W42581  13.269  16.741   2.594  0.1464  0.2294 -0.0153
25734W        W42582  13.293   9.852   3.310  0.1732 -0.0181 -0.1018
25735W        W42583  13.837   8.374   9.908 -0.0975 -0.1486  0.0365
25736W        W42584  12.210   6.852   1.117 -0.0043  0.0546 -0.1846
25737W        W42585   0.431   7.958  15.659  0.1310  0.0850 -0.0013
25738W        W42586   7.739  16.907  14.771 -0.2778  0.0347  0.0253
25739W        W42587   1.578   9.102   3.795 -0.1394  0.1893  0.2879
25740W        W42588  13.419  16.975   3.888 -0.1739  0.0128 -0.3568
25741W        W42589   6.863   3.520  11.506 -0.1257  0.0202 -0.1783
25742W        W42590  17.711   5.469  14.979 -0.0516 -0.0216 -0.1281
25743W        W42591  17.789   9.917   2.232  0.1059  0.4786  0.0902
25744W        W42592   3.457  17.295   4.037  0.3567  0.0922 -0.1887
25745W        W42593  10.802  16.209   1.923 -0.1046  0.1524 -0.0574
25746W        W42594  17.423  16.410  11.829  0.0152  0.1472 -0.0891
25747W        W42595   4.151   1.598  10.862 -0.1997  0.2239 -0.0641
25748W        W42596   2.258  13.521  14.476  0.3428 -0.2314 -0.0209
25749W        W42597  13.860  15.313  14.138 -0.0076 -0.0778 -0.2685
25750W        W42598  14.148  15.351  10.813  0.0290  0.2719  0.0949
25751W        W42599   1.706   9.315   1.616  0.1182 -0.2975 -0.1766
25752W        W42600  17.098   9.516  16.166 -0.1109 -0.1694 -0.2074
25753W        W42601  10.137  16.332   6.171  0.0775  0.2228 -0.1799
25754W        W42602   9.909   9.158   1.238  0.0641  0.1559  0.2494
25755W        W42603  10.405  12.484   4.908 -0.0842  0.1329 -0.0008
25756W        W42604  12.642   0.566  10.447 -0.0782 -0.0529  0.2136
25757W        W42605   9.582  13.178   6.282 -0.0116  0.2303  0.1499
25758W        W42606  16.766  10.117   3.105  0.0355 -0.0811 -0.0330
25759W        W42607   9.848   6.418  15.446  0.0755 -0.0196  0.0325
25760W        W42608   5.042  13.535   1.041 -0.0291  0.0196 -0.0209
25761W        W42609   9.987   6.723   3.658  0.2019  0.1196 -0.0176
25762W        W42610   7.408  13.959  15.932 -0.1641 -0.0067 -0.2689
25763W        W42611  10.424  10.146   1.958  0.1641  0.1500 -0.2220
25764W        W42612  11.565  18.030  15.240  0.0568  0.0397 -0.1670
25765W        W42613   4.781  17.499   2.960  0.0635  0.3051 -0.3487
25766W        W42614   0.235   6.438   2.265 -0.0929 -0.0986  0.1047
25767W        W42615  11.783   7.667  13.296  0.0537 -0.0650  0.0745
25768W        W42616  16.561   3.306  15.485 -0.0141 -0.2035 -0.1007
25769W        W42617   4.453  11.662  15.492  0.0386 -0.1068 -0.0312
25770W        W42618   7.393   5.446  13.591 -0.0912 -0.1748 -0.1002
25771W        W42619  10.119  14.272   4.211  0.2739  0.1377 -0.0076
25772W        W42620   8.100  12.401  13.116 -0.0977 -0.0181 -0.2355
25773W        W42621   7.503   8.669  15.216 -0.0510  0.0207  0.0303
25774W        W42622   7.828   4.977   0.103 -0.0205  0.0906  0.3137
25775W        W42623   1.138   6.497  13.453  0.1035 -0.2353  0.2502
25776W        W42624  11.824   9.921   5.059  0.1480  0.0292  0.0445
25777W        W42625   0.469   0.947  14.426  0.2622  0.0167 -0.0146
25778W        W42626   9.390   5.377   1.107  0.0131 -0.0318  0.0468
25779W        W42627  10.799  10.498   1.864 -0.1304  0.3025 -0.1115
25780W        W42628  12.540  11.197   2.487 -0.0085  0.3113  0.3130
25781W        W42629   3.240  17.369   0.347 -0.0261 -0.4624 -0.1549
25782W        W42630   1.862  12.066  14.508 -0.0106 -0.0025  0.0476
25783W        W42631   1.873   0.573  14.568 -0.2237 -0.1392  0.0798
25784W        W42632  10.751   5.577  11.714  0.2883 -0.0761  0.0930
25785W        W42633  16.247   5.056  11.856 -0.0600  0.1157 -0.1653
25786W        W42634   5.895  15.452   1.280  0.2378 -0.0175  0.0492
25787W        W42635   7.229   1.376  11.993  0.1037 -0.1448 -0.0410
25788W        W42636  10.200   9.910   3.526 -0.0451 -0.3154  0.0928
25789W        W42637  16.421  13.293  11.182  0.1926  0.1476 -0.2897
25790W        W42638   9.095   3.750   3.420  0.0878 -0.0529  0.2976
25791W        W42639  11.569   1.056   0.860  0.1134 -0.1345  0.0668
25792W        W42640   4.534  15.038   1.238  0.0449 -0.0665 -0.0143
25793W        W42641  16.079   2.755   2.362  0.1682  0.2146 -0.1488
25794W        W42642   8.706   5.229   4.766  0.1084 -0.0049  0.1369
25795W        W42643   1.630   3.617   0.033 -0.0813  0.1608  0.2822
25796W        W42644  12.162  13.495  14.497  0.0783  0.2244 -0.0333
25797W        W42645  10.753  12.281   4.576  0.0975  0.0931 -0.2762
25798W        W42646  11.442   5.136  13.398 -0.0110 -0.1161  0.0521
25799W        W42647   2.118   3.045  13.219  0.5068 -0.2193  0.5166
25800W        W42648  16.410   8.155   3.133  0.0255 -0.1264 -0.1803
25801W        W42649  13.401   6.750   5.724 -0.0295  0.0190 -0.1915
25802W        W42650  13.223  14.799  12.129 -0.1612  0.3090 -0.1451
25803W        W42651   4.065   5.486   5.310  0.0867  0.0802 -0.0071
25804W        W42652  12.488  13.588  11.830 -0.1946 -0.2679 -0.0125
25805W        W42653   2.790   2.356  12.194  0.0524  0.0184  0.2840
25806W        W42654  15.807   5.279   4.525 -0.0293 -0.1835  0.0917
25807W        W42655  12.498   0.795  15.412  0.0477 -0.1235  0.1873
25808W        W42656  15.270   8.668   2.535  0.0438  0.3249 -0.2451
25809W        W42657   9.020  16.129   4.088  0.2910  0.2579 -0.0717
25810W        W42658   5.999  15.463   0.126  0.0690  0.1447  0.2576
25811W        W42659  12.650   0.355  10.944  0.1098  0.0687  0.1279
25812W        W42660  10.481  15.070  15.066 -0.0494  0.0217 -0.2448
25813W        W42661  11.413   2.449  12.514 -0.1383 -0.0070  0.0927
25814W        W42662  15.633   1.778  14.606  0.0021  0.0704 -0.0562
25815W        W42663   9.386   5.168  13.910 -0.1484  0.3589 -0.2391
25816W        W42664   0.945  13.047   0.394  0.0026 -0.0374  0.1068
25817W        W42665  16.390   5.500  15.799 -0.0083  0.0391  0.0993
25818W        W42666  11.175  15.209  13.692 -0.2044  0.4425 -0.1560
25819W        W42667   4.431   5.546  12.372 -0.2419 -0.3406  0.1601
25820W        W42668   9.767  14.218   4.552  0.0031 -0.0015 -0.2776
25821W        W42669   9.687  16.573   0.970 -0.1689 -0.1482 -0.0617
25822W        W42670   3.281   2.290  11.882  0.2704  0.0729 -0.1105
25823W        W42671  13.197   3.219  12.368  0.0322  0.1682 -0.0538
25824W        W42672   1.498   2.926  12.044 -0.0800  0.1222 -0.0774
25825W        W42673  17.959   5.273   2.641  0.1033 -0.0122  0.2918
25826W        W42674  11.730  15.307  14.748 -0.0521  0.0367  0.0898
25827W        W42675  13.034   9.532  10.836  0.0645  0.1225 -0.2320
25828W        W42676   9.554   5.469   0.311 -0.1884 -0.0750 -0.0452
25829W        W42677   9.309   0.047   0.938 -0.1943  0.1332  0.1221
25830W        W42678  17.327   9.330  12.575 -0.2367 -0.0876  0.3956
25831W        W42679  15.616  15.690   4.138  0.1119  0.0106  0.1350
25832W        W42680   0.148  14.501  13.873 -0.0215  0.2355 -0.0579
25833W        W42681   3.897  14.558  14.647  0.0369  0.0793 -0.0630
25834W        W42682  12.547   3.002   1.393  0.2694  0.1635  0.1267
25835W        W42683  10.320   2.844   0.947  0.0318 -0.2142  0.1282
25836W        W42684  17.864   9.822  15.979 -0.1468 -0.3539 -0.0582
25837W        W42685   7.015   5.082  11.421 -0.0128 -0.0559 -0.3121
25838W        W42686  13.171  10.820   5.887  0.2033 -0.1829  0.2433
25839W        W42687   9.478   7.338  13.854 -0.4920  0.1674  0.2559
25840W        W42688  17.273   3.304  15.682  0.0050  0.0835  0.1044
25841W        W42689  10.870   3.896   3.759  0.1581  0.0862  0.2243
25842W        W42690  11.832  17.075  12.796 -0.1240 -0.0897 -0.0012
25843W        W42691   7.536   2.644   4.903 -0.0362  0.0280 -0.1046
25844W        W42692   0.782   3.165  12.626  0.2544 -0.1138 -0.2128
25845W        W42693  13.469   8.708  12.376 -0.0768 -0.0015 -0.0745
25846W        W42694   7.845  13.677   1.746  0.3851  0.1512  0.2502
25847W        W42695  16.980   2.639  12.167  0.0492 -0.1409  0.3632
25848W        W42696  12.766  15.261   4.464 -0.1641 -0.0679  0.1025
25849W        W42697   2.482  16.839   4.582  0.0795  0.1086 -0.0611
25850W        W42698   1.315  15.724   3.607  0.1457  0.0184  0.1378
25851W        W42699   7.907  10.351  11.484  0.0030  0.2622 -0.0571
25852W        W42700  16.187  10.013  12.466 -0.0516  0.2786  0.0834
25853W        W42701   3.031   3.990  14.656 -0.0867  0.0487  0.0350
25854W        W42702   8.760  13.939   3.906  0.0720  0.1089  0.4420
25855W        W42703  16.406  13.780  11.203  0.0769  0.2425 -0.1261
25856W        W42704   4.379   2.487  16.040 -0.1745  0.3494 -0.0196
25857W        W42705  16.835   8.588   0.631 -0.3606  0.0695  0.0002
25858W        W42706   5.884   2.237   6.274 -0.2298  0.1057  0.1370
25859W        W42707   6.051  16.508  15.717 -0.3953  0.1998 -0.0894
25860W        W42708   9.812  15.565  12.875 -0.2302 -0.3089  0.0160
25861W        W42709   8.508  15.717   0.399 -0.1053  0.1410  0.0514
25862W        W42710  11.615  14.423  14.272 -0.0648 -0.2494 -0.0848
25863W        W42711  11.910   7.963  15.834 -0.0301  0.2748 -0.0998
25864W        W42712  10.930   6.651   3.391 -0.2648 -0.0072  0.2370
25865W        W42713   3.929   7.436  12.420 -0.0128 -0.0925 -0.0574
25866W        W42714   7.330   6.793   0.431  0.1343 -0.1590 -0.1998
25867W        W42715  10.672   1.824  13.066  0.0692  0.2509  0.0719
25868W        W42716   7.748   6.666   1.350  0.3108 -0.0811 -0.1366
25869W        W42717  12.874   9.276  10.392  0.2634 -0.2663  0.0314
25870W        W42718  13.707  14.034   3.806 -0.0386  0.0799  0.2025
25871W        W42719   3.235  17.903   4.570 -0.2339  0.1190  0.0925
25872W        W42720  12.871   1.435  15.867 -0.1463  0.0553  0.1413
25873W        W42721  12.684  15.857   3.765 -0.0979 -0.1701 -0.2033
25874W        W42722   1.158   6.743   2.102  0.0963  0.0838 -0.2228
25875W        W42723   9.756  14.307   5.259 -0.0649  0.1702 -0.4064
25876W        W42724   8.203   1.661  14.263 -0.1556 -0.1404 -0.1173
25877W        W42725   4.748   1.144   2.471 -0.0191  0.0046 -0.1114
25878W        W42726  14.696   6.364  12.370  0.0555 -0.0073  0.0964
25879W        W42727   9.251   5.929  14.473  0.0258 -0.1443  0.0127
25880W        W42728   4.866   8.915  14.200 -0.5483 -0.1125 -0.0649
25881W        W42729   9.219   6.699   2.644  0.1479 -0.2981 -0.2814
25882W        W42730   5.369   1.470   0.100  0.1469 -0.1490  0.1655
25883W        W42731   4.173   5.428   2.627 -0.0156 -0.1158 -0.0142
25884W        W42732  12.918   8.335  12.159  0.1521 -0.0196 -0.0422
25885W        W42733   3.420   7.284  15.881 -0.1852  0.2208  0.1303
25886W        W42734   4.820  11.984   2.117 -0.1305  0.0784 -0.0709
25887W        W42735  13.490  15.124   4.619  0.0744 -0.1837 -0.1933
25888W        W42736  13.237   7.885  15.568 -0.1728 -0.1527  0.0665
25889W        W42737  11.243  17.691  14.700 -0.0952 -0.0492 -0.1856
25890W        W42738  17.782  16.783  11.671 -0.0696  0.1269  0.0676
25891W        W42739   8.636   5.145  15.565  0.1057 -0.2050  0.2449
25892W        W42740   4.466  11.083  11.215  0.0183 -0.2643 -0.2899
25893W        W42741  15.431  14.536   3.546 -0.1302 -0.0653  0.0011
25894W        W42742  16.097   9.621  12.134 -0.0932  0.2703  0.1288
25895W        W42743   9.933   8.806   4.722  0.1990 -0.1435  0.0328
25896W        W42744  15.247   8.579   3.794  0.0214 -0.2512  0.0310
25897W        W42745   6.105  13.663  14.166 -0.0949  0.1210 -0.0368
25898W        W42746   1.202   2.441   3.699 -0.2842 -0.1507  0.1968
25899W        W42747   5.822  16.562   1.967 -0.0906  0.1186 -0.1344
25900W        W42748   3.668  15.447  11.604  0.2262  0.2260 -0.4241
25901W        W42749   5.861   5.597  14.724  0.1895  0.3305  0.1255
25902W        W42750   9.427  11.613   0.872  0.0086 -0.2676  0.1977
25903W        W42751  16.439  10.072   2.354 -0.2872  0.3366 -0.1376
25904W        W42752  10.066  12.758   2.175 -0.2451 -0.1247 -0.2629
25905W        W42753  13.823   3.260   3.971  0.0147 -0.0275 -0.2444
25906W        W42754   8.459  10.741  16.117  0.0898 -0.0599 -0.0355
25907W        W42755   9.655   2.592   2.902 -0.1982 -0.0032 -0.0862
25908W        W42756   4.032   8.527  12.482  0.1114 -0.0472 -0.0029
25909W        W42757   2.883  13.415  13.201 -0.0222  0.0480  0.1002
25910W        W42758  14.605   1.988   3.015  0.1449  0.3236 -0.2066
25911W        W42759  15.976   7.138  13.561  0.0795 -0.0913 -0.1373
25912W        W42760   9.203   5.128   2.394 -0.2834 -0.0253 -0.0543
25913W        W42761   3.419   0.461  15.917 -0.3150 -0.0752 -0.4878
25914W        W42762  15.700   6.684   2.540  0.1271 -0.1660  0.1332
25915W        W42763  13.931  16.941  16.175  0.4876 -0.5461 -0.0664
25916W        W42764  11.970   7.952  13.712 -0.1046 -0.2532  0.1672
25917W        W42765  14.413  12.333  14.006 -0.1546 -0.0480  0.1550
25918W        W42766   0.010  15.549  13.161  0.1285  0.2049  0.1070
25919W        W42767   0.899  14.334   4.698 -0.1270  0.2485  0.0211
25920W        W42768   9.360  17.111  12.510 -0.2641  0.1585  0.1991
25921W        W42769   2.617  14.972  14.555  0.0677  0.1544  0.2663
25922W        W42770   4.479   6.467  13.042 -0.3954  0.1641 -0.0331
25923W        W42771   6.549   4.950  16.211  0.3651  0.0581  0.1750
25924W        W42772  10.173   6.739   2.473 -0.2169  0.3319 -0.2464
25925W        W42773   5.626  13.695   3.524  0.0885 -0.0195  0.0496
25926W        W42774  11.389  17.273   1.339  0.0897  0.0055 -0.2656
25927W        W42775   2.639   2.830  16.102  0.1433  0.0640 -0.1878
25928W        W42776   7.847   8.860   2.487 -0.1231  0.1345 -0.2381
25929W        W42777  10.298   0.402   3.749 -0.2075  0.1263 -0.3591
25930W        W42778  14.081  17.625  11.806 -0.0046 -0.0446 -0.1976
25931W        W42779   9.739   1.789   4.095 -0.2177 -0.3183  0.2362
25932W        W42780   5.507  10.682   5.899  0.0918  0.4221 -0.2033
25933W        W42781   8.933   5.617  15.661  0.2331  0.1668 -0.0361
25934W        W42782   0.206  14.667  10.440 -0.3929  0.1677  0.1194
25935W        W42783   0.741  11.649  11.614  0.4032 -0.1401  0.3725
25936W        W42784   1.246  16.320  11.833  0.0410  0.3415 -0.0819
25937W        W42785  17.074   0.666   0.386 -0.3116  0.0440  0.0265
25938W        W42786  11.584  11.488  16.137  0.0661  0.2216 -0.2449
25939W        W42787  10.104  12.028   1.146 -0.0835  0.0147  0.1381
25940W        W42788  11.426  13.008  13.292  0.4399 -0.1807 -0.0109
25941W        W42789   4.187  15.763  15.314  0.1593 -0.2565 -0.1408
25942W        W42790   1.255  10.003   0.527 -0.1824 -0.1722 -0.2211
25943W        W42791   2.254   4.913   2.777  0.0321  0.4134  0.2719
25944W        W42792   2.334  17.170   2.742 -0.1247  0.1418 -0.1996
25945W        W42793  16.209   7.147   3.196 -0.3076 -0.1195  0.0147
25946W        W42794   9.689  16.635   5.004  0.3096  0.0671 -0.2696
25947W        W42795   1.414  10.935   3.710 -0.2620 -0.3387  0.0647
25948W        W42796   6.304  12.948   5.103 -0.1490  0.0188 -0.5102
25949W        W42797   9.260   1.643   4.320 -0.0998  0.1345  0.3563
25950W        W42798   0.521  15.283   4.664 -0.0527  0.2711  0.0247
25951W        W42799  14.362  17.069   3.762  0.2538 -0.1591  0.4157
25952W        W42800  14.181   8.117   2.502 -0.0113 -0.0043  0.1530
25953W        W42801   8.714   5.955  12.810 -0.1363  0.3753 -0.0996
25954W        W42802  12.021  15.585  13.873 -0.3020 -0.1919  0.1211
25955W        W42803  17.715  15.349   2.363  0.1274  0.1553 -0.0874
25956W        W42804  10.130  16.631  13.650  0.1733  0.1047 -0.1454
25957W        W42805  17.884   6.195   1.140 -0.1111  0.1794 -0.0559
25958W        W42806  13.885  15.617   4.641  0.2545  0.1944  0.3111
25959W        W42807   3.310  17.981   0.548 -0.2169 -0.0547 -0.2811
25960W        W42808   9.013  17.279  11.113  0.2535 -0.1728  0.2884
25961W        W42809   1.375  17.155  12.961  0.0092 -0.0903 -0.1533
25962W        W42810  14.184   1.921  14.139 -0.2351 -0.0930  0.1083
25963W        W42811  17.096   3.870   3.362  0.0868  0.0851 -0.2048
25964W        W42812  16.500   9.313   3.923 -0.1238  0.3333 -0.3140
25965W        W42813   4.877   9.723   1.925 -0.2176  0.1388  0.2543
25966W        W42814   7.634  11.473  10.810 -0.2724  0.2440  0.1997
25967W        W42815   0.110  16.136   2.179 -0.0126  0.3776  0.0666
25968W        W42816  15.562   9.747  12.961 -0.0721 -0.2093  0.0333
25969W        W42817  10.759   8.204  12.792 -0.1129  0.0164  0.0937
25970W        W42818  14.151   1.186  11.708 -0.0404 -0.2322 -0.0334
25971W        W42819   6.163   5.234   0.270  0.3539  0.1142  0.0753
25972W        W42820  12.751   0.311   1.281  0.2128  0.1556 -0.3192
25973W        W42821  17.584   4.559   3.351 -0.1946  0.0308 -0.3408
25974W        W42822   9.178   5.538   2.695 -0.1128  0.0463 -0.0592
25975W        W42823   7.780   2.872  12.827  0.0510  0.0426 -0.3032
25976W        W42824  12.307  14.140   0.154  0.0195 -0.0339 -0.1044
25977W        W42825   3.161  13.360   5.387 -0.0296 -0.2093 -0.0957
25978W        W42826  17.359  16.461  15.761  0.0298  0.0142  0.1552
25979W        W42827   4.117   4.182   3.940  0.0450 -0.0874  0.4441
25980W        W42828   5.266  14.426   4.912 -0.0286 -0.2072  0.1222
25981W        W42829   0.431   6.259   1.126 -0.1158  0.0774  0.2520
25982W        W42830   2.565   2.847   1.037  0.1137 -0.0113  0.1196
25983W        W42831  14.540   0.988  15.598 -0.1817  0.0187  0.0069
25984W        W42832  15.915  14.539   3.439  0.0520  0.2941 -0.0989
25985W        W42833   8.378   2.166  10.956 -0.2800 -0.1673 -0.2752
25986W        W42834  14.965   8.597   5.838  0.3101 -0.0070 -0.0225
25987W        W42835  12.870   7.594   3.652  0.2213  0.0362 -0.1721
25988W        W42836  12.754   8.600  11.310  0.1942  0.1341  0.0461
25989W        W42837   2.356   7.518   2.952  0.2148 -0.0118  0.2219
25990W        W42838   4.815   2.473   2.685  0.0111 -0.1486  0.1034
25991W        W42839   7.478   1.248   4.469 -0.1703  0.0673  0.2747
25992W        W42840   9.365  13.676   0.252  0.1131 -0.1209 -0.1899
25993W        W42841   1.545  14.482  15.657  0.3022 -0.2071 -0.1242
25994W        W42842  16.270  17.893   4.697  0.3151  0.3600  0.0430
25995W        W42843  11.145  15.428   4.179  0.2905  0.0062 -0.0042
25996W        W42844   4.547  11.895  14.829  0.0537  0.1224 -0.1111
25997W        W42845  13.702   5.673  14.635 -0.0293 -0.1641  0.2814
25998W        W42846   7.089   1.066   3.735  0.0687  0.0291  0.0253
25999W        W42847   6.557  12.401  12.470 -0.1694 -0.0683  0.5321
26000W        W42848   2.500   0.229  16.260  0.0015  0.1163  0.1929
26001W        W42849   9.642   9.924  14.010 -0.0218 -0.0846  0.1190
26002W        W42850   9.871   7.277  14.329  0.1498  0.1723 -0.3161
26003W        W42851  12.808   0.679   0.436  0.0729 -0.0463  0.0919
26004W        W42852   8.516  12.808  12.595  0.2688 -0.2136 -0.1675
26005W        W42853   5.729  12.025  11.946 -0.0004 -0.0772 -0.1272
26006W        W42854   8.326   9.594   3.582  0.0328  0.0867  0.1568
26007W        W42855   2.037  15.607  12.051 -0.0704 -0.1285 -0.2247
26008W        W42856   2.747   6.575  12.778  0.1138  0.1408 -0.0253
26009W        W42857  13.392   8.368  13.290 -0.0099  0.1267  0.1852
26010W        W42858  10.318  16.941   2.494 -0.1575  0.1447  0.2630
26011W        W42859   8.675   5.808   2.624 -0.1420  0.1216  0.1184
26012W        W42860  11.551  12.514   1.248  0.1900  0.3041  0.0473
26013W        W42861   4.839  17.249  14.111  0.3220  0.1930 -0.1463
26014W        W42862  11.844   5.785   2.958  0.1757  0.2722 -0.0271
26015W        W42863  11.508   1.694   3.425 -0.3206  0.1150 -0.1488
26016W        W42864   3.964  16.835  13.191 -0.2152  0.0459 -0.1701
26017W        W42865  10.010  12.954   4.638 -0.2117 -0.4150 -0.1042
26018W        W42866  10.295  14.090   5.149 -0.3580 -0.0299 -0.2176
26019W        W42867  15.883  12.065  15.060  0.2134  0.1010  0.2265
26020W        W42868   9.569  15.948  15.596 -0.0060  0.2602  0.0269
26021W        W42869  15.106  16.449   1.055 -0.2487  0.3514 -0.0473
26022W        W42870   5.568   6.653   2.152 -0.0276 -0.5470  0.1929
26023W        W42871   5.461   8.048  11.683  0.0119  0.0438 -0.2800
26024W        W42872   0.583   7.262   1.894  0.0009 -0.0758 -0.0948
26025W        W42873  11.568   5.926  12.630 -0.7443  0.3690 -0.0537
26026W        W42874   5.131   6.614  10.982  0.0236  0.2607 -0.0246
26027W        W42875   6.421   9.405  14.173 -0.2119 -0.3719 -0.2490
26028W        W42876  10.972  10.684   3.011 -0.1006  0.3018 -0.1200
26029W        W42877   1.060   0.800  15.707  0.4237  0.3266  0.0434
26030W        W42878   7.496  17.675   0.755  0.0552  0.2473  0.1169
26031W        W42879   0.331   3.004  12.736 -0.2096  0.1453 -0.1457
26032W        W42880   6.460   4.527   4.144 -0.0909 -0.2150 -0.2223
26033W        W42881  15.248  11.037   0.120 -0.4561 -0.1749  0.0233
26034W        W42882   6.775   7.553  15.272  0.1814  0.1388 -0.0167
26035W        W42883  16.770  13.162  15.564  0.2599 -0.1031  0.1005
26036W        W42884   1.165   5.749  12.487  0.0842 -0.3092 -0.0461
26037W        W42885  15.101   1.582   5.592 -0.0570 -0.2019  0.2761
26038W        W42886   2.223  10.602  15.820 -0.4324  0.0529 -0.0628
26039W        W42887  11.127   2.254  15.250  0.2408  0.1418  0.0643
26040W        W42888  17.391   2.919  12.870 -0.0160  0.4900 -0.0919
26041W        W42889  12.971   8.493  16.109 -0.1593 -0.1964  0.2930
26042W        W42890   0.745   8.720  12.413  0.2433  0.1733 -0.0519
26043W        W42891   6.358  14.514  14.121 -0.2347  0.1815 -0.0313
26044W        W42892  10.146   0.543   4.887 -0.0684  0.2684 -0.1032
26045W        W42893  12.883  14.385   1.060 -0.1470 -0.2590  0.1567
26046W        W42894   3.925  17.872  11.279 -0.0251  0.2764 -0.1480
26047W        W42895   2.814  10.549   0.052  0.0431 -0.1066 -0.0626
26048W        W42896   1.037  15.863  14.791  0.1344  0.1470  0.2393
26049W        W42897   5.059   6.446   5.889 -0.1308 -0.1877 -0.1185
26050W        W42898   5.532   4.857   0.735  0.0294  0.1578 -0.0948
26051W        W42899   6.135   4.790   3.305 -0.4915 -0.2478 -0.0162
26052W        W42900   3.540  10.937  15.919  0.0248  0.0322 -0.0823
26053W        W42901  11.187   6.802  15.589  0.0693 -0.3826  0.0413
26054W        W42902  11.643   0.190  11.831 -0.3476  0.1225  0.2162
26055W        W42903   7.398   1.620   0.175  0.0518 -0.0796  0.1351
26056W        W42904   9.461   9.426   5.230  0.2385 -0.2036  0.2868
26057W        W42905  15.007  12.821  11.964  0.3409  0.1021  0.2225
26058W        W42906  17.720  13.961  11.522  0.3246 -0.1536 -0.1257
26059W        W42907   3.061   2.989  14.681  0.0775 -0.1724 -0.0573
26060W        W42908   8.455  13.367  10.962 -0.1520 -0.0663 -0.1978
26061W        W42909   8.896   4.499   2.989 -0.0298  0.1459  0.0092
26062W        W42910   0.644  12.288   3.717  0.1157  0.2708 -0.0791
26063W        W42911   6.064  13.732  11.800  0.2354  0.3023 -0.0612
26064W        W42912   7.040  15.872   4.695  0.3119 -0.1478 -0.0639
26065W        W42913   7.929  11.952   1.981 -0.0826 -0.0499  0.2612
26066W        W42914  17.663  13.440  12.192  0.2220 -0.0398 -0.1324
26067W        W42915  11.830  12.003  16.109  0.0033  0.2748  0.0131
26068W        W42916   8.721  13.354   3.036  0.1415  0.3956 -0.4079
26069W        W42917  14.779  14.881   2.010 -0.2457  0.0388  0.0353
26070W        W42918   5.404  14.866   1.567 -0.1077 -0.1878  0.0688
26071W        W42919  14.671   0.357  10.023  0.2279  0.1151  0.2154
26072W        W42920   6.587   1.270   5.549 -0.3775 -0.0184  0.0247
26073W        W42921   6.493  17.910   3.073  0.1251  0.1745 -0.1679
26074W        W42922   7.661  14.671   3.564 -0.0736  0.1757 -0.0976
26075W        W42923  13.746   5.761   3.512 -0.1341 -0.0806 -0.0437
26076W        W42924   9.565  14.426   2.284  0.0805  0.1816  0.1007
26077W        W42925   5.954  17.964  11.264  0.1218 -0.1229 -0.1330
26078W        W42926  16.865   6.108  12.919  0.1719  0.0566 -0.1741
26079W        W42927  18.025   7.912   6.214  0.0616  0.2450 -0.3628
26080W        W42928   6.094  14.079  13.138  0.2033 -0.3007 -0.0038
26081W        W42929  15.906  12.903  13.521 -0.0983 -0.0739 -0.0504
26082W        W42930  14.509  14.317   0.009  0.1503 -0.1935 -0.1021
26083W        W42931  10.248  14.964   1.976 -0.1486  0.1734 -0.1687
26084W        W42932  11.796  12.314   2.250 -0.0902 -0.3759  0.0265
26085W        W42933   9.007   0.579   4.299 -0.0013  0.1906 -0.0189
26086W        W42934  15.306  13.145   2.642  0.1979 -0.0800  0.0596
26087W        W42935   5.615  11.901  15.946 -0.0351 -0.0636  0.0780
26088W        W42936  14.201  16.127  14.335 -0.1828 -0.1030 -0.0596
26089W        W42937   9.905   1.771  12.391 -0.0105  0.0796 -0.3947
26090W        W42938   4.021  13.312  16.108 -0.0512 -0.0753  0.0753
26091W        W42939   6.601   4.984   3.418 -0.1218 -0.0854 -0.0425
26092W        W42940   9.796   5.342  11.531  0.2455  0.0354 -0.4664
26093W        W42941  14.721  12.669   3.974 -0.0128  0.4175 -0.0730
26094W        W42942  17.528   6.323   4.142  0.2650  0.1384 -0.3555
26095W        W42943  17.268   1.250  14.349 -0.2063 -0.0956  0.2747
26096W        W42944  16.438  14.312  11.157  0.1097  0.4945 -0.3269
26097W        W42945   9.737   3.137   3.743  0.3642 -0.2081 -0.3075
26098W        W42946  15.857  15.402  15.775 -0.1533 -0.0606 -0.1989
26099W        W42947   9.965   2.147   2.798 -0.2820 -0.1033  0.0608
26100W        W42948  15.245   7.302   5.341  0.0653 -0.0258  0.0323
26101W        W42949   5.249   8.170  14.478 -0.4187 -0.1978 -0.0910
26102W        W42950  12.526   6.692  15.684 -0.3617 -0.1767  0.1322
26103W        W42951   4.602   5.278   4.642  0.0099 -0.1589  0.2171
26104W        W42952   2.325  15.153   3.232  0.1229 -0.2252  0.1051
26105W        W42953   4.091  15.272  13.552  0.2005  0.0052  0.1750
26106W        W42954   8.373   1.563  15.443 -0.3405 -0.0326  0.1466
26107W        W42955   7.267  17.888   2.095 -0.0789  0.0595  0.1845
26108W        W42956  11.008  16.680   0.042  0.0433  0.0058 -0.0644
26109W        W42957   8.527  15.935  13.187  0.1157 -0.0191  0.1641
26110W        W42958  13.550  12.523   4.047 -0.0453 -0.0824 -0.0058
26111W        W42959  16.658   3.020   1.863 -0.0075 -0.0461  0.0292
26112W        W42960  16.635   5.085  12.556  0.1305 -0.3152 -0.1987
26113W        W42961   9.871  10.767   5.618  0.3067 -0.0054  0.3410
26114W        W42962  16.904  16.845  11.770  0.0582  0.3615 -0.2051
26115W        W42963   9.527  16.928   6.100  0.4549  0.0421 -0.2273
26116W        W42964  12.674  15.390   2.494 -0.1109 -0.1366 -0.0212
26117W        W42965  12.696  17.397   0.232  0.1105 -0.4406 -0.1199
26118W        W42966  10.130  13.015  14.856  0.2669  0.0559  0.1754
26119W        W42967  17.940  11.832  14.073 -0.3729 -0.4050 -0.1301
26120W        W42968   4.414   3.776  14.435 -0.2712 -0.3166 -0.0426
26121W        W42969   2.309   2.709  12.330 -0.1996 -0.0535 -0.0730
26122W        W42970   1.825  13.356   1.088  0.0985  0.1831 -0.5463
26123W        W42971   3.397   1.169  11.696  0.0640 -0.1260 -0.0641
26124W        W42972  14.341   6.714  12.423 -0.0374  0.1819 -0.0717
26125W        W42973   6.486   9.835  11.321 -0.0825  0.2442 -0.1139
26126W        W42974  10.786   1.864   2.239  0.0993 -0.2022 -0.0560
26127W        W42975  15.316   6.944   3.282 -0.6840  0.0887  0.1844
26128W        W42976  16.706  14.050   1.619  0.0285  0.0881 -0.1816
26129W        W42977  10.849   6.060   4.741  0.1313 -0.0329  0.0823
26130W        W42978   9.421   0.269  15.174 -0.2602 -0.0268  0.0567
26131W        W42979   6.614  16.387  15.759  0.2253 -0.4057  0.2008
26132W        W42980  10.750  16.089   3.568 -0.0750  0.1134 -0.1016
26133W        W42981   3.373  11.589   1.524  0.2506  0.1164 -0.3200
26134W        W42982   6.240   2.526   0.462 -0.0524 -0.0350 -0.1622
26135W        W42983   3.105   6.122   3.178 -0.0061 -0.2139 -0.1781
26136W        W42984  14.567   2.168  11.974  0.0916 -0.1058 -0.1845
26137W        W42985  17.961  10.359   2.548  0.2223 -0.0470 -0.3663
26138W        W42986  17.096  14.849  16.240 -0.3490  0.0871 -0.0637
26139W        W42987   0.361   6.924   0.396 -0.2263  0.1017  0.0067
26140W        W42988   3.680  15.900   2.681  0.1063  0.3722  0.0893
26141W        W42989   9.397  16.236   5.213  0.3417  0.0940  0.0866
26142W        W42990  16.417   1.700   2.393  0.0663 -0.2570  0.1370
26143W        W42991   8.177   4.924  11.222  0.0245 -0.1745  0.0183
26144W        W42992   4.617  15.661  15.510  0.0073  0.0906  0.1443
26145W        W42993   1.232  17.810   1.160 -0.1381 -0.2648  0.0662
26146W        W42994  16.620  16.624   4.882  0.0925  0.4884 -0.3707
26147W        W42995   8.712  17.424  10.666  0.2846  0.0025  0.2350
26148W        W42996   2.045  15.489  11.419  0.0729 -0.1864 -0.0351
26149W        W42997   5.209   4.523  13.196  0.1478 -0.5514  0.2271
26150W        W42998   7.647  10.417   3.549  0.0196  0.0164 -0.0795
26151W        W42999  12.906  12.587   4.236 -0.0865  0.0748 -0.1736
26152W        W43000   4.664  17.604   3.706 -0.1925  0.1170 -0.2695
26153W        W43001   7.508  16.652   1.493  0.0117  0.0281  0.0744
26154W        W43002   3.246   3.154   3.804  0.4889  0.0264  0.0060
26155W        W43003  10.011   4.633  13.259  0.0431  0.3432 -0.0139
26156W        W43004   8.781   4.568  12.752  0.1441 -0.1171  0.1276
26157W        W43005   0.904   0.194  11.866 -0.1316 -0.0371  0.0280
26158W        W43006  15.852  10.395   1.460 -0.3374  0.2132  0.0217
26159W        W43007  11.027   6.154  11.165 -0.1049  0.2178 -0.1572
26160W        W43008   3.423   0.994  15.888 -0.2693 -0.0067 -0.0144
26161W        W43009  16.974  13.592  14.329  0.2280 -0.1180 -0.3692
26162W        W43010   2.925   3.664  12.843  0.2430  0.3580 -0.0383
26163W        W43011   2.703  13.588  10.471 -0.0846 -0.0082 -0.1761
26164W        W43012  17.857  16.282   6.116  0.1594 -0.0723 -0.2799
26165W        W43013   8.506   5.367   3.277 -0.4402  0.0489 -0.1378
26166W        W43014  13.469  16.898   3.375 -0.0290 -0.0842  0.0135
26167W        W43015  15.646   2.819   3.430 -0.0784 -0.1811  0.0342
26168W        W43016  14.246   6.271  12.762  0.3068 -0.0447 -0.2978
26169W        W43017  13.274  14.810  16.255  0.0091  0.0537  0.1534
26170W        W43018   7.904   8.922  16.006  0.2197 -0.1659  0.1375
26171W        W43019  13.813   3.940   1.977  0.0283 -0.0368  0.4175
26172W        W43020  10.997   2.240   4.273  0.0092 -0.2125  0.1416
26173W        W43021  17.851  10.120   4.139 -0.0146 -0.2059  0.1142
26174W        W43022   4.303  17.743   0.166 -0.0542  0.4462 -0.0729
26175W        W43023   1.325  13.797   4.248  0.1809 -0.2923  0.0245
26176W        W43024   9.884   8.622   2.286  0.0056 -0.1222  0.0115
26177W        W43025   9.896  17.577  13.227  0.0882  0.1297  0.5387
26178W        W43026  10.193  10.447   3.937 -0.0353  0.0513  0.2048
26179W        W43027   4.126   4.659   3.043  0.2804 -0.0802 -0.0377
26180W        W43028   1.166   5.287   4.796 -0.0213  0.1039  0.4451
26181W        W43029   0.694  10.894   0.336  0.2963  0.2531 -0.1138
26182W        W43030  10.889  16.670   3.653 -0.3004  0.1797  0.0784
26183W        W43031  11.499   9.242   0.868  0.1240  0.2528  0.1564
26184W        W43032   6.235   1.851   2.361 -0.0808 -0.2518 -0.0513
26185W        W43033  10.962  13.903   4.438 -0.1087  0.2702 -0.3275
26186W        W43034  16.767   6.195   0.794 -0.1746 -0.2664 -0.3489
26187W        W43035  10.290   7.283  15.372  0.3456  0.1858 -0.0672
26188W        W43036  16.445   5.103   5.657  0.2611  0.0132  0.1762
26189W        W43037  12.593   2.669  11.632 -0.2173 -0.4156  0.0246
26190W        W43038   4.748   5.007   5.540  0.0891 -0.2411 -0.2702
26191W        W43039  16.438   9.321   1.289 -0.0517 -0.0263  0.1711
26192W        W43040   6.970   6.758  14.644  0.0469 -0.0372 -0.0604
26193W        W43041   6.785   7.953  12.069 -0.3439  0.0317  0.1435
26194W        W43042   8.330  15.663   3.427 -0.0904 -0.0296 -0.1444
26195W        W43043   2.952  17.026  15.546  0.0543  0.0389  0.3127
26196W        W43044   9.469   8.545   3.268  0.0502 -0.1201 -0.1325
26197W        W43045  14.016  13.266  14.480 -0.1051  0.1321  0.1969
26198W        W43046   8.114  16.275  11.243 -0.1146 -0.0870 -0.0114
26199W        W43047   6.265  11.385  14.158  0.2749 -0.1071 -0.0610
26200W        W43048   8.194  15.733  15.114  0.0107  0.1141 -0.0362
26201W        W43049   7.603  16.876  13.790 -0.0242  0.0265  0.0840
26202W        W43050  14.187   2.411   4.121  0.1668 -0.1627 -0.0082
26203W        W43051   7.313   4.196  16.080  0.2617 -0.0596 -0.0525
26204W        W43052   3.010   3.796  14.164  0.1333  0.1003 -0.2844
26205W        W43053   4.317   5.513  15.111  0.1122  0.6384  0.0392
26206W        W43054  17.166  10.357  13.814 -0.1676 -0.1608 -0.2477
26207W        W43055   5.325   8.401  13.548  0.1483 -0.2927  0.2023
26208W        W43056  13.432   5.346   3.432 -0.2764 -0.4049  0.0654
26209W        W43057   0.070  11.402   1.028 -0.3418 -0.1525  0.1455
26210W        W43058  10.978   7.042  13.047 -0.2271  0.1422 -0.0041
26211W        W43059   1.493   3.667  12.771  0.1600 -0.1647 -0.1982
26212W        W43060  12.677  14.137  14.158 -0.1886 -0.2617  0.2143
26213W        W43061  10.420   0.483   1.716 -0.0469  0.2963  0.0056
26214W        W43062  10.869   7.099  12.233 -0.2791  0.2673 -0.4300
26215W        W43063  17.090  15.069  11.288  0.3314  0.2107 -0.1516
26216W        W43064   4.692  14.034   0.521  0.0324 -0.0524 -0.1478
26217W        W43065   4.015  17.600   1.858 -0.2483  0.1627  0.4071
26218W        W43066   4.726   2.165  12.449 -0.2817  0.2407 -0.0069
26219W        W43067   1.418  17.131  12.389  0.3784  0.3500 -0.0866
26220W        W43068   7.395   3.878   0.296  0.1231 -0.1440 -0.1236
26221W        W43069   3.957  11.018   4.501 -0.0462  0.1821 -0.2803
26222W        W43070  13.395  10.819  12.769  0.2414 -0.0074 -0.1483
26223W        W43071   4.495  10.327  14.056 -0.1046  0.0938  0.0837
26224W        W43072  15.055   5.869   1.172  0.0325 -0.0955  0.1080
26225W        W43073  14.745  12.680  15.624  0.0805  0.2991  0.0688
26226W        W43074  10.529   8.826   1.209  0.0241 -0.0836  0.0843
26227W        W43075   1.952  13.093   3.599 -0.2748 -0.1692  0.0340
26228W        W43076   0.984   2.571   4.739 -0.1795 -0.2074  0.2872
26229W        W43077   8.421  15.588  13.509 -0.1026 -0.1504 -0.0387
26230W        W43078   0.432   1.168   2.866  0.1404  0.1899 -0.0686
26231W        W43079  14.512   6.602   3.817  0.1307  0.1509 -0.2386
26232W        W43080  10.176   4.208   0.611 -0.3576  0.0708 -0.1485
26233W        W43081   0.800   1.102  11.936 -0.1475 -0.1831  0.3033
26234W        W43082   5.813  15.566  12.603 -0.1571 -0.0388  0.2620
26235W        W43083  14.752   9.015  12.152 -0.0939  0.1051  0.1016
26236W        W43084  14.640   3.264  14.131 -0.1426 -0.0364  0.0408
26237W        W43085  11.820   8.719   2.279  0.0715 -0.2335 -0.0733
26238W        W43086  12.512  13.789   4.650  0.1896  0.0507  0.0915
26239W        W43087   1.686   8.503   4.809 -0.0313  0.0486  0.2539
26240W        W43088   8.894  10.332  11.021 -0.0240 -0.0650 -0.3782
26241W        W43089   5.831   2.959  12.599  0.1583  0.2477 -0.0475
26242W        W43090  12.871   0.922  14.938 -0.1803 -0.0901 -0.2733
26243W        W43091  16.244  16.208   1.988  0.1263  0.2790 -0.1390
26244W        W43092   6.414   1.900   4.812  0.0190 -0.0718 -0.2402
26245W        W43093   6.382  11.377  10.658 -0.0936  0.0947 -0.3200
26246W        W43094  12.606  17.961  14.764 -0.0528  0.4033 -0.2626
26247W        W43095  11.418  14.204   1.636 -0.0820 -0.0806  0.1245
26248W        W43096   4.099  16.814   1.310  0.1511 -0.2870  0.4228
26249W        W43097  13.276  15.032  10.999 -0.0953 -0.0472  0.1446
26250W        W43098   6.424  18.001  12.073  0.0620 -0.1150  0.3933
26251W        W43099   3.209  12.480  13.723 -0.3239 -0.0448  0.0581
26252W        W43100   8.662  10.850  14.260  0.2565 -0.1763  0.2684
26253W        W43101   8.963   0.781   0.654 -0.2339 -0.0377  0.2535
26254W        W43102  14.319  10.802  13.215 -0.0358  0.3345  0.1243
26255W        W43103   8.072   5.047  10.739  0.1715 -0.0950 -0.1735
26256W        W43104  15.945   1.790  11.605 -0.0643 -0.0016  0.0491
26257W        W43105   5.437   3.219   1.602  0.0099  0.0544  0.5584
26258W        W43106   3.080   4.011  11.582 -0.2328 -0.0496  0.1221
26259W        W43107   7.394   8.300   0.149  0.0255  0.0022  0.2248
26260W        W43108   4.223  10.252   1.737 -0.0566  0.0622  0.0524
26261W        W43109  17.455   9.539   9.941  0.1997  0.1637 -0.1447
26262W        W43110   8.943  10.312  12.836  0.1922  0.1813  0.2296
26263W        W43111   4.587  12.375   3.363  0.1170  0.0170 -0.1158
26264W        W43112  17.725  15.837   2.145 -0.0219 -0.0613 -0.3472
26265W        W43113   3.191   3.426   0.359 -0.1956 -0.0297 -0.4749
26266W        W43114  15.453   8.668  15.580  0.0447 -0.0311 -0.1910
26267W        W43115   6.741  13.975  15.320 -0.1798  0.2000 -0.0166
26268W        W43116   7.555  15.123  12.387 -0.2797  0.0298  0.1024
26269W        W43117   1.461   3.690   0.487 -0.1016 -0.1720  0.0129
26270W        W43118  16.858  10.251  14.218 -0.4386 -0.1985  0.2294
26271W        W43119  10.372  15.315  11.800 -0.1282 -0.2594  0.0467
26272W        W43120  12.582   3.242  15.654  0.2122  0.0263  0.0323
26273W        W43121  14.344  10.926   3.780 -0.1756 -0.3995  0.0508
26274W        W43122   8.386   1.496   4.082 -0.0716 -0.0654 -0.1683
26275W        W43123  17.484   6.532  13.025 -0.2125  0.0726 -0.1052
26276W        W43124   2.094   1.337  14.825 -0.0607 -0.0571  0.0778
26277W        W43125  14.945  15.116  13.650  0.0124 -0.1373 -0.0261
26278W        W43126   5.251   7.215  15.464 -0.0825 -0.2255  0.1592
26279W        W43127  12.944   4.156   2.977  0.3466 -0.0038 -0.0315
26280W        W43128   7.787  10.650   5.163  0.0514  0.2187  0.1303
26281W        W43129  13.712  15.015   0.891  0.1579 -0.0873  0.1002
26282W        W43130   3.852  13.869   2.433 -0.1910  0.2218  0.3324
26283W        W43131  16.582   6.763  11.148 -0.1107  0.2508 -0.3061
26284W        W43132   0.689   1.554  12.976 -0.0637 -0.1442  0.1478
26285W        W43133  12.966  11.344   4.115  0.0389  0.1882 -0.4140
26286W        W43134  10.979  13.992   2.948 -0.3398 -0.1619 -0.2795
26287W        W43135  13.561   4.365   2.138  0.1733 -0.1872  0.0898
26288W        W43136   0.833   5.314  14.654 -0.1562 -0.0643 -0.1046
26289W        W43137   9.574   7.015  12.594 -0.1877  0.2738 -0.0747
26290W        W43138   5.545   4.653  13.582 -0.1345 -0.0965 -0.3735
26291W        W43139   7.294   0.489   2.791  0.0805 -0.3033 -0.0457
26292W        W43140   4.366  10.890   3.515  0.0103 -0.1534 -0.0705
26293W        W43141  11.172  16.228   4.566  0.0917  0.2558 -0.2330
26294W        W43142  12.805  17.998   4.576 -0.6144 -0.0404 -0.2179
26295W        W43143  17.976   5.560   0.225  0.0007  0.0891 -0.0952
26296W        W43144  10.398  12.502  13.047 -0.2307 -0.1685  0.2898
26297W        W43145   0.030   4.343   5.006 -0.0673 -0.4139  0.1085
26298W        W43146   3.828  14.187   3.746  0.0134  0.0846  0.0695
26299W        W43147  11.543  13.241   2.560  0.1215  0.1084  0.2592
26300W        W43148  11.944   5.280  11.963 -0.2073  0.2420 -0.4056
26301W        W43149  17.662   3.475   5.977 -0.1076  0.2658 -0.1652
26302W        W43150   8.377   5.025   0.162 -0.0523  0.1097 -0.0489
26303W        W43151  17.915  12.968   1.352 -0.0794 -0.1355  0.1631
26304W        W43152  12.459  16.454  13.354  0.4230 -0.2133  0.0637
26305W        W43153   6.198   2.321  15.862  0.2316 -0.1891 -0.1717
26306W        W43154   4.623   0.047   5.040 -0.1837  0.0497 -0.2890
26307W        W43155  11.798  14.194  15.580  0.2686  0.2523 -0.2187
26308W        W43156  10.592  11.861  15.690  0.0399 -0.1501  0.0725
26309W        W43157   1.456  13.175   3.650  0.1923  0.0400  0.3768
26310W        W43158  13.981  15.039   3.789 -0.2735  0.1732 -0.2371
26311W        W43159  15.521   1.909   3.305  0.0267 -0.0549 -0.0550
26312W        W43160   9.310  14.636  14.024  0.3208  0.0069  0.2865
26313W        W43161   1.597   2.101  14.963 -0.0788  0.0259  0.2351
26314W        W43162  17.002  12.642  14.540  0.1154  0.2678  0.0920
26315W        W43163   5.990   1.501  15.062  0.2145 -0.2088 -0.1148
26316W        W43164   1.197  10.329   4.902 -0.1458  0.2190  0.1453
26317W        W43165   7.970   8.661   0.173 -0.0395 -0.2587  0.2049
26318W        W43166   5.424   0.778   1.264  0.0680 -0.0158 -0.1202
26319W        W43167   6.193   4.457  11.772  0.3041  0.1255  0.0507
26320W        W43168  12.116   7.766   1.244  0.3133 -0.1902  0.0823
26321W        W43169   4.824   2.817  15.288  0.3171 -0.0249 -0.3226
26322W        W43170  11.165   8.236  14.474 -0.2885 -0.0333  0.1471
26323W        W43171   3.703  11.361   1.888 -0.2926 -0.2014  0.3970
26324W        W43172  11.403   4.635  12.091 -0.0473 -0.2339 -0.1510
26325W        W43173  10.064  17.516  16.093 -0.1681  0.2818 -0.1156
26326W        W43174  17.778   8.587   4.525 -0.0268  0.0526  0.1074
26327W        W43175   7.777  16.123  15.150  0.2591 -0.0198 -0.0381
26328W        W43176   5.586  15.282   5.429  0.0793 -0.1361  0.0452
26329W        W43177  10.804   8.413  14.196 -0.1306 -0.2413  0.2607
26330W        W43178   1.532   7.323  12.856  0.1070 -0.2950 -0.2203
26331W        W43179   4.560  12.983  14.166 -0.1032  0.1249 -0.2410
26332W        W43180   7.133   0.118  12.683  0.2632  0.0103 -0.2371
26333W        W43181  16.760   5.278  12.033 -0.1809  0.3476  0.0533
26334W        W43182   7.827   6.027  14.519  0.0944 -0.0223  0.0332
26335W        W43183  13.865  14.196   1.086 -0.0380 -0.1370  0.3408
26336W        W43184  14.281  10.651   4.176 -0.1560  0.3692 -0.0085
26337W        W43185   9.722   9.051  12.329 -0.0505  0.1371 -0.1351
26338W        W43186  16.094   1.162  12.737 -0.0999 -0.0580  0.0944
26339W        W43187   7.349   4.613   1.210  0.0211 -0.0965 -0.1192
26340W        W43188  10.938   0.325  12.279 -0.2956  0.1267 -0.0972
26341W        W43189   9.260   8.849   1.767 -0.0288  0.1367  0.1591
26342W        W43190  17.592  15.254  11.139  0.1306  0.1287 -0.4734
26343W        W43191  14.060   3.600   1.735 -0.0835 -0.0204  0.0710
26344W        W43192   2.899   7.548   2.866  0.1358  0.1573  0.2322
26345W        W43193  14.006   7.994   3.992 -0.0682 -0.1190  0.2055
26346W        W43194   5.164   5.534  11.343 -0.1454 -0.2009 -0.0928
26347W        W43195   5.796  11.326  14.298 -0.3489 -0.4364  0.0056
26348W        W43196  10.435  10.422  14.429 -0.0175 -0.1875 -0.3000
26349W        W43197   1.722   1.575   3.426 -0.4963 -0.2533 -0.0460
26350W        W43198   4.079   3.968  11.602  0.2475  0.0750  0.1992
26351W        W43199  14.184   3.644  14.080 -0.1434  0.0457  0.1045
26352W        W43200   4.339  13.458  15.238  0.2534 -0.2392  0.1753
26353W        W43201  13.644  12.911  14.215 -0.4410  0.1851  0.3392
26354W        W43202   4.208  12.857   5.035  0.1572 -0.0703  0.0504
26355W        W43203  15.709  13.465  13.343  0.0753 -0.0963 -0.1869
26356W        W43204  10.348  12.078   3.637 -0.2832 -0.4420 -0.0209
26357W        W43205   2.093  14.308   4.586  0.2620 -0.2553  0.5109
26358W        W43206   5.218   3.919  15.062  0.1172 -0.2828  0.0031
26359W        W43207  18.015   5.509   1.708  0.1330 -0.1210  0.1882
26360W        W43208  17.334   0.972  12.102 -0.0375  0.0644  0.0955
26361W        W43209  18.016  13.390  12.890  0.1870 -0.1745 -0.1141
26362W        W43210  15.671  11.478  14.363  0.0391 -0.0173  0.0997
26363W        W43211  11.795  13.163  15.358  0.1918 -0.2152  0.0556
26364W        W43212   8.193  15.237   4.243 -0.1487  0.0262 -0.0604
26365W        W43213  15.580  14.943  15.678 -0.1725  0.1208  0.0200
26366W        W43214   7.436  10.305  12.422 -0.1590  0.1299  0.0756
26367W        W43215  16.903   2.174   3.070 -0.0235 -0.1833  0.1201
26368W        W43216   8.803  17.162  14.895 -0.0975 -0.1522  0.3756
26369W        W43217  10.788  12.696  16.124 -0.1152 -0.1534  0.1723
26370W        W43218   9.736   4.194  15.451  0.0535 -0.4486 -0.5679
26371W        W43219  15.103   5.555   5.275  0.0683  0.0300 -0.1038
26372W        W43220   6.237   2.016  12.945  0.0319 -0.3259  0.2376
26373W        W43221  10.804   8.093   2.319 -0.0803 -0.1625  0.1519
26374W        W43222  13.051  12.544  12.429  0.0150  0.2161  0.2574
26375W        W43223   7.276  13.041  14.027 -0.2201 -0.1338 -0.2016
26376W        W43224   8.579  13.944  13.781  0.0395  0.1106  0.0382
26377W        W43225  12.736   9.227   2.206  0.1253 -0.4281  0.0373
26378W        W43226  17.225  13.662   0.976 -0.0713  0.2805 -0.0218
26379W        W43227  14.079   2.884  15.056 -0.2784 -0.1701 -0.4404
26380W        W43228   2.146   2.991   4.364  0.0237 -0.1826 -0.0580
26381W        W43229  12.153   4.083  16.147  0.1838 -0.0704  0.4369
26382W        W43230  12.914   8.285  15.532  0.1271  0.0119  0.4320
26383W        W43231   0.840   6.916   1.737 -0.1306  0.0807  0.1716
26384W        W43232   0.812   6.766   4.272 -0.2490  0.3696  0.0899
26385W        W43233  14.070  16.587  14.024 -0.1724  0.2120 -0.0988
26386W        W43234   9.757   7.720  12.052  0.2237 -0.0212 -0.4960
26387W        W43235  14.665   8.579   0.784 -0.0689 -0.2870 -0.2782
26388W        W43236  15.297   0.878   3.585 -0.0894  0.1279  0.0334
26389W        W43237  17.497  11.849   3.788 -0.1425 -0.2287 -0.2366
26390W        W43238  10.794   0.498  15.873  0.2457 -0.0710 -0.2267
26391W        W43239   0.936   4.386   3.234 -0.2454  0.3418  0.0452
26392W        W43240  10.531  17.938  14.413  0.2013  0.1281 -0.2266
26393W        W43241   7.007   7.728  14.366 -0.1306  0.1161 -0.3262
26394W        W43242   6.927  10.376   0.332 -0.3946  0.0404  0.0068
26395W        W43243  12.023   1.438   4.508  0.1481 -0.0223 -0.2261
26396W        W43244   7.959   8.857  13.987 -0.0640 -0.1209  0.2622
26397W        W43245   4.945   1.588   1.507  0.1044  0.0730  0.1734
26398W        W43246  11.561   3.285   2.092  0.0029 -0.0229 -0.2115
26399W        W43247   4.082   7.242  10.068  0.1380 -0.0746  0.0241
26400W        W43248   5.414  16.787   0.638  0.1430 -0.0957 -0.2789
26401W        W43249   2.808   0.945   2.503  0.2056 -0.0125  0.0216
26402W        W43250   0.769  17.900   4.405 -0.0534 -0.2528 -0.0473
26403W        W43251   6.386  15.662  15.523  0.0015  0.2481  0.1866
26404W        W43252  13.262   0.247  12.566  0.2015  0.0660 -0.2166
26405W        W43253   6.735   5.944   3.954  0.1497  0.0098  0.3195
26406W        W43254   4.060  15.291   1.308  0.2703  0.0100 -0.3623
26407W        W43255   7.416   3.022  11.228  0.2011  0.0794 -0.0951
26408W        W43256   8.249  11.197   1.130  0.1157 -0.0772  0.0338
26409W        W43257   7.693   5.134   3.786 -0.1257 -0.3660  0.2667
26410W        W43258   1.903   7.557   1.273 -0.2827  0.2931  0.1097
26411W        W43259  15.912  14.238  14.100 -0.1951 -0.0540 -0.0635
26412W        W43260   2.841  15.153   0.708  0.1640 -0.0092 -0.0168
26413W        W43261   0.905   7.523   0.135 -0.1071 -0.1534  0.2104
26414W        W43262  14.274   0.886   5.566  0.0646 -0.1780 -0.1670
26415W        W43263  11.271   7.174   3.167  0.2576  0.0760 -0.0178
26416W        W43264   1.987  13.193  14.160  0.0332 -0.0627 -0.3118
26417W        W43265   1.705  13.363   3.247 -0.0463 -0.1381 -0.1899
26418W        W43266  10.402   8.850   4.685  0.0214 -0.2994 -0.3413
26419W        W43267   6.171   1.471   3.212 -0.0247  0.3762 -0.1734
26420W        W43268  13.826   7.025  13.027 -0.0485  0.2038  0.0320
26421W        W43269   6.109  17.521  14.862 -0.1395 -0.1778  0.2955
26422W        W43270   0.789   0.997  16.162  0.1168  0.0335 -0.0516
26423W        W43271   4.832   4.121  14.307 -0.1408  0.1895  0.1416
26424W        W43272   2.400   8.052   3.784 -0.1316  0.0262  0.1348
26425W        W43273   0.031  14.522  15.934 -0.0444 -0.2018  0.0706
26426W        W43274  16.015  11.265  14.741 -0.1364  0.0882  0.0731
26427W        W43275  11.102   6.249   2.424 -0.1074  0.1999  0.0661
26428W        W43276  14.449  11.273  16.125  0.1684 -0.1400  0.0865
26429W        W43277   5.573   2.278  14.502  0.1918  0.0397 -0.2257
26430W        W43278  16.085   7.110  11.667  0.1461  0.1391  0.2315
26431W        W43279  14.179  15.812  16.082 -0.3153  0.2231  0.2115
26432W        W43280  14.107  10.359  16.189 -0.0776  0.2783  0.0254
26433W        W43281   3.188   6.924  11.058 -0.1958  0.0369  0.2185
26434W        W43282  11.370  16.904  13.136  0.0675  0.1627  0.0024
26435W        W43283  15.928   3.325   1.175  0.0623 -0.1411 -0.1854
26436W        W43284   4.316  11.049  11.826 -0.1122 -0.0875 -0.0185
26437W        W43285  17.169   1.258   3.369  0.0141 -0.0344  0.0742
26438W        W43286   2.993  17.228  12.231  0.1804 -0.0791 -0.0566
26439W        W43287   7.614  12.356   4.616 -0.2296  0.0837  0.0771
26440W        W43288  14.461   3.605   2.878  0.0831 -0.2154 -0.0670
26441W        W43289   0.766  11.768  16.178  0.3584  0.0490  0.2098
26442W        W43290   3.061   3.058  15.909 -0.2531 -0.1985 -0.2805
26443W        W43291   7.612   0.119   0.685 -0.1231  0.0912  0.0687
26444W        W43292  17.079   2.340   0.577 -0.1311  0.1513  0.2307
26445W        W43293   2.760  15.454   1.062  0.0766 -0.2231 -0.0448
26446W        W43294   2.722  10.083   0.195 -0.1197  0.2049  0.2307
26447W        W43295   7.963   7.437  12.910 -0.1286 -0.1056  0.1604
26448W        W43296  12.024   4.708   2.002 -0.2393  0.0387 -0.1074
26449W        W43297   9.835   4.918   3.074 -0.0010 -0.0651  0.3114
26450W        W43298  13.358   6.998  13.860  0.2855 -0.0926  0.1091
26451W        W43299   6.599  16.141   0.843 -0.1870 -0.3255 -0.0881
26452W        W43300   6.211   8.940  14.214  0.0131 -0.2235 -0.3008
26453W        W43301   6.278  15.007   1.858  0.0270 -0.0717  0.1648
26454W        W43302   7.786   9.917   2.086  0.1178 -0.3110  0.0634
26455W        W43303  13.164  17.588  15.786 -0.2380 -0.1657  0.1468
26456W        W43304   3.230   3.620  15.409 -0.2231 -0.1393 -0.1857
26457W        W43305  14.305  17.052   2.697 -0.2542 -0.4771  0.1481
26458W        W43306   8.665   8.278  11.948 -0.2811  0.1313 -0.0308
26459W        W43307   9.414  10.315   3.001  0.1362  0.0354  0.2295
26460W        W43308  11.054   3.631   3.358 -0.0275  0.5557 -0.0902
26461W        W43309  11.889   1.317  14.148 -0.0379  0.1658 -0.0513
26462W        W43310   1.854   1.779   1.361 -0.2166 -0.4382 -0.3024
26463W        W43311   5.620  15.717   4.585  0.6323  0.2699  0.1705
26464W        W43312  17.637  14.602  13.007 -0.1189 -0.1745 -0.1587
26465W        W43313  11.381  11.236   1.215 -0.1975  0.2279  0.0090
26466W        W43314  12.172   6.226   4.156 -0.0575  0.0700 -0.2373
26467W        W43315   8.239   8.507  11.939 -0.1286 -0.2797 -0.1972
26468W        W43316  15.061  11.016  15.581 -0.1734 -0.0084  0.1025
26469W        W43317  11.980   2.471  11.807 -0.2282  0.3658  0.0772
26470W        W43318  13.709   4.255   3.940 -0.1965 -0.1525  0.1656
26471W        W43319   9.821  18.036  15.101 -0.2539  0.0780  0.0168
26472W        W43320   0.365   4.010   4.845  0.1123  0.0794  0.2060
26473W        W43321  11.162  15.913   1.728  0.1045 -0.1685  0.2762
26474W        W43322  13.438   0.006   4.771 -0.0240 -0.2891 -0.0338
26475W        W43323  13.469  17.256   1.192 -0.1859  0.0836  0.2512
26476W        W43324   9.279  16.009   4.528  0.0981 -0.0278  0.3499
26477W        W43325   4.743   2.269  14.369 -0.0286  0.2027  0.0739
26478W        W43326   6.207  16.630   0.641 -0.1035 -0.1245  0.0358
26479W        W43327   4.631  17.636   2.503 -0.5501 -0.0562  0.1869
26480W        W43328  16.492  17.414   3.059  0.0598 -0.0273 -0.1024
26481W        W43329   6.343  12.262   2.208  0.1984 -0.4298  0.0214
26482W        W43330   9.423  17.372  11.891  0.1096  0.0964  0.0295
26483W        W43331  11.876  15.682  12.030  0.1744  0.3273  0.1325
26484W        W43332  11.412   0.839  14.831 -0.0212  0.1320 -0.2103
26485W        W43333  15.735   4.280  14.836  0.0909 -0.0518 -0.0838
26486W        W43334   8.843   8.603   1.160  0.0076  0.2309  0.2184
26487W        W43335   4.867  16.430  13.549  0.2126  0.1100 -0.4605
26488W        W43336   8.800   5.394  14.005 -0.1334 -0.2552  0.0784
26489W        W43337   7.412  11.233   2.130  0.1905 -0.3849 -0.1371
26490W        W43338   3.565  12.542  11.683 -0.0534  0.3092 -0.1551
26491W        W43339   6.406   8.981   4.668 -0.1226  0.3829 -0.2528
26492W        W43340   9.848   5.581   1.766 -0.1289 -0.0344  0.0363
26493W        W43341   4.691  13.280   2.882 -0.0497  0.3017 -0.1547
26494W        W43342  14.365   4.697   2.411  0.1076 -0.2652 -0.2641
26495W        W43343  17.811   9.919  11.690 -0.2607  0.3588 -0.1585
26496W        W43344  17.151   5.804   5.090  0.0983  0.1316 -0.0553
26497W        W43345   3.216   0.042   2.240 -0.2493  0.0461  0.1030
26498W        W43346  10.150  14.712   0.002  0.0806  0.2227  0.1419
26499W        W43347  15.281   7.718   0.655  0.6097 -0.0185 -0.0007
26500W        W43348   6.567  10.950   3.252  0.1290  0.0135 -0.1197
26501W        W43349   9.054  17.067   4.805  0.0612 -0.0479 -0.0107
26502W        W43350   5.279   6.172  12.599 -0.0940  0.0968  0.2226
26503W        W43351   4.724  16.941  11.569  0.0790 -0.0294 -0.0284
26504W        W43352   9.459  14.293   1.640  0.3609  0.1128 -0.0964
26505W        W43353   1.733   2.941  15.711 -0.0412 -0.5056 -0.1287
26506W        W43354  16.434   8.996  10.037 -0.0443 -0.0113 -0.2500
26507W        W43355   7.412  17.315  15.545 -0.2669  0.0439  0.0154
26508W        W43356  13.026  14.859  15.164  0.0750 -0.0486  0.1547
26509W        W43357   5.586  14.099   0.422  0.0339 -0.1123  0.1149
26510W        W43358   7.155   7.300   1.221 -0.0003 -0.2004 -0.0975
26511W        W43359  17.172  12.083   4.874 -0.2415 -0.3101 -0.1653
26512W        W43360   9.326  11.313  15.984 -0.0701  0.1108  0.1784
26513W        W43361  16.848   1.847   3.572  0.1868 -0.3590 -0.1029
26514W        W43362   5.169  15.682   2.915 -0.5911 -0.2361  0.1773
26515W        W43363   4.868  13.464  12.481  0.0654  0.1981  0.1246
26516W        W43364  13.186  11.347   3.561 -0.1270  0.2188  0.1258
26517W        W43365  13.743   5.717   2.526  0.0075 -0.5665  0.2239
26518W        W43366   5.310   6.047   4.799 -0.3161  0.1581  0.0059
26519W        W43367   5.737   7.566  13.007  0.2768  0.1556  0.0486
26520W        W43368  14.567  15.766   0.987  0.7964  0.4392  0.2004
26521W        W43369  10.672   6.761   2.956 -0.2011  0.0980 -0.1567
26522W        W43370   0.299   7.659  15.180 -0.0004 -0.1090  0.0019
26523W        W43371  13.400  15.741   4.032 -0.0874 -0.4187  0.0622
26524W        W43372   3.691  14.410  14.167 -0.2557  0.1035 -0.1115
26525W        W43373   9.717   1.860  13.005  0.0176  0.0096 -0.0817
26526W        W43374  13.114   8.542  12.902  0.1389 -0.2738  0.1431
26527W        W43375   3.996   2.067  13.295 -0.0105  0.1917 -0.0710
26528W        W43376  16.613  15.902   3.724 -0.1056 -0.0337 -0.0801
26529W        W43377  16.644  17.217  12.633 -0.1740  0.0975  0.0094
26530W        W43378  10.412   3.247  12.274  0.0433 -0.0220 -0.3000
26531W        W43379   6.988  12.825  13.700 -0.2605  0.4081 -0.1977
26532W        W43380  12.427   3.440   4.234 -0.2581  0.0025 -0.0356
26533W        W43381  12.039   4.737  11.890 -0.0265  0.1146 -0.2177
26534W        W43382  13.154   9.845   3.804  0.0312 -0.3031  0.1367
26535W        W43383   4.274  10.092  15.147  0.3044  0.0496 -0.5218
26536W        W43384   0.029   5.448  15.317 -0.1064  0.2509 -0.1685
26537W        W43385   2.011  16.544   3.962 -0.0173  0.2852  0.0674
26538W        W43386   1.300   7.460   4.759 -0.1125  0.1940  0.0556
26539W        W43387  16.464  14.557  15.118  0.0721 -0.0349  0.1527
26540W        W43388   4.317   0.045  13.907 -0.0757  0.1029 -0.0920
26541W        W43389  11.673  12.020  11.837 -0.2103 -0.0550 -0.2221
26542W        W43390  17.154   8.555   4.729 -0.3071  0.1367  0.1433
26543W        W43391  15.610  11.768   3.278 -0.1103 -0.1359 -0.3100
26544W        W43392   8.303  13.778  12.293 -0.1034  0.0328 -0.1291
26545W        W43393   8.835   9.451   4.606 -0.2941 -0.1618 -0.0139
26546W        W43394   4.338   4.605  11.998  0.1257  0.2005 -0.0880
26547W        W43395   6.701  17.665   5.167 -0.0014 -0.0107  0.1780
26548W        W43396  14.475  15.972   0.173 -0.1186  0.0166 -0.1983
26549W        W43397   9.176  13.190  14.083  0.0528  0.0339 -0.0051
26550W        W43398   9.615   7.401  15.383 -0.0784  0.1572  0.0803
26551W        W43399  13.234  17.878   4.357  0.0108 -0.1624 -0.0445
26552W        W43400   7.627  13.181   4.978  0.1073 -0.0393  0.1563
26553W        W43401   6.648  13.107   4.720  0.0189 -0.1863  0.1192
26554W        W43402   5.052  10.056   4.997  0.0180  0.1897 -0.0956
26555W        W43403  17.313  10.610  14.267  0.1213  0.3857 -0.0014
26556W        W43404  17.800   4.958   3.039 -0.0861 -0.0992  0.0950
26557W        W43405   4.560  11.085   2.144 -0.0364 -0.1069 -0.1212
26558W        W43406  11.561  14.422  11.653  0.1194  0.0673  0.0136
26559W        W43407   4.359   3.361  16.006  0.1168  0.1601 -0.0791
26560W        W43408   3.971   9.791  15.844 -0.0138  0.0541  0.2067
26561W        W43409   8.714  12.370   2.285 -0.0561  0.1147 -0.0158
26562W        W43410   2.884   3.248  15.488 -0.0751 -0.3486  0.2009
26563W        W43411  11.293   3.672   0.861 -0.1513  0.1606  0.2331
26564W        W43412   5.514   4.819   0.133  0.1552 -0.1193 -0.0904
26565W        W43413   7.843  11.832   0.906  0.3098 -0.0454  0.0505
26566W        W43414  14.922  12.432   2.023  0.1174  0.1611  0.1699
26567W        W43415   2.483   3.396   4.564  0.3260 -0.2007 -0.1094
26568W        W43416   7.188   6.760  12.430 -0.1364 -0.2828  0.0688
26569W        W43417   6.051   8.014   0.681 -0.1024  0.0292  0.3364
26570W        W43418  12.526   8.312   2.712  0.1558  0.0617  0.1331
26571W        W43419   7.356  14.969   0.509 -0.0810  0.0059  0.1580
26572W        W43420   5.789  17.267  14.562 -0.2233  0.0409  0.1737
26573W        W43421  13.609   4.028   5.804 -0.1756  0.0246 -0.1238
26574W        W43422  15.630   5.867  13.431  0.0171 -0.2921  0.0426
26575W        W43423   4.398   9.838  16.078 -0.1199 -0.2125  0.0087
26576W        W43424   0.301  10.417   3.865  0.0328  0.2162  0.1902
26577W        W43425   4.910  11.600  12.066 -0.1204 -0.1258  0.2331
26578W        W43426   9.229  10.690  14.472 -0.0604 -0.2249 -0.1306
26579W        W43427  17.727  16.422  10.264 -0.0260 -0.0942  0.1668
26580W        W43428  15.142   6.973  14.698  0.2700  0.0002  0.1360
26581W        W43429   7.682   8.029  11.678 -0.1637  0.2310  0.3874
26582W        W43430  13.895  16.244   2.055  0.0834  0.1892  0.1849
26583W        W43431  10.122   0.865  14.917  0.0160 -0.1293 -0.1248
26584W        W43432  15.076   3.879   0.580  0.0578 -0.2326 -0.0434
26585W        W43433   2.129   1.180   2.768 -0.0120 -0.0662  0.1077
26586W        W43434  15.695   2.824   4.247 -0.2083 -0.0140 -0.0925
26587W        W43435   9.672   8.052   3.205  0.2450 -0.1354  0.1169
26588W        W43436  13.838  12.651  14.597 -0.1266 -0.1029  0.1226
26589W        W43437  13.234   5.971  13.816  0.0854 -0.0542  0.2046
26590W        W43438   8.878   4.301  12.225  0.1570  0.0622  0.1560
26591W        W43439  12.417   9.204   4.825 -0.3016 -0.1118  0.0364
26592W        W43440   4.487   9.312  10.867 -0.1640 -0.0166 -0.2364
26593W        W43441   1.780   0.696   4.409  0.0105 -0.0668  0.0528
26594W        W43442   5.126  13.766   3.850  0.0587  0.1757  0.1529
26595W        W43443   4.444   6.351   2.023  0.0803  0.3890  0.0193
26596W        W43444   1.326   9.029  15.464  0.0440 -0.1367  0.2827
26597W        W43445  14.116   3.500  11.095  0.1936 -0.1086  0.0259
26598W        W43446  10.906  16.275   1.441 -0.2088  0.1120  0.0450
26599W        W43447   8.868   4.657   3.468 -0.0384 -0.0673 -0.0003
26600W        W43448   3.416   6.387  13.230 -0.1833 -0.2378 -0.2943
26601W        W43449   3.920   8.633  13.462 -0.2389 -0.1648  0.2601
26602W        W43450   5.571  15.893  12.317  0.2098 -0.0972 -0.0575
26603W        W43451  16.920   8.968  14.918 -0.3752 -0.4106 -0.2492
26604W        W43452  17.591   1.153  12.500  0.0054  0.0552 -0.2496
26605W        W43453  12.093   3.646   0.130  0.0549 -0.1406 -0.0399
26606W        W43454  15.808  15.323   1.688  0.0799  0.0262 -0.1829
26607W        W43455   6.719  17.344   1.214  0.1332 -0.1098 -0.0930
26608W        W43456  17.959   7.219   1.280  0.1645  0.1913  0.3372
26609W        W43457  11.156  11.335   2.950 -0.0814  0.1512  0.2258
26610W        W43458   0.316   0.237   4.005  0.2086  0.1776  0.3814
26611W        W43459  17.090   0.415   3.969 -0.2874 -0.0094 -0.0060
26612W        W43460  14.907   7.894  12.975 -0.0835  0.3774  0.1119
26613W        W43461   8.049   3.754   6.223  0.2207 -0.2201  0.4011
26614W        W43462  15.885  16.323  11.264  0.2524 -0.1388  0.1137
26615W        W43463   7.211   7.819   0.206  0.4040 -0.1835  0.0686
26616W        W43464  14.094   9.899  11.291 -0.1676  0.2162  0.0620
26617W        W43465  17.229   9.833  13.777 -0.1167 -0.1059 -0.3027
26618W        W43466  14.819  15.330  11.604 -0.1932 -0.2035  0.1473
26619W        W43467  10.536   7.526  13.860  0.0545 -0.3879 -0.0685
26620W        W43468   2.840  11.108   2.930 -0.0555  0.0503 -0.1438
26621W        W43469  12.114  10.326   5.278  0.1202  0.3207 -0.0676
26622W        W43470   7.489  15.917  14.301 -0.1163  0.0395  0.2408
26623W        W43471   3.579   7.035  14.830  0.2584 -0.0167 -0.0382
26624W        W43472  14.682  13.633  12.507 -0.2066 -0.2323  0.1072
26625W        W43473  15.752  16.144   2.746 -0.2143  0.1434  0.1258
26626W        W43474  15.928   4.869   4.057  0.0893 -0.2617 -0.0094
26627W        W43475   9.883  13.063  11.863  0.0844  0.0439  0.3010
26628W        W43476   8.892   3.879  12.520  0.2203  0.0004  0.0167
26629W        W43477  16.105  11.912   3.315  0.0968 -0.1508  0.1889
26630W        W43478  10.673  12.989   0.687 -0.2419 -0.3562  0.0600
26631W        W43479   1.238  14.151   2.009 -0.0637  0.2392 -0.0213
26632W        W43480  12.221   0.391   1.197 -0.0697 -0.0539  0.0462
26633W        W43481   1.587   3.131  14.477  0.1107  0.2127  0.0829
26634W        W43482   6.883  11.619  14.892  0.0580 -0.0998  0.1333
26635W        W43483  17.233  11.112   5.153  0.1480  0.0404 -0.0393
26636W        W43484   6.604  17.158   0.477  0.2032  0.2144  0.3256
26637W        W43485  14.076  14.117   2.604  0.2274  0.1355  0.1601
26638W        W43486   4.653   9.062   5.142 -0.1465 -0.1351 -0.1529
26639W        W43487  10.488  10.269  11.663  0.0304 -0.3352 -0.3863
26640W        W43488  13.748  17.916  13.282 -0.2319  0.1894  0.1905
26641W        W43489   2.090   8.995  11.707  0.1326  0.0621  0.2562
26642W        W43490   0.048  10.458  11.238 -0.3386 -0.0166 -0.0221
26643W        W43491   5.894   0.905   1.356 -0.0170  0.0510  0.2209
26644W        W43492   7.729  10.597  12.155 -0.0569  0.0366 -0.1895
26645W        W43493  11.615   3.161  13.689 -0.1439 -0.2376  0.3245
26646W        W43494   3.298  15.518  15.579  0.0032  0.2911 -0.2004
26647W        W43495   0.700  10.428  12.923 -0.2526 -0.3734 -0.0205
26648W        W43496   3.263  11.212   3.193  0.1022  0.3365  0.8524
26649W        W43497   7.060  15.630   5.654 -0.2310  0.0376  0.1227
26650W        W43498   2.151  12.432   0.895 -0.1842  0.0027 -0.0212
26651W        W43499   5.821   5.653   0.036 -0.0973 -0.5558  0.1767
26652W        W43500   3.125   9.235   4.731  0.2476 -0.0227  0.0345
26653W        W43501  13.758  11.118   1.062 -0.4567  0.0957  0.2185
26654W        W43502   5.830   1.273   0.428  0.1491 -0.1814  0.2471
26655W        W43503   0.994  10.048  12.339 -0.2264 -0.1268 -0.1792
26656W        W43504   2.005   2.344  13.901  0.2326  0.0558 -0.1287
26657W        W43505   1.728   7.177  12.435  0.0390  0.1709  0.1559
26658W        W43506   1.845  15.442  14.903 -0.0317  0.0159 -0.1312
26659W        W43507   4.860   1.568   0.156 -0.1226 -0.2146 -0.1499
26660W        W43508   3.267   2.258   1.812 -0.0216 -0.0599  0.0500
26661W        W43509   8.345   1.434   1.204  0.0078  0.0469 -0.1922
26662W        W43510  17.238   4.599  13.371 -0.2706  0.3404 -0.0200
26663W        W43511  11.053  15.459   1.915  0.0406 -0.1354 -0.3308
26664W        W43512   7.747   0.289   2.912 -0.1343  0.0454  0.2866
26665W        W43513  16.917  14.789  13.504  0.2086 -0.1326 -0.0338
26666W        W43514   5.459   3.413   0.531  0.0025  0.0888 -0.2088
26667W        W43515  13.060   0.192   5.009  0.1471  0.1132 -0.4651
26668W        W43516  15.494  17.538  11.919  0.3440  0.3225  0.2314
26669W        W43517   0.086  12.253  14.443  0.1152  0.2335  0.0300
26670W        W43518  14.730  15.669   5.293 -0.0707 -0.0751  0.2828
26671W        W43519   2.459   1.678  14.592 -0.0588 -0.1835 -0.1486
26672W        W43520  11.084  17.553   0.992  0.1920  0.1046  0.1881
26673W        W43521  14.780  13.618  13.006 -0.2680 -0.0803  0.0306
26674W        W43522   4.279   6.531  12.225 -0.0650 -0.1821  0.0266
26675W        W43523   8.134  16.504   3.107 -0.0814 -0.1371  0.2547
26676W        W43524   7.123   8.495  15.998 -0.2302  0.0650  0.1079
26677W        W43525   0.706  13.187  13.755 -0.2200 -0.1749 -0.0054
26678W        W43526   0.414   4.215   2.298  0.0236  0.4524  0.0934
26679W        W43527  13.809   6.621   2.242 -0.3240 -0.0164  0.0580
26680W        W43528   2.844  14.800  13.949 -0.2016  0.1434 -0.0825
26681W        W43529   4.911   8.348   2.121  0.2186 -0.1371 -0.1030
26682W        W43530  17.306   2.044  13.890  0.1547  0.0596  0.0812
26683W        W43531  10.849   3.345  11.382 -0.1636  0.1169 -0.1169
26684W        W43532  10.070   6.391  14.930 -0.2314 -0.2987 -0.2128
26685W        W43533   5.338  11.366   0.217  0.0004 -0.3301  0.3669
26686W        W43534   0.614  16.686  15.013 -0.0538 -0.5002  0.1590
26687W        W43535   2.701   0.654  14.709 -0.1375  0.1257 -0.2424
26688W        W43536   1.974   5.287  14.003  0.0366 -0.0942 -0.0425
26689W        W43537  11.625  10.623   2.398 -0.2722 -0.0407 -0.1483
26690W        W43538   0.245   1.447  13.183 -0.0435 -0.1478  0.0779
26691W        W43539   5.627  14.302  13.296 -0.1504  0.1307  0.2073
26692W        W43540  16.779   3.729  12.711  0.0117  0.1282  0.0346
26693W        W43541   0.025  13.627  10.822 -0.0859 -0.2788 -0.1356
26694W        W43542   2.446   7.381  14.889 -0.5276  0.0484 -0.0088
26695W        W43543   9.987   7.871  11.612 -0.2519  0.2297  0.0465
26696W        W43544  13.586  16.502   1.752  0.3577  0.2682 -0.1841
26697W        W43545   8.736  16.399   0.749 -0.0154 -0.4621  0.3106
26698W        W43546   1.135  13.814  16.214  0.0007 -0.2016  0.0629
26699W        W43547   0.568  11.598   1.033 -0.0461 -0.0787 -0.2296
26700W        W43548  15.773   1.637   2.948 -0.0986  0.1038 -0.1559
26701W        W43549   7.653   2.513   4.439 -0.1810  0.1180  0.0326
26702W        W43550   0.843  11.903  12.547 -0.3397 -0.0286 -0.2093
26703W        W43551  13.441  11.123   5.381  0.4823  0.0547  0.2814
26704W        W43552  12.387   9.415   2.623 -0.0738 -0.0331 -0.2160
26705W        W43553   6.238   7.511  13.776  0.0425  0.1047  0.0075
26706W        W43554   8.666   0.908  15.139 -0.3767 -0.1559 -0.1701
26707W        W43555   4.943  17.849  11.737  0.0954 -0.2567  0.0447
26708W        W43556  12.532   2.066  12.735 -0.0462 -0.1189  0.2584
26709W        W43557  15.720   7.272  15.543  0.1950  0.3797 -0.1567
26710W        W43558  14.893   7.066   3.124 -0.1247  0.1729  0.3256
26711W        W43559   5.153  16.867  11.794 -0.0790 -0.1888  0.1824
26712W        W43560   1.230  15.373  12.360 -0.2448 -0.2572  0.1507
26713W        W43561   1.064  11.940   2.930  0.2076 -0.3156 -0.1250
26714W        W43562   7.565  14.685  13.822 -0.2670 -0.0863 -0.3382
26715W        W43563   0.262  10.937  14.368 -0.0637  0.0720  0.0914
26716W        W43564   1.651   7.498   0.239  0.4615 -0.0100 -0.0008
26717W        W43565  12.671   3.238  11.124  0.3700 -0.2115  0.1134
26718W        W43566   7.280  12.373   0.785  0.2613 -0.3214  0.0548
26719W        W43567  13.424  15.148   1.342 -0.0977 -0.0697 -0.0706
26720W        W43568  16.634   7.829  11.915  0.1263  0.1616 -0.1135
26721W        W43569  11.441  16.926   0.268 -0.2158 -0.0387 -0.0488
26722W        W43570   7.140  11.220  15.071  0.1992  0.0889 -0.2208
26723W        W43571  15.373  12.072  12.422 -0.0129 -0.2077 -0.1142
26724W        W43572   1.430  14.929  11.595 -0.2559 -0.2800  0.0303
26725W        W43573  14.089   0.287  13.075 -0.1963  0.4200  0.1336
26726W        W43574   4.000   0.367   4.561  0.2678 -0.1157  0.0974
26727W        W43575  10.526   2.954  15.478 -0.1269 -0.0008 -0.1184
26728W        W43576  13.429   8.877   3.672  0.1983 -0.3822 -0.3514
26729W        W43577  16.916   4.837   3.125  0.1384 -0.1908 -0.1705
26730W        W43578   2.464  12.860   0.078  0.2685  0.3544  0.0616
26731W        W43579  13.700  16.721   2.877 -0.1705  0.2333 -0.0662
26732W        W43580  15.904   5.347  11.655 -0.1510 -0.1711 -0.1046
26733W        W43581   9.868  16.872  10.662 -0.1568 -0.4040 -0.1323
26734W        W43582   7.391  14.157  13.776 -0.4080  0.0487 -0.2054
26735W        W43583  16.886   1.944  13.527 -0.0639  0.1848 -0.0079
26736W        W43584  13.508  16.672   4.380  0.0866 -0.0823 -0.0641
26737W        W43585  12.935   7.330  14.539  0.2537 -0.2742 -0.1825
26738W        W43586  16.749   9.053   5.510 -0.1568 -0.3740 -0.0183
26739W        W43587  12.971  11.376  16.139  0.0557 -0.2619  0.2457
26740W        W43588   3.393  15.114  13.027 -0.0636  0.2703 -0.3219
26741W        W43589  12.621   6.384   4.014 -0.0537 -0.0850 -0.0905
26742W        W43590   0.643   2.284   2.898 -0.0080  0.2988  0.1633
26743W        W43591  15.010   2.819   1.036 -0.2081 -0.1113  0.3118
26744W        W43592   6.005   3.954  11.506  0.2214  0.0722 -0.0806
26745W        W43593   6.411  13.309   2.178  0.0520  0.1617  0.0634
26746W        W43594   4.096   9.389   2.232 -0.2609  0.5317  0.0685
26747W        W43595  11.553  11.962   4.993  0.0260 -0.0632  0.1286
26748W        W43596  17.156   7.349   4.384 -0.0435  0.0731  0.0946
26749W        W43597   0.841  11.351   4.263 -0.1452  0.0563 -0.0612
26750W        W43598   5.228   9.478  15.680 -0.4192 -0.1840  0.0166
26751W        W43599   4.210  11.066  14.399  0.0241  0.2260  0.2236
26752W        W43600  15.843   5.940   0.538  0.0515 -0.0538  0.1620
26753W        W43601   9.227   9.792  14.930  0.0118  0.0778  0.0493
26754W        W43602   7.398  11.096   5.971  0.2110  0.1599  0.0081
26755W        W43603   4.130   4.993  12.854 -0.1202 -0.1514  0.1041
26756W        W43604  13.248   3.370   0.881 -0.2526  0.1937 -0.4661
26757W        W43605   7.824   9.317  14.217 -0.1020 -0.1770 -0.0023
26758W        W43606  16.164   7.791   2.160 -0.1211  0.3576 -0.3512
26759W        W43607   6.226  15.731  12.919 -0.3550 -0.3028 -0.0986
26760W        W43608  14.037   6.450   4.695 -0.1292  0.0057 -0.0015
26761W        W43609   6.297   3.130   5.084 -0.2657  0.0410  0.3300
26762W        W43610   1.385   6.338  12.465 -0.1385 -0.1236 -0.0293
26763W        W43611  17.702   2.569   5.706  0.1276 -0.2767 -0.0302
26764W        W43612   9.084   0.639  15.061  0.1044  0.1512  0.3025
26765W        W43613   5.564  16.360  15.526  0.2828  0.2264  0.1113
26766W        W43614   9.018  11.122  15.237  0.0031  0.1671  0.0303
26767W        W43615   1.181   4.693   2.764  0.3169  0.1073 -0.3353
26768W        W43616   8.345  14.348  15.902  0.0390  0.0377 -0.3984
26769W        W43617   0.471   3.547   3.524 -0.1933  0.0962 -0.3911
26770W        W43618  17.887   7.458   2.920 -0.1031  0.3147 -0.0719
26771W        W43619  10.154   6.408  15.820  0.1790 -0.0895 -0.0548
26772W        W43620  12.028  13.445   0.509 -0.0543  0.4360 -0.0965
26773W        W43621   9.696  14.257  13.140  0.0566 -0.0367 -0.3222
26774W        W43622   4.493  13.466  16.274 -0.2010  0.0038  0.1295
26775W        W43623   6.838  10.914   0.216 -0.1642  0.1459  0.0305
26776W        W43624   4.560   6.756   4.510 -0.2198 -0.1523  0.3373
26777W        W43625   7.972   6.006  11.920  0.1058 -0.2301 -0.2304
26778W        W43626  13.033   5.063   2.465  0.2308 -0.0380  0.0468
26779W        W43627  11.978   0.100   2.863 -0.1073  0.1752 -0.2660
26780W        W43628  14.298  11.290   4.979  0.0781  0.2206  0.0090
26781W        W43629   6.948   8.564   0.522 -0.0879  0.2018  0.0842
26782W        W43630   1.088  12.724  10.166  0.2227 -0.0924  0.0862
26783W        W43631  10.284  16.112   0.683  0.4861  0.1824 -0.0784
26784W        W43632  10.198  17.199  15.323  0.1088 -0.1123 -0.1629
26785W        W43633  10.232  12.360   2.563 -0.0833 -0.2802  0.2010
26786W        W43634  13.495  16.171  13.133 -0.0148 -0.1142  0.1135
26787W        W43635   6.258   8.408  16.181 -0.3465 -0.3043  0.0350
26788W        W43636  14.440  12.158   1.382  0.0616 -0.1534 -0.0204
26789W        W43637  12.983   4.944   3.542 -0.0147 -0.0584 -0.1457
26790W        W43638   0.171   4.210   0.609 -0.0059  0.1416 -0.0661
26791W        W43639  11.901   0.879   0.058  0.1011 -0.0093 -0.3306
26792W        W43640  12.247  14.387  15.613  0.1478  0.0005  0.1415
26793W        W43641   3.350  13.149   1.539 -0.1403  0.0202  0.2996
26794W        W43642  13.783   6.428   2.707 -0.1315 -0.1391  0.0978
26795W        W43643   8.694   8.489   1.609 -0.1581  0.1618 -0.1201
26796W        W43644  17.891  16.769   4.960  0.0106  0.0377 -0.2616
26797W        W43645  15.358  14.893   1.307  0.2158  0.3558  0.0116
26798W        W43646  15.773  16.986   0.481  0.0645 -0.1025  0.1817
26799W        W43647   9.743   1.939  13.849 -0.0025 -0.4823 -0.1240
26800W        W43648   8.484   8.619  13.006  0.2123  0.2861  0.4321
26801W        W43649   1.936   7.144  11.035 -0.0270 -0.1841  0.1410
26802W        W43650   8.628   7.159   4.453  0.0509 -0.1065 -0.1594
26803W        W43651   3.856  14.560   0.955  0.3805  0.4610  0.2645
26804W        W43652   4.519   3.858   3.881 -0.2875 -0.4342  0.3260
26805W        W43653   2.629   4.953  14.539  0.0886  0.3111  0.2673
26806W        W43654  15.365  12.359   3.998  0.1815 -0.1973  0.0067
26807W        W43655  15.639  14.035   0.762 -0.4326  0.0657 -0.0630
26808W        W43656   3.858   2.083   0.831 -0.0834 -0.1456 -0.1081
26809W        W43657   4.163   3.734  15.700  0.2005  0.2572 -0.0673
26810W        W43658   5.913   5.325  13.963 -0.1561 -0.4059 -0.3447
26811W        W43659   3.998   3.151   3.948 -0.2651  0.1722 -0.0775
26812W        W43660   8.424   2.951  15.035  0.0186  0.0740  0.2400
26813W        W43661  12.676   6.026   1.823  0.2825  0.1256  0.1364
26814W        W43662   1.698   1.105  13.828 -0.1865  0.2456 -0.1000
26815W        W43663  11.316   5.905   4.882 -0.3501  0.0694  0.0172
26816W        W43664  15.102  10.857  10.561  0.3226 -0.1574 -0.3803
26817W        W43665   5.623  16.650  11.791  0.0203 -0.0051 -0.1121
26818W        W43666  15.696  10.208   0.075  0.2439  0.1365  0.3402
26819W        W43667  12.139   7.575  14.892 -0.1161 -0.0422 -0.1173
26820W        W43668   2.467  13.373   1.800  0.2129 -0.3077  0.2083
26821W        W43669   6.926   7.388   2.947 -0.0446 -0.0130  0.1426
26822W        W43670   5.022   8.749  15.188 -0.1679 -0.1057  0.0785
26823W        W43671  13.374   0.173  13.400  0.1808  0.0903 -0.2043
26824W        W43672   5.398   8.440   2.175  0.2054  0.0813 -0.1976
26825W        W43673   3.030   4.807  14.952  0.1194 -0.0627  0.3481
26826W        W43674  14.615  15.009  12.096  0.0776 -0.0041  0.2012
26827W        W43675   6.125  12.510   3.801 -0.1752  0.0941  0.1128
26828W        W43676   5.775  12.919   2.454 -0.0567 -0.0666 -0.0699
26829W        W43677  11.769   6.707   0.300 -0.0994  0.0692 -0.1767
26830W        W43678   3.898  12.419  12.066 -0.1924  0.0909  0.3966
26831W        W43679  11.756  14.142   2.030 -0.3681  0.3226  0.2163
26832W        W43680  13.008   3.899   3.464  0.1800  0.4414  0.0159
26833W        W43681  10.668  11.567  13.539 -0.0716  0.1321 -0.4069
26834W        W43682   7.245   1.662   0.672 -0.4713  0.0821  0.0174
26835W        W43683   2.032  17.681   3.009 -0.2598  0.5077  0.1689
26836W        W43684   5.580   7.212   1.299  0.1485  0.0507 -0.1067
26837W        W43685   4.149   4.259   2.687 -0.0068 -0.1073  0.0633
26838W        W43686   6.235   5.907   2.252 -0.3478  0.1903  0.1000
26839W        W43687  16.592  14.430  14.539 -0.1491 -0.1574 -0.0018
26840W        W43688  11.888  12.039   1.182 -0.2887  0.1230 -0.2671
26841W        W43689  16.518   6.949   2.329  0.1587  0.0048  0.0008
26842W        W43690  18.004   2.755   4.882 -0.1165  0.1767  0.2975
26843W        W43691   2.505  13.363   4.667  0.3667 -0.0060 -0.0001
26844W        W43692   9.894   6.022  13.381  0.1508 -0.0160  0.1432
26845W        W43693   3.622  17.651   4.399 -0.1739  0.2934  0.0429
26846W        W43694   5.543  12.977  12.935 -0.0532 -0.3490 -0.2277
26847W        W43695  10.650   0.270   0.036 -0.3177  0.0540  0.2414
26848W        W43696   9.348   7.861  11.745 -0.0054  0.1068  0.0849
26849W        W43697   6.048  17.634   2.836  0.2152  0.0156  0.0262
26850W        W43698  16.471   0.175   2.561  0.1443  0.0478  0.3753
26851W        W43699   5.630   5.396  15.567  0.0419  0.2080  0.1439
26852W        W43700   4.253   4.847   4.613 -0.1660  0.2280 -0.1012
26853W        W43701   9.666   6.675  16.240 -0.0785  0.1707  0.0647
26854W        W43702   6.876  11.463   1.410  0.0173  0.2358 -0.1050
26855W        W43703  15.432  10.117  14.699  0.2483  0.2201 -0.1623
26856W        W43704  15.834  13.559   1.545  0.0349  0.3978  0.1372
26857W        W43705  17.484  10.145   3.830 -0.1154  0.0544 -0.1065
26858W        W43706  13.461   3.743   3.716 -0.3845 -0.1728 -0.0574
26859W        W43707  12.507   8.752  12.287  0.2699 -0.0950 -0.1753
26860W        W43708  13.846   1.488   4.305 -0.2474  0.0315  0.0961
26861W        W43709   3.926   1.890  11.199 -0.1196  0.0676  0.1192
26862W        W43710  14.781   9.710   2.207 -0.0305 -0.1795 -0.2674
26863W        W43711   7.169  17.329   0.307  0.1665  0.1809  0.0526
26864W        W43712   8.164   6.372   4.700 -0.0903  0.0450 -0.1959
26865W        W43713  12.268   8.392   3.605 -0.1945 -0.1483 -0.1240
26866W        W43714   3.168   9.093  14.360 -0.0478 -0.1024  0.2266
26867W        W43715   7.175  16.784   4.193  0.2722 -0.3090 -0.1266
26868W        W43716   6.512   6.320  15.423 -0.0582  0.3482 -0.2196
26869W        W43717   7.155   9.785  13.877  0.2579  0.3163 -0.1245
26870W        W43718   4.049   5.196   0.552 -0.0574  0.0917  0.1480
26871W        W43719   3.600   3.129  14.744 -0.3506 -0.0098 -0.0499
26872W        W43720  12.618  14.140  14.685 -0.0301  0.3817  0.1464
26873W        W43721  12.181  10.231  10.892  0.0691 -0.0009  0.0419
26874W        W43722  15.858  17.020  13.703 -0.2512 -0.2171 -0.2955
26875W        W43723   5.782  12.425  12.260  0.0357 -0.0469  0.0655
26876W        W43724   4.956  10.298   3.931  0.0641 -0.0147 -0.2620
26877W        W43725   9.348  12.652  12.297  0.0690  0.0154 -0.1723
26878W        W43726   8.743  11.353   3.819  0.1624 -0.3552 -0.2506
26879W        W43727   3.085   0.955  11.361  0.3428 -0.1729  0.2448
26880W        W43728   9.549   8.790   2.709  0.2031  0.2977  0.2266
26881W        W43729  15.824   9.973  15.553 -0.2258  0.4602 -0.0110
26882W        W43730  11.639   1.678  14.698 -0.0089  0.0132  0.3118
26883W        W43731  15.298   3.492  11.741 -0.1061 -0.0121 -0.0356
26884W        W43732   4.237  13.780   1.698  0.1189 -0.2104  0.1576
26885W        W43733   1.204   1.761   2.350 -0.1799 -0.1191  0.1714
26886W        W43734   8.705   9.091  12.756 -0.2010  0.0318 -0.1586
26887W        W43735   6.852   0.379  15.098  0.1126  0.0557 -0.1861
26888W        W43736  11.881   8.452  12.528 -0.2567  0.2669  0.1148
26889W        W43737  12.003   1.036   0.550 -0.0482  0.2602 -0.0045
26890W        W43738   1.468  10.588  16.053 -0.2448  0.2153  0.3294
26891W        W43739   0.123  14.350  15.397  0.3162  0.1726 -0.0174
26892W        W43740  11.566   3.817   4.857 -0.0293  0.2998 -0.1134
26893W        W43741  11.707   6.118  16.043  0.0907  0.1608 -0.1595
26894W        W43742   5.159  11.394   3.705 -0.1605  0.0154 -0.0685
26895W        W43743   6.062   2.803  12.123  0.3646  0.1194  0.5774
26896W        W43744   9.200   4.645   1.590  0.2922  0.1417 -0.2590
26897W        W43745  17.333   8.815   0.790  0.0463 -0.1076 -0.3380
26898W        W43746   4.551   1.370  14.406  0.2575 -0.3303  0.1824
26899W        W43747  12.198   8.366   4.177  0.0139  0.1638 -0.2441
26900W        W43748   3.777   5.821   3.598 -0.1837 -0.4031  0.0757
26901W        W43749   5.237   8.123  10.805 -0.0790  0.3316  0.0889
26902W        W43750  11.239   7.209  15.847  0.0490  0.2297 -0.1240
26903W        W43751   4.264  16.252   3.362  0.0205  0.0075 -0.0391
26904W        W43752  11.563   8.063  10.272 -0.1178  0.0458  0.1219
26905W        W43753  15.094   0.629   3.179  0.0223  0.0036 -0.3813
26906W        W43754  11.645  10.727  11.560 -0.1096  0.0839  0.0123
26907W        W43755  13.342  10.476   2.603  0.2267 -0.1604  0.1523
26908W        W43756  12.861   2.096   2.948 -0.0394 -0.2297 -0.4264
26909W        W43757   8.082   6.446  14.387  0.1748  0.1628  0.4016
26910W        W43758   2.658   7.066   1.114 -0.3392 -0.1532 -0.1061
26911W        W43759   0.314  16.748  15.404  0.1784  0.0793 -0.1011
26912W        W43760  11.739   3.640  15.226 -0.0352 -0.0313  0.1195
26913W        W43761   9.930   0.765  11.173  0.0144  0.1507  0.1205
26914W        W43762  14.269   4.332   3.873 -0.1034  0.0218 -0.1521
26915W        W43763   0.403  14.497  16.263 -0.3112  0.1949 -0.0868
26916W        W43764  11.151   7.057  14.084  0.2090 -0.1529 -0.0855
26917W        W43765   5.100  12.715   0.393 -0.0306  0.3773  0.3020
26918W        W43766   7.354   6.403  12.725 -0.2368 -0.0608  0.1143
26919W        W43767   0.831  13.711   3.210  0.2466 -0.3745  0.1481
26920W        W43768   9.267   5.903   3.446 -0.2188 -0.3301 -0.0193
26921W        W43769   6.657  14.555   1.889 -0.1000 -0.0301 -0.0540
26922W        W43770  11.789  13.142  12.812  0.0523  0.0996 -0.1670
26923W        W43771  17.960  11.776  14.635  0.1346  0.0330  0.1582
26924W        W43772  15.832  12.150   4.293 -0.3742 -0.1508 -0.0800
26925W        W43773  16.424   6.273  15.073 -0.0094  0.0990 -0.0213
26926W        W43774   5.836   8.546   1.369  0.1086 -0.0300 -0.1718
26927W        W43775  14.813   4.979   4.470  0.3009 -0.0764 -0.0549
26928W        W43776  12.805   1.590   3.825  0.2437 -0.0923  0.2409
26929W        W43777   4.985   9.907   3.439 -0.3490  0.0431  0.2948
26930W        W43778   9.771  14.428   0.289 -0.2534 -0.2525  0.2431
26931W        W43779   1.587   9.247  13.706  0.2110  0.1936  0.0617
26932W        W43780   5.025   3.704  11.640  0.2919  0.1116 -0.1602
26933W        W43781  17.434  14.884  13.515  0.0217 -0.3343  0.0103
26934W        W43782  14.961  14.792   4.944  0.3237 -0.0474  0.2002
26935W        W43783   1.140  13.251  10.969  0.0168  0.1383 -0.0680
26936W        W43784  15.695  17.752   1.074 -0.0227  0.1775 -0.1040
26937W        W43785  11.364   6.612  15.161 -0.1072 -0.3569 -0.0264
26938W        W43786  14.503  12.159   0.881  0.0385 -0.0974 -0.1677
26939W        W43787   7.379   4.808   2.680  0.1523  0.1235  0.0631
26940W        W43788   1.068   8.736  10.777 -0.2459  0.0960  0.1232
26941W        W43789   7.224   6.064  15.930 -0.2485 -0.1748 -0.3604
26942W        W43790  11.643   8.322  13.557 -0.5831  0.0891 -0.1212
26943W        W43791  11.267  13.961   5.622  0.1105 -0.0155  0.2648
26944W        W43792   9.191   3.499  13.457 -0.1667  0.3133  0.1730
26945W        W43793   9.279   9.685   4.749 -0.3181 -0.0311  0.0360
26946W        W43794  17.902  13.893  15.350  0.4248 -0.1287  0.0181
26947W        W43795   6.217  12.474  14.780  0.1451 -0.2656 -0.2631
26948W        W43796   6.070   5.546   1.400  0.1444  0.2113 -0.1175
26949W        W43797   5.250   9.934  15.959  0.1405 -0.0740  0.1903
26950W        W43798  14.793  16.655   3.697 -0.4081  0.2967 -0.2404
26951W        W43799  11.011   7.935  13.888 -0.0217  0.0148  0.0419
26952W        W43800  14.835   2.098  14.695 -0.0095 -0.2321 -0.0573
26953W        W43801   6.982  17.829   1.569 -0.2716 -0.0518  0.1832
26954W        W43802   3.013   2.599  12.715 -0.1370  0.0581 -0.1456
26955W        W43803   5.357  14.468  15.844 -0.0102  0.0431  0.1740
26956W        W43804   2.616  11.045  15.700  0.1497 -0.1394  0.1435
26957W        W43805   1.439  15.169   1.210 -0.0759  0.0786 -0.1817
26958W        W43806  16.893  16.343  11.939 -0.0417 -0.3076  0.0158
26959W        W43807  14.496  17.644  12.597 -0.1111 -0.0294  0.0676
26960W        W43808   6.752  16.429   2.341  0.5538  0.0679 -0.1105
26961W        W43809   1.759   4.335  13.744 -0.0589  0.0689  0.0318
26962W        W43810  10.880  16.935  15.932 -0.2945 -0.1452  0.0173
26963W        W43811   6.212  12.696  12.245 -0.1640 -0.0233 -0.1450
26964W        W43812  15.023   9.669  12.252  0.0955  0.1655 -0.0336
26965W        W43813   1.196   4.286  16.144  0.2136 -0.2897 -0.2096
26966W        W43814   3.178   6.631   3.370  0.3944  0.3975 -0.1637
26967W        W43815   9.634  17.506   2.411 -0.1962  0.0123 -0.1784
26968W        W43816   1.053   1.886  13.111  0.0182 -0.0534 -0.3808
26969W        W43817   6.415   1.621  11.760 -0.1754 -0.0625  0.0162
26970W        W43818  17.099   1.604  11.451 -0.0244  0.0877  0.3104
26971W        W43819  14.021   2.038  15.110  0.1293 -0.1753  0.0711
26972W        W43820   3.387   3.149  13.787  0.1258 -0.1693  0.1097
26973W        W43821   7.130  17.775  13.048 -0.0941 -0.0691  0.1286
26974W        W43822   9.333   0.787  15.481 -0.0073  0.0776  0.0679
26975W        W43823   3.211  16.019  13.657 -0.0776 -0.1361  0.0510
26976W        W43824   8.269  12.076  15.349  0.0440  0.0681  0.0979
26977W        W43825  12.100  14.876  11.617 -0.0883  0.1034 -0.0457
26978W        W43826  12.525   2.880  14.544 -0.0924  0.2002 -0.1313
26979W        W43827   0.598  13.158   3.913 -0.0074 -0.0264  0.1626
26980W        W43828  11.912  12.168  13.198  0.0939  0.3855  0.0038
26981W        W43829  13.457  11.998  11.485  0.0593  0.0021 -0.0189
26982W        W43830  13.128  16.103  12.842  0.0661  0.2210  0.0323
26983W        W43831   9.907  12.485   4.604  0.2891  0.3178 -0.3019
26984W        W43832   9.256   2.109   4.920  0.1948 -0.2607 -0.2754
26985W        W43833   3.913   9.520  14.541 -0.2846 -0.0280 -0.4472
26986W        W43834  16.633  11.827  12.234 -0.0836  0.0133  0.0493
26987W        W43835   2.700   8.234  12.172 -0.1319  0.0595 -0.1417
26988W        W43836  12.343   2.738  12.067 -0.3662 -0.0794 -0.1444
26989W        W43837   0.370   2.204   4.603  0.0771 -0.1286  0.1412
26990W        W43838  15.625   0.853  13.610  0.1164 -0.2079 -0.0820
26991W        W43839  14.674  11.851  11.338  0.1496 -0.0429 -0.2585
26992W        W43840  15.991   9.968   4.902  0.0757 -0.0167 -0.2200
26993W        W43841  13.758   1.827   1.273  0.1220 -0.0890 -0.0620
26994W        W43842   4.022  10.594  14.354 -0.2289  0.1227  0.3537
26995W        W43843  16.889   1.293   4.396 -0.1198 -0.1551  0.0508
26996W        W43844  15.322   1.299  15.029  0.2258  0.3775 -0.2117
26997W        W43845   6.225  14.445  10.596 -0.1430  0.0764  0.0292
26998W        W43846  12.395   8.445  14.159 -0.3659  0.0705 -0.0606
26999W        W43847  11.720  10.226   1.392 -0.0374  0.0977  0.0902
27000W        W43848   3.742  14.750   0.084 -0.0147  0.2738 -0.1569
27001W        W43849   6.995   0.748   0.464  0.0569  0.2146 -0.2172
27002W        W43850   6.905  11.198   5.151  0.1917 -0.1799 -0.0424
27003W        W43851   8.927   9.444  13.685  0.0994 -0.2136 -0.1251
27004W        W43852  16.097  17.845  12.377 -0.0777 -0.0553  0.0055
27005W        W43853  11.133  11.193  14.794 -0.0051 -0.1485  0.0262
27006W        W43854  10.374  17.294   2.881  0.1074  0.1815 -0.3125
27007W        W43855   0.125  10.054   3.164  0.2770 -0.1214 -0.1844
27008W        W43856   0.653  17.241  14.946 -0.0025 -0.0963  0.1731
27009W        W43857   3.054   1.128   3.201  0.3438  0.1450  0.0098
27010W        W43858   3.221  14.496   0.851  0.1651  0.0569  0.0335
27011W        W43859   7.204  15.315   0.904 -0.1226 -0.0979 -0.0852
27012W        W43860   9.523   4.131   4.226 -0.1836  0.1260 -0.2210
27013W        W43861   1.824   8.657  14.979 -0.1265  0.3475  0.1723
27014W        W43862  17.071  11.468   3.694 -0.1993  0.1350  0.0376
27015W        W43863   1.621  16.804  14.233 -0.0442 -0.0201 -0.1614
27016W        W43864   9.211   1.713   0.380  0.2092  0.0003 -0.0866
27017W        W43865   4.816   8.781  14.705 -0.3781  0.0480  0.1323
27018W        W43866   9.033  17.437  15.216  0.1112 -0.0801 -0.1312
27019W        W43867  16.966   1.014  13.994  0.0295 -0.1372  0.0233
27020W        W43868   8.728   5.255   2.742  0.3207 -0.1469 -0.0028
27021W        W43869  14.627   1.520  15.648  0.2381  0.1748 -0.1494
27022W        W43870  17.673   2.817   4.301 -0.0554 -0.2617  0.2048
27023W        W43871  12.197   6.124  15.483 -0.1996  0.0895  0.2817
27024W        W43872   1.567   8.940  13.282 -0.3101  0.0681  0.1097
27025W        W43873  17.152   3.029  11.762 -0.1107  0.1810  0.2018
27026W        W43874  10.968  15.136   3.747 -0.0354 -0.1545  0.0103
27027W        W43875   3.154   6.515   4.555 -0.0047 -0.1655  0.0925
27028W        W43876  10.475   3.511   3.586 -0.1431  0.1169  0.1481
27029W        W43877   9.000  14.265  13.818 -0.4873  0.3056  0.0105
27030W        W43878  14.847  10.207   3.403 -0.1688 -0.3297 -0.4019
27031W        W43879   5.453   6.201  14.129 -0.3093  0.1337  0.2477
27032W        W43880   7.518   4.017  13.387  0.1881 -0.0820  0.1181
27033W        W43881  11.155   4.611   4.743 -0.3210 -0.4738 -0.0051
27034W        W43882   1.923   7.281  14.798  0.0902  0.2017  0.0256
27035W        W43883   3.677  17.716  10.903 -0.0178 -0.1099  0.4217
27036W        W43884  11.729   5.824   1.312  0.0042  0.3040 -0.2189
27037W        W43885   0.670  12.806  14.943 -0.1352  0.2818 -0.0084
27038W        W43886   6.943  17.256  15.674  0.1621 -0.0095  0.0880
27039W        W43887   2.605   9.745  14.799 -0.0524 -0.1885  0.1196
27040W        W43888  16.526   3.361   2.840 -0.0912 -0.1919 -0.4112
27041W        W43889  14.079  12.142   3.455 -0.1095 -0.3379  0.2349
27042W        W43890  17.843   3.038   1.717 -0.0778  0.0122 -0.2720
27043W        W43891   8.787  17.925   4.420  0.3476 -0.3223  0.0994
27044W        W43892  11.888  17.326   2.526  0.1233  0.5551 -0.0447
27045W        W43893   4.228  15.112  11.068 -0.3756  0.1152 -0.0445
27046W        W43894  17.147   3.210   2.592  0.3479 -0.0987  0.3952
27047W        W43895   8.369  12.727   2.533  0.1048  0.2036 -0.3269
27048W        W43896   5.855  15.172   4.668  0.2770  0.0701 -0.3699
27049W        W43897   1.218   8.872  13.847  0.1193 -0.1436 -0.1286
27050W        W43898   3.677  14.625   1.807 -0.0438 -0.1669 -0.0808
27051W        W43899  12.749   9.482   3.693 -0.0334  0.3511 -0.2677
27052W        W43900  13.898  15.525   3.674  0.1989  0.0954  0.2940
27053W        W43901   0.172   7.114  13.249  0.3453  0.0758  0.0002
27054W        W43902  15.801  15.754  13.895 -0.1595  0.1195 -0.0277
27055W        W43903   0.293   5.040   3.356  0.0761  0.0540  0.0764
27056W        W43904  16.591   2.478   5.179  0.5321 -0.1182 -0.0498
27057W        W43905  13.892  13.815  13.801  0.3807  0.1172 -0.1108
27058W        W43906   4.433   1.431   0.406  0.2032  0.2005  0.0308
27059W        W43907  17.646   9.648   0.079  0.3557  0.0016 -0.2939
27060W        W43908  12.637  13.437  14.395  0.2776 -0.2181  0.0154
27061W        W43909   8.918   0.560   2.573  0.2531 -0.0942  0.0674
27062W        W43910   2.361  15.909  15.243  0.0032  0.0405  0.0956
27063W        W43911  15.403   1.000   3.015 -0.0907  0.0881  0.2361
27064W        W43912   4.915   7.863  14.180  0.0705  0.3750  0.0878
27065W        W43913   1.312  13.058   0.047 -0.0537  0.0158  0.2310
27066W        W43914   2.062   9.148  13.586  0.1526  0.1433 -0.1008
27067W        W43915  14.445  17.956  14.938 -0.0850  0.1645 -0.1147
27068W        W43916  10.096   3.478  14.983  0.1141 -0.2265  0.0145
27069W        W43917  14.705   1.777   4.006 -0.0039 -0.2567 -0.3108
27070W        W43918  11.873   2.409   0.028 -0.0501  0.1607 -0.1010
27071W        W43919   0.155   6.347   3.655 -0.0490  0.0949 -0.1513
27072W        W43920  17.089   5.271   0.576 -0.0215 -0.1619 -0.2966
27073W        W43921  12.947   7.672  14.169  0.0100  0.0450  0.0823
27074W        W43922   3.020   5.200   2.596  0.1138  0.1278  0.1515
27075W        W43923   0.623  17.080  14.082  0.2637 -0.2645 -0.3768
27076W        W43924   6.781   1.109   0.768 -0.1554 -0.2174  0.1792
27077W        W43925   3.694   5.435   0.910  0.0707 -0.2488  0.0312
27078W        W43926   1.950   9.146  12.147 -0.2969 -0.2314 -0.1229
27079W        W43927  17.908   5.998   0.318  0.1007 -0.1770  0.3167
27080W        W43928  17.459  10.951  11.658 -0.0048 -0.0917  0.1100
27081W        W43929   5.653  11.135  16.217  0.1337  0.3779  0.3597
27082W        W43930  13.472  11.943   4.310  0.0518 -0.0263 -0.0771
27083W        W43931  13.929   8.084   0.661 -0.1782  0.0882 -0.0174
27084W        W43932  10.836   2.045   0.659 -0.0800  0.5037  0.2168
27085W        W43933  13.585   8.577   0.766  0.0162  0.1807 -0.5534
27086W        W43934   4.462  15.195   5.217  0.1836  0.0220  0.0201
27087W        W43935   2.970   6.209  11.796  0.1067  0.2498  0.4123
27088W        W43936  10.370   5.245   1.204  0.0317  0.0171 -0.1970
27089W        W43937   3.254   5.870  11.182  0.0733  0.6781  0.0175
27090W        W43938  10.664  15.128   2.168 -0.0507 -0.1533  0.1304
27091W        W43939   7.251  10.245   3.840  0.0534  0.2520  0.0496
27092W        W43940   3.605   9.828  14.839  0.1750  0.4218  0.1821
27093W        W43941   2.118   8.741   1.597  0.0820  0.3798 -0.0059
27094W        W43942   8.730   9.497  14.185  0.0162  0.1537 -0.2923
27095W        W43943  14.935  15.225  15.930  0.0167 -0.1851  0.0348
27096W        W43944   6.468  16.083   4.424 -0.0678  0.2797 -0.3471
27097W        W43945   0.367  17.675   2.201  0.1446  0.2639  0.2686
27098W        W43946   5.922   7.189  14.514 -0.1687  0.1265  0.0584
27099W        W43947   1.298   3.457  13.716  0.1248  0.1991  0.0196
27100W        W43948  16.559   4.045   2.053  0.1551  0.0791 -0.2323
27101W        W43949   4.754  10.592   2.206  0.1638  0.0483 -0.0982
27102W        W43950   4.032  17.403  11.158 -0.1364 -0.0468 -0.1024
27103W        W43951  11.309   6.882   4.312 -0.1763 -0.0855  0.0197
27104W        W43952  11.562   4.526   0.872  0.2957 -0.0690 -0.0098
27105W        W43953   2.638   7.920   2.674  0.0075  0.1034  0.1103
27106W        W43954   3.330   6.825   1.219  0.0259 -0.0178 -0.0768
27107W        W43955  15.321   2.142   4.347  0.2573 -0.2024 -0.2957
27108W        W43956  13.316  11.881  13.537  0.1923  0.0280 -0.0489
27109W        W43957  12.717  15.513   0.026 -0.0309 -0.0324  0.1308
27110W        W43958  11.316  13.499  13.256  0.3469  0.1980 -0.1196
27111W        W43959  15.576   8.586   3.370 -0.0539  0.1673  0.2877
27112W        W43960   6.693   3.830   3.395 -0.1464  0.0576 -0.0516
27113W        W43961  10.576   1.394  11.779 -0.0016  0.1635 -0.0161
27114W        W43962  12.561  16.028  12.996  0.2092  0.0978  0.0435
27115W        W43963   0.899   3.923   0.434 -0.0060  0.2048 -0.0285
27116W        W43964   9.925  10.832  14.263  0.0325  0.0707 -0.1503
27117W        W43965  14.822  12.789  12.436 -0.0509 -0.0680  0.1000
27118W        W43966  11.150  16.607   0.538  0.0932 -0.2400  0.0727
27119W        W43967  13.648   2.621   3.403 -0.0861 -0.1477 -0.1554
27120W        W43968  16.161  14.134  12.374  0.0185  0.2376  0.0338
27121W        W43969   7.478   7.877   2.743  0.1306  0.2239  0.0344
27122W        W43970  11.758  12.607  13.348  0.0994  0.1708  0.0266
27123W        W43971   5.871   4.169   0.559 -0.1945  0.3170  0.3357
27124W        W43972  13.050  14.255  15.024  0.0454 -0.4202  0.0595
27125W        W43973  15.718   4.088   4.841  0.0377 -0.2527 -0.2999
27126W        W43974   9.030   8.781   2.761  0.0054 -0.1921  0.2742
27127W        W43975   7.831  15.626   2.047 -0.4487 -0.2309  0.0006
27128W        W43976   5.248  11.108  15.133 -0.2570 -0.0426 -0.3200
27129W        W43977   1.047  14.587  10.733 -0.3073  0.0806 -0.1884
27130W        W43978  14.336  14.932  13.446 -0.0031 -0.1540 -0.1303
27131W        W43979  12.995   3.962  12.611 -0.1104  0.0733 -0.0637
27132W        W43980   0.285  15.577   1.620 -0.1143  0.0558 -0.2927
27133W        W43981  10.358   1.691  11.465  0.0915 -0.0192  0.1842
27134W        W43982  11.705   5.956  13.961  0.1437  0.1737  0.1120
27135W        W43983   9.614  13.456  12.547  0.0523 -0.0798 -0.0202
27136W        W43984   9.190   1.710  11.754  0.1092 -0.0902 -0.0953
27137W        W43985  10.666  11.735  14.483 -0.2140 -0.0955  0.1269
27138W        W43986  11.028  16.424   3.208 -0.1536  0.1316 -0.0910
27139W        W43987   7.785  17.485   4.310 -0.0947  0.0855 -0.1698
27140W        W43988  10.396   5.858  13.262 -0.2228 -0.0082  0.0471
27141W        W43989   4.433   8.054   2.218 -0.0070 -0.2827  0.3693
27142W        W43990   2.878  13.265   2.040 -0.0307  0.1306 -0.0900
27143W        W43991  13.250   1.379  12.165 -0.0087  0.0412  0.2412
27144W        W43992   6.696  13.766   4.033  0.3814  0.1985  0.2315
27145W        W43993   7.635   8.496  10.126  0.0932 -0.1459 -0.1250
27146W        W43994   3.028   2.566  15.897 -0.1437 -0.0032  0.1040
27147W        W43995  11.192   5.043  15.637  0.2325 -0.0861 -0.1469
27148W        W43996   8.623  13.397  13.838  0.2995 -0.0207 -0.0336
27149W        W43997   5.698   5.061   2.085 -0.0144  0.2118 -0.3159
27150W        W43998   1.459  17.363   0.030  0.0780 -0.1211 -0.2511
27151W        W43999   7.305   4.640   0.684  0.0822  0.0028 -0.0606
27152W        W44000  17.103  16.422  11.456 -0.0088  0.0576  0.2892
27153W        W44001   4.987  12.629   1.421 -0.0931  0.0579 -0.0947
27154W        W44002  15.571   7.029   5.621  0.0182 -0.1588 -0.2853
27155W        W44003  14.409  10.154   4.255 -0.3831 -0.0672  0.0605
27156W        W44004  13.883  15.559  12.971  0.0730  0.0811  0.2856
27157W        W44005   7.951  15.196  15.522  0.2482 -0.0560  0.0732
27158W        W44006  12.680   2.718   0.999 -0.0008 -0.0352  0.1050
27159W        W44007   9.299   6.574   4.204 -0.1971  0.3849 -0.1712
27160W        W44008  15.599   6.765   4.566  0.0962  0.0482  0.0267
27161W        W44009  15.244  11.931   4.866  0.2448  0.0992  0.1061
27162W        W44010  11.673  11.266   2.675 -0.1345 -0.0355  0.2786
27163W        W44011  12.837   3.424   1.698  0.0153 -0.2348 -0.0966
27164W        W44012   8.908   0.756   3.683  0.1078 -0.1093  0.1859
27165W        W44013  10.003   0.486   3.353  0.0023  0.1296 -0.1523
27166W        W44014   0.530   4.912   4.146 -0.0217  0.0008  0.2401
27167W        W44015   1.743   3.483  14.060  0.2031  0.2558  0.1497
27168W        W44016   7.033   9.638  13.040 -0.1394 -0.2820  0.0967
27169W        W44017  12.232   4.228  15.043 -0.0776 -0.0891 -0.1648
27170W        W44018   6.639   8.899   1.747  0.3252 -0.0683  0.0952
27171W        W44019  16.031  15.750   1.893 -0.0162  0.0907 -0.2505
27172W        W44020   5.015   9.565  11.022  0.0908  0.1075 -0.2025
27173W        W44021   5.718  17.779  13.984  0.0776  0.2061 -0.0229
27174W        W44022   0.765   2.003   2.031  0.2544  0.2079 -0.0264
27175W        W44023   8.027  10.184  14.880  0.1482  0.1581  0.0074
27176W        W44024   0.456  15.429  13.924 -0.2061  0.5180 -0.2892
27177W        W44025   7.416   6.010   3.843  0.3495  0.1448 -0.0272
27178W        W44026   2.260   2.658  11.687  0.0847  0.4130 -0.2185
27179W        W44027   2.134   7.404   4.381 -0.4014  0.0569  0.2824
27180W        W44028  10.413   9.507  15.894 -0.2523  0.0427  0.1089
27181W        W44029  14.393   0.040  14.256  0.1214 -0.0899  0.2425
27182W        W44030   4.183   5.854  14.757 -0.0104 -0.3609  0.1829
27183W        W44031  12.564  15.511   1.396 -0.3188 -0.4401  0.2526
27184W        W44032   5.386   4.718  11.660 -0.0024  0.1233  0.2098
27185W        W44033   7.467   3.231  12.615  0.1763  0.0194 -0.0401
27186W        W44034  13.856   7.177  11.779  0.0102  0.0647 -0.3653
27187W        W44035   5.944  12.653   1.686 -0.2595 -0.1803 -0.0935
27188W        W44036  13.612  13.141   1.670 -0.0445  0.2278  0.2495
27189W        W44037  10.115  10.006   4.563 -0.0120 -0.0620  0.0629
27190W        W44038  13.521   8.147   2.801 -0.0120  0.3865  0.1385
27191W        W44039   0.595   7.666  11.051 -0.0889 -0.2987  0.2432
27192W        W44040  13.040   1.828  13.421 -0.0846 -0.2650 -0.2439
27193W        W44041  11.567   8.152  11.579  0.0816 -0.2647  0.0394
27194W        W44042  12.859   9.035  15.620 -0.3225  0.3308  0.1725
27195W        W44043  14.807  10.219   4.636 -0.2463 -0.2604 -0.1449
27196W        W44044  18.035  12.878   5.236 -0.1964 -0.0182  0.2529
27197W        W44045  11.690   3.881   6.023  0.1680  0.0086  0.1846
27198W        W44046   8.182   1.934  15.672 -0.0419  0.1691 -0.0734
27199W        W44047   9.710   8.762  11.449  0.0197  0.1927 -0.3093
27200W        W44048  16.625   0.457   3.997  0.3704 -0.2876  0.0619
27201W        W44049  12.876  13.617  12.179  0.0110 -0.1323 -0.0451
27202W        W44050  14.629  15.521  14.525 -0.2845  0.0080 -0.3237
27203W        W44051  17.102   8.758   3.317  0.2820 -0.0508 -0.2140
27204W        W44052   9.561  10.834   1.340 -0.3145  0.0480 -0.0760
27205W        W44053   2.473  11.155  14.886 -0.0332 -0.0386  0.2389
27206W        W44054   1.016   3.430  14.135  0.2236  0.0844 -0.1773
27207W        W44055   4.149  16.190   1.591 -0.0591  0.1393 -0.0156
27208W        W44056   1.278   4.440  12.497  0.2174  0.0765 -0.2713
27209W        W44057  13.903  12.144   4.075  0.0443 -0.0826  0.1619
27210W        W44058  15.714   4.045   3.865  0.0376 -0.1660 -0.1139
27211W        W44059  12.236  11.675   1.107 -0.1327  0.1190  0.1086
27212W        W44060  12.478   3.810   3.651 -0.1062  0.0954  0.0039
27213W        W44061   8.723   9.314  15.466  0.0407 -0.0153  0.1084
27214W        W44062   9.562  11.115   3.346  0.3152 -0.2687 -0.1823
27215W        W44063  15.932   2.123   3.151  0.0091  0.0211 -0.2129
27216W        W44064   8.290   2.873  12.007  0.3806  0.1275  0.3736
27217W        W44065  14.311  11.442  15.050  0.1082 -0.1147 -0.0264
27218W        W44066  12.054  16.207  13.180  0.0217 -0.2014  0.0905
27219W        W44067   0.682   3.166   2.135 -0.2083  0.0892  0.0220
27220W        W44068   6.055   3.280  15.795 -0.0228  0.1680 -0.2069
27221W        W44069   6.391   1.097   1.356 -0.2304  0.0884  0.0327
27222W        W44070   8.691   7.062  15.261 -0.1710 -0.2867  0.2720
27223W        W44071   4.179   2.537   0.767 -0.0237 -0.0732  0.2705
27224W        W44072  13.553   7.989   4.179  0.2781 -0.0856  0.0354
27225W        W44073  12.426  13.600   0.115 -0.1592  0.0213  0.2439
27226W        W44074   8.907  15.625  15.403  0.0210  0.0239  0.2091
27227W        W44075  10.955   2.157   5.992  0.2870 -0.1441  0.1497
27228W        W44076   8.796  16.806   0.486  0.0595 -0.2055 -0.3879
27229W        W44077  13.108   4.689  10.974 -0.0319  0.0461  0.2636
27230W        W44078   2.366   5.301  11.863 -0.2065  0.0003 -0.2409
27231W        W44079  17.475  11.897   4.530 -0.0960  0.1820  0.0438
27232W        W44080  13.148   0.069  14.707 -0.0160  0.0249  0.2778
27233W        W44081  16.357   0.734   3.644  0.1212 -0.0373  0.1902
27234W        W44082   0.438   8.156   0.581  0.0071 -0.1057 -0.0422
27235W        W44083  17.209  15.052  14.707  0.2739 -0.2150 -0.0814
27236W        W44084   5.424   9.810   1.969 -0.0439  0.0112  0.1453
27237W        W44085  12.918   8.371  15.023 -0.2133  0.0038 -0.1879
27238W        W44086  15.766   9.543  11.353  0.1765 -0.0416 -0.1220
27239W        W44087  11.608   4.500   4.187 -0.2250  0.1839 -0.2517
27240W        W44088  10.966   5.775  12.584 -0.0004 -0.0458 -0.0023
27241W        W44089   1.321  13.853   5.169  0.0217  0.2294 -0.0803
27242W        W44090  17.035  16.034   3.214  0.2838 -0.3064  0.0903
27243W        W44091   3.191  12.979  14.015  0.2936  0.2863 -0.0154
27244W        W44092  12.110  11.346  14.445  0.2409 -0.4910 -0.2219
27245W        W44093  13.859   8.978  12.654 -0.2781 -0.0232  0.1532
27246W        W44094   3.346   4.076  11.013 -0.0330 -0.0282  0.2110
27247W        W44095   7.952  14.824   0.349 -0.0144  0.2231  0.1951
27248W        W44096   5.252  10.849   3.823  0.2805 -0.4527 -0.2309
27249W        W44097  10.619  12.831   3.930  0.1437  0.2827  0.0770
27250W        W44098  13.660   2.211  11.301 -0.1898  0.1660 -0.5452
27251W        W44099   2.190   9.298   2.940 -0.0435  0.0864  0.2298
27252W        W44100  15.003   6.492   3.252 -0.0257  0.1646 -0.0965
27253W        W44101  10.655   7.587   3.567  0.0764 -0.0664  0.2709
27254W        W44102  12.430   7.292   1.267  0.3803  0.0066  0.2403
27255W        W44103   3.684  10.425   4.670 -0.0355 -0.0578 -0.0797
27256W        W44104   5.471  14.177   1.014  0.0125 -0.2605  0.1662
27257W        W44105  14.953  10.474   2.451 -0.2204  0.1027 -0.1203
27258W        W44106   3.534  14.544   4.469 -0.1290  0.2692 -0.0077
27259W        W44107   8.407  13.307  13.280  0.0273  0.0233 -0.5262
27260W        W44108  10.606  12.331   4.065  0.1386  0.0957  0.3353
27261W        W44109   4.234  17.006   1.809  0.0190  0.0898  0.2070
27262W        W44110   1.841  10.941  16.076 -0.1438 -0.0443 -0.3601
27263W        W44111   3.298   0.097  12.599 -0.0842 -0.2915 -0.3565
27264W        W44112  14.338   0.812  13.999 -0.1549 -0.1078 -0.2327
27265W        W44113   2.488  11.709   1.251 -0.0279  0.1522 -0.0204
27266W        W44114  11.687  12.543   4.867 -0.0688  0.2597 -0.0461
27267W        W44115   1.374   0.362   0.090  0.1072 -0.0174 -0.2040
27268W        W44116  13.944  13.490   4.612 -0.1098  0.0049  0.2461
27269W        W44117  17.538   4.910  11.704 -0.0685  0.2390  0.1534
27270W        W44118   0.700  11.182  13.094 -0.0575 -0.1093 -0.1483
27271W        W44119  11.367   8.693  10.346  0.3238  0.0859  0.3458
27272W        W44120  17.454  14.635  15.962 -0.0810 -0.0559 -0.3142
27273W        W44121  12.398  13.299  15.907 -0.0207  0.1053  0.0615
27274W        W44122  14.881   1.544  13.087 -0.3271 -0.0158 -0.1191
27275W        W44123   9.772   6.508   1.412 -0.1552  0.0859 -0.2445
27276W        W44124   8.053  15.785   0.231  0.1057 -0.1047 -0.1859
27277W        W44125  16.569   4.549  12.599 -0.0424  0.0102 -0.0097
27278W        W44126  18.003  12.185   0.593  0.0779 -0.1189  0.0222
27279W        W44127  10.920   8.682  11.033  0.0234  0.1261 -0.2597
27280W        W44128  15.781   3.174   0.663 -0.1760  0.4638 -0.1943
27281W        W44129   7.738   8.502   5.003 -0.0656 -0.0656 -0.4059
27282W        W44130   4.970   9.666   1.336  0.0373 -0.2903  0.0842
27283W        W44131  13.797  16.425   3.415  0.0055  0.0654 -0.2496
27284W        W44132   8.366   9.951  14.527  0.0299  0.1173  0.0886
27285W        W44133  11.191   5.789  11.590 -0.0184  0.2982  0.1770
27286W        W44134   5.306  13.585  15.550  0.3897 -0.1062 -0.1073
27287W        W44135  13.508  13.352   4.359  0.1297 -0.0613  0.3266
27288W        W44136  14.615   3.403   4.294  0.0929  0.1290  0.1481
27289W        W44137   9.443  17.536  10.858  0.0721  0.2762 -0.2258
27290W        W44138  17.439   9.557  14.434 -0.0509  0.0040 -0.0922
27291W        W44139   6.267  16.128   3.954 -0.3230  0.0663 -0.3742
27292W        W44140  17.004  15.146   0.721 -0.2438  0.2836  0.0603
27293W        W44141  13.312  15.272  12.000  0.1535 -0.0328 -0.0006
27294W        W44142   2.337  11.159   4.123 -0.2600  0.1283  0.0354
27295W        W44143  14.382   2.071   5.457 -0.1101  0.0878 -0.1399
27296W        W44144   5.100  14.064  14.759 -0.1243  0.1483  0.0365
27297W        W44145   3.674  11.674  13.738 -0.1083 -0.0835  0.2103
27298W        W44146  14.937  10.709  12.522  0.3154  0.1330  0.0610
27299W        W44147   5.077   7.877  13.634 -0.2618 -0.1225 -0.3218
27300W        W44148   5.903   6.097   0.239  0.0271 -0.0247 -0.0723
27301W        W44149  16.496  17.364   0.147  0.0954  0.0899  0.1832
27302W        W44150  14.137  12.572  14.974  0.1415 -0.0459 -0.0478
27303W        W44151   7.467  12.815   4.435 -0.3072 -0.1702 -0.2211
27304W        W44152   2.821  16.229  11.568 -0.3875 -0.1877  0.1438
27305W        W44153   8.709   9.741  11.978 -0.1874 -0.2468 -0.4095
27306W        W44154  17.668   1.030  10.916 -0.2828  0.1733 -0.0372
27307W        W44155  14.891  10.311   0.945 -0.1011  0.0441 -0.0079
27308W        W44156   6.713  11.980  11.998 -0.1677  0.0085 -0.0536
27309W        W44157   0.835  16.809   2.508 -0.2787 -0.1335 -0.2116
27310W        W44158   6.240   8.616   2.144  0.0527  0.1672  0.1348
27311W        W44159   9.227   4.083  14.163 -0.0838 -0.4542 -0.2310
27312W        W44160  12.489   8.383  13.139  0.0276  0.1684  0.1164
27313W        W44161  12.390  17.749  10.114 -0.0574 -0.3309  0.0522
27314W        W44162  10.388  17.339  13.172 -0.0965  0.0399  0.0956
27315W        W44163   5.705   0.147   0.511  0.1191  0.2210 -0.0952
27316W        W44164  11.164   8.500   4.114 -0.2160  0.0230 -0.5112
27317W        W44165   7.336   0.162   1.654  0.0630 -0.0662 -0.2071
27318W        W44166  17.450  10.838  12.691  0.3385 -0.2114  0.0950
27319W        W44167   3.862  14.968   4.233  0.0053  0.0988 -0.1059
27320W        W44168  15.704   1.261   2.649 -0.0918 -0.0530  0.1836
27321W        W44169  17.637   7.081  13.115  0.0077 -0.1304  0.0763
27322W        W44170   9.541  17.095  13.226  0.3115 -0.0692 -0.1547
27323W        W44171   0.428  10.125  12.647  0.0934  0.1298  0.1140
27324W        W44172   6.562   4.393  16.101 -0.1686 -0.1633  0.1562
27325W        W44173  16.762   7.860  14.598 -0.0125  0.0803  0.1699
27326W        W44174  13.287   7.845  12.089  0.0724  0.0538 -0.1881
27327W        W44175   0.160   6.100  13.512  0.3527  0.0181  0.0998
27328W        W44176   3.905   6.664  15.095  0.1172 -0.0083 -0.1781
27329W        W44177   8.347   0.700  12.971  0.2390 -0.0625  0.0330
27330W        W44178  15.315   6.880   1.234  0.1918 -0.1526  0.0814
27331W        W44179   5.766   2.618   0.450  0.1989 -0.2924 -0.3319
27332W        W44180   5.642  13.692   0.084 -0.0104  0.0397  0.1412
27333W        W44181   2.503  14.523  14.129 -0.1151  0.2359  0.0234
27334W        W44182   8.782  17.111   3.693 -0.0095 -0.0780 -0.0717
27335W        W44183  11.445  12.115   5.468  0.1255 -0.1794  0.1649
27336W        W44184   0.216  10.482  14.159 -0.1341  0.0545 -0.0431
27337W        W44185   7.084  11.888  16.153  0.0499 -0.0366 -0.1621
27338W        W44186   6.270  15.268   4.949 -0.0042 -0.0408 -0.1456
27339W        W44187  10.205   8.989   0.366 -0.0821  0.1548 -0.2017
27340W        W44188  13.613  13.190  12.934  0.0615 -0.2347 -0.0668
27341W        W44189  16.169   5.405   2.448  0.0454  0.2358 -0.0467
27342W        W44190   4.584   6.405   0.177  0.2002 -0.0014  0.0595
27343W        W44191  10.544  12.622  13.934  0.0076 -0.0794  0.0654
27344W        W44192   0.610  15.239  11.529  0.1888 -0.0141  0.2573
27345W        W44193   8.160  10.561   5.599  0.2377  0.3522  0.1780
27346W        W44194  15.858  15.269   2.358  0.1623 -0.2148  0.0712
27347W        W44195   7.865   4.186  14.516  0.0408 -0.3458  0.0747
27348W        W44196  13.372   9.821  12.976  0.0446 -0.1371 -0.0391
27349W        W44197  12.754  11.402   3.389  0.2289 -0.2661 -0.1615
27350W        W44198   5.978   4.576   5.032  0.0673  0.0519  0.2239
27351W        W44199  12.972  10.068  15.635 -0.0230 -0.0916 -0.0538
27352W        W44200   4.815   7.661  12.820 -0.0607 -0.2871 -0.0526
27353W        W44201  10.680   6.754   3.997  0.0951  0.1386  0.0075
27354W        W44202   9.021  15.308   2.104 -0.3111  0.2578  0.0297
27355W        W44203  15.602  11.438  13.763 -0.2029  0.2153 -0.0685
27356W        W44204   1.313   0.409  15.362  0.0723  0.0583  0.0027
27357W        W44205  14.455   9.003   4.514  0.0182  0.1227 -0.1251
27358W        W44206   7.931  10.292   4.742  0.0224  0.0097  0.0045
27359W        W44207   4.168   2.911   3.094  0.2116 -0.0392 -0.2008
27360W        W44208   3.005   0.634   3.626 -0.1390 -0.2458  0.1120
27361W        W44209   6.684   6.463   0.110 -0.1759  0.0650  0.1662
27362W        W44210  16.257  11.326   3.398 -0.2476 -0.1053 -0.0460
27363W        W44211   3.263  15.916  12.496  0.0808 -0.0435 -0.2401
27364W        W44212   7.408   6.805   0.957 -0.0630 -0.0334 -0.1556
27365W        W44213   2.796   4.260   3.903 -0.0593 -0.2039 -0.3266
27366W        W44214   3.598   8.948   4.394 -0.1198  0.0194 -0.1242
27367W        W44215  15.976  10.350  14.804  0.3422  0.1085  0.0658
27368W        W44216   4.677   3.759   0.080 -0.0833 -0.4081  0.1518
27369W        W44217   3.411   0.153  13.410  0.1391 -0.1223 -0.0219
27370W        W44218   8.351   4.099   0.149 -0.4791  0.1230  0.0604
27371W        W44219   6.546   4.384  12.176  0.0413 -0.3411 -0.1453
27372W        W44220  15.492  10.320   2.219  0.1003 -0.1983  0.0407
27373W        W44221   7.741   4.305  16.270 -0.1669  0.2665 -0.4052
27374W        W44222  13.999  16.715  11.567  0.1833  0.2776 -0.2402
27375W        W44223   2.545  10.306  15.427  0.2945 -0.0525  0.3112
27376W        W44224   9.537  11.420  14.122 -0.0720  0.2472 -0.1559
27377W        W44225   4.700   7.004   1.376 -0.0869 -0.2429 -0.1283
27378W        W44226   1.987  14.081  11.756 -0.0357  0.2732 -0.0497
27379W        W44227  17.935   9.048   3.825  0.1425  0.0831  0.0124
27380W        W44228   6.585   9.804  11.877  0.3940  0.1920  0.1466
27381W        W44229   7.112   1.715   3.604  0.2794 -0.0386 -0.0215
27382W        W44230  15.546  11.490   4.151  0.0845 -0.1821  0.0875
27383W        W44231   1.775   6.477   5.307 -0.0414 -0.2553  0.2263
27384W        W44232  14.100   1.699  13.317 -0.0850 -0.0012 -0.1777
27385W        W44233  13.102  15.528  13.537 -0.0781  0.2727 -0.1883
27386W        W44234   1.438   2.655   2.273  0.0137 -0.1185 -0.1612
27387W        W44235  12.938  11.851   4.337  0.1075  0.2833  0.1070
27388W        W44236  15.479   9.862   2.228  0.0313  0.0222 -0.1197
27389W        W44237  15.530  16.193   0.122  0.3670 -0.0468  0.0509
27390W        W44238  16.516   5.714  13.065 -0.0451  0.1328 -0.1712
27391W        W44239  14.368   5.713   4.220 -0.3439 -0.0021  0.0024
27392W        W44240   8.488  10.246   1.467  0.0517  0.3065  0.1699
27393W        W44241   7.724   6.060  15.849 -0.0637  0.1681  0.1355
27394W        W44242   9.112  15.584   1.693  0.0971  0.0637  0.1892
27395W        W44243  12.081  17.121   2.977  0.1428 -0.1435  0.1214
27396W        W44244   0.305  13.100  14.162 -0.1170 -0.3021 -0.1200
27397W        W44245   9.174   2.534   0.704  0.1587  0.0331  0.1108
27398W        W44246   3.115  16.559   4.955 -0.2520 -0.0073 -0.1983
27399W        W44247   7.695   4.938  13.172  0.2111 -0.0238 -0.1945
27400W        W44248  12.796   3.867  13.581  0.1795  0.1061  0.0292
27401W        W44249   6.381  14.827   1.300 -0.0075 -0.1019 -0.1097
27402W        W44250  14.664  16.492   2.764 -0.3577  0.0200 -0.0160
27403W        W44251  17.467   6.904   4.208 -0.2505 -0.0720 -0.1008
27404W        W44252  15.456  16.718   5.630  0.2798  0.0966  0.1864
27405W        W44253  11.259  10.119  13.388 -0.0587 -0.3871  0.2727
27406W        W44254   7.860  11.804   4.618  0.0046 -0.2011 -0.0388
27407W        W44255  10.729  16.433   0.928 -0.1126  0.0136  0.0413
27408W        W44256   7.253  11.992   2.518 -0.0697  0.0417 -0.0839
27409W        W44257  15.539   1.916   3.871 -0.1167  0.1583  0.1809
27410W        W44258   5.770   2.267   1.368 -0.2635 -0.0536  0.0299
27411W        W44259  16.037  13.361  11.551 -0.1108  0.0845  0.0798
27412W        W44260   0.943  13.972  14.280  0.2631 -0.0669 -0.0246
27413W        W44261   2.650  14.887  12.868 -0.0176  0.0307 -0.0431
27414W        W44262   5.633   5.613   1.114 -0.1093 -0.2850 -0.3143
27415W        W44263  17.340  16.365   1.226 -0.2301 -0.4012 -0.1810
27416W        W44264   3.233   3.115  12.389 -0.0391  0.0530  0.0342
27417W        W44265  13.813  17.448  13.065  0.0376 -0.2236 -0.1340
27418W        W44266  11.211  18.023   3.605  0.0650  0.0944 -0.2420
27419W        W44267   3.678   8.480  15.329  0.2234  0.3388  0.0044
27420W        W44268   9.012  15.520  15.856  0.4046 -0.3231 -0.2407
27421W        W44269   0.206   8.868  12.423 -0.1360  0.1301 -0.1952
27422W        W44270   3.818  17.229   1.563  0.1025  0.0529  0.4351
27423W        W44271   9.484  14.036   2.958  0.0758  0.0064  0.0895
27424W        W44272  16.262   1.110  12.287 -0.0452 -0.0925 -0.3071
27425W        W44273   4.323  13.637  13.122 -0.2495  0.1694  0.0844
27426W        W44274   3.301   5.208   0.582 -0.1533 -0.0944  0.0209
27427W        W44275  11.440  12.383  14.299 -0.4547  0.2337 -0.2871
27428W        W44276  15.103  17.040   3.920 -0.1367  0.0523 -0.1713
27429W        W44277  17.871   8.936  14.868  0.2113  0.1209 -0.2063
27430W        W44278   7.643   1.242  11.678 -0.1093 -0.1319 -0.2072
27431W        W44279   1.790   5.640   5.362 -0.0370  0.0309 -0.0136
27432W        W44280   4.236   7.223   2.162  0.1790  0.0176  0.0181
27433W        W44281   4.164   1.321  15.833 -0.2809  0.1279 -0.1244
27434W        W44282  14.898  12.838   0.156 -0.2312 -0.1533  0.1011
27435W        W44283  13.563   7.235   1.649 -0.2482 -0.2340 -0.0498
27436W        W44284   4.560   3.429   1.826 -0.2853  0.0773 -0.0753
27437W        W44285  12.373  12.698  14.952 -0.0073  0.2791 -0.0097
27438W        W44286  16.766   2.506  15.796 -0.1079 -0.0139  0.2726
27439W        W44287   9.544  13.449  13.354  0.2605  0.1801  0.4367
27440W        W44288  11.442   1.939   4.278 -0.1435  0.1116 -0.1865
27441W        W44289   9.802   9.206   0.716  0.2503 -0.0689  0.3528
27442W        W44290   5.171  17.910  12.198 -0.3935 -0.0544 -0.2579
27443W        W44291  12.583  14.509  15.208  0.1870 -0.0449  0.1292
27444W        W44292  17.355   7.450  11.326 -0.1751  0.0559  0.1101
27445W        W44293  10.403   6.006   4.548 -0.1025  0.3219  0.0118
27446W        W44294   3.753   3.827  15.864  0.0680  0.0635  0.1856
27447W        W44295  16.195  14.845   3.733  0.3175 -0.4227 -0.1962
27448W        W44296   7.396  10.964  11.961 -0.1303  0.1564  0.1484
27449W        W44297  12.439  10.977  12.324 -0.0859  0.2985 -0.1281
27450W        W44298   6.272   3.615   1.249 -0.2791 -0.1008  0.0507
27451W        W44299   7.989  14.739   2.269 -0.4387  0.0505  0.1291
27452W        W44300   7.379  12.345   3.671 -0.0960  0.1532  0.2093
27453W        W44301   9.897   7.072   0.732  0.3004  0.0785 -0.0821
27454W        W44302  15.619  11.744  15.350 -0.0661 -0.0648  0.1244
27455W        W44303   3.335   8.626   2.461  0.2922  0.1389  0.0527
27456W        W44304  17.616  10.383  11.116  0.0651  0.0360 -0.0563
27457W        W44305  15.114  13.265  12.549 -0.0793  0.1694 -0.2064
27458W        W44306   2.989  16.992   4.750  0.0624 -0.0785  0.0172
27459W        W44307   5.847  12.769   3.389 -0.0065  0.0473 -0.0254
27460W        W44308   6.017   2.068  15.480  0.1297  0.2687  0.1182
27461W        W44309   6.844   0.729   1.074 -0.3516 -0.2088  0.1681
27462W        W44310   3.307   9.300  15.672 -0.1296 -0.0628  0.1667
27463W        W44311  15.647   8.434   5.037 -0.2726 -0.0568  0.0417
27464W        W44312  17.296   2.717  13.880 -0.1427  0.0756  0.2047
27465W        W44313  16.326  15.768   1.245  0.0692 -0.0757  0.2318
27466W        W44314  17.646   0.738  12.768 -0.0136 -0.0350 -0.2192
27467W        W44315  12.078  14.063  12.928  0.0161  0.1964  0.1355
27468W        W44316  13.681   9.580  16.057  0.1390 -0.1041  0.3851
27469W        W44317   7.978   6.210   3.150  0.0241 -0.0873  0.1621
27470W        W44318  11.957  11.256  12.893 -0.2013  0.1330 -0.0691
27471W        W44319  12.114  17.417   5.103 -0.3539 -0.1067  0.1102
27472W        W44320  13.968  12.542   2.272  0.0804  0.0690 -0.1095
27473W        W44321  15.897   1.931  12.123 -0.2910 -0.3650  0.2803
27474W        W44322   5.233   4.238  13.579  0.1708 -0.3043  0.2816
27475W        W44323  11.337   2.466  13.479  0.0083 -0.2666  0.0755
27476W        W44324  12.148  11.976   2.196 -0.0033  0.2401  0.2162
27477W        W44325   0.493   5.948  11.720 -0.3587  0.1449  0.0802
27478W        W44326   1.357  13.998  15.571 -0.3077  0.3267  0.0535
27479W        W44327   3.287   1.159  15.404  0.0865  0.1029 -0.0572
27480W        W44328  11.430  16.416   4.107 -0.0360  0.1799 -0.0131
27481W        W44329  10.142   1.360  14.958  0.1446  0.2225  0.4563
27482W        W44330  10.258   6.327  13.221  0.0305 -0.1379  0.0305
27483W        W44331  11.404  11.690  11.509  0.1015  0.0285  0.0491
27484W        W44332  17.693  10.968  14.850  0.1124 -0.1789 -0.2633
27485W        W44333  15.293   2.710  12.368  0.2292  0.0755 -0.2645
27486W        W44334  11.885   5.293   1.500  0.1928  0.0604  0.1940
27487W        W44335   5.424  11.208   2.406 -0.2349  0.2626  0.0456
27488W        W44336  11.269   2.485  12.973  0.0390  0.1458  0.0222
27489W        W44337   6.823   2.172  12.128 -0.0363  0.0908  0.0003
27490W        W44338  17.081   6.427   1.459 -0.1901 -0.0887  0.1766
27491W        W44339  14.975  10.129   1.993 -0.0854  0.1091 -0.2951
27492W        W44340  14.271   4.786   3.336  0.3516  0.0135  0.1498
27493W        W44341   8.602   6.863  12.344 -0.0092  0.1342  0.2800
27494W        W44342   7.244   0.289  11.794  0.1087  0.1864 -0.2259
27495W        W44343  17.341   1.930   0.803 -0.1182  0.3585 -0.0182
27496W        W44344  17.893   5.607   1.236 -0.1294 -0.0815 -0.2583
27497W        W44345   3.169  11.461   1.967 -0.0166 -0.2219  0.3992
27498W        W44346  13.554   4.734   4.098  0.1564 -0.4283 -0.0582
27499W        W44347  16.918   9.072  16.013  0.1693 -0.0893 -0.0315
27500W        W44348  15.382   5.030   1.458  0.2198  0.0401 -0.4295
27501W        W44349  13.516  13.701   2.481 -0.0088  0.1406 -0.0761
27502W        W44350  13.623  11.061   0.511 -0.1839  0.2718 -0.4833
27503W        W44351   2.996   9.232  16.064  0.0230  0.1401 -0.2617
27504W        W44352   2.969  13.540   4.948  0.0150  0.2136  0.0005
27505W        W44353  16.621  11.409   4.523 -0.2005  0.5453  0.3881
27506W        W44354  16.846  16.545  14.053 -0.1718 -0.0543  0.0360
27507W        W44355  10.729  17.533   0.593  0.0757 -0.2633 -0.3364
27508W        W44356   1.346  14.124  11.582  0.2112  0.3129  0.1473
27509W        W44357  17.851   5.756   4.135  0.0435  0.1229 -0.2857
27510W        W44358   8.394  16.638  15.450  0.0120  0.1068 -0.3644
27511W        W44359  12.711   0.032  12.364  0.1361 -0.4168  0.1646
27512W        W44360   2.719  15.647   0.600 -0.1324  0.2776 -0.0219
27513W        W44361  14.632  16.472   0.911  0.1342  0.0262  0.1486
27514W        W44362  13.610   2.094  12.940  0.1234 -0.0719  0.0675
27515W        W44363  16.142   8.490   4.836  0.1980  0.0355  0.0548
27516W        W44364  16.327   3.871   4.051  0.1559 -0.0497  0.0842
27517W        W44365  17.441  14.631   4.591 -0.0591 -0.0793  0.0173
27518W        W44366  11.797   2.526  14.428 -0.1132 -0.3775  0.2481
27519W        W44367  16.480   5.913  13.610  0.2994  0.1734  0.1568
27520W        W44368  16.543   9.494  10.245  0.2732 -0.1012 -0.1188
27521W        W44369  15.324  11.407  16.072  0.1864  0.2318  0.2507
27522W        W44370   8.808   6.681   4.469 -0.2218  0.1846 -0.3123
27523W        W44371   0.988   7.456   4.377  0.1248 -0.0244  0.0294
27524W        W44372   4.200   5.167   4.264 -0.1560  0.1810  0.0959
27525W        W44373  16.852   6.075   2.453 -0.2885 -0.0142 -0.0205
27526W        W44374   4.567  11.316   4.259 -0.1667 -0.1071  0.0701
27527W        W44375  16.149   0.954  14.996  0.0712 -0.2236 -0.3426
27528W        W44376   4.949   1.816  14.209  0.0871 -0.1812  0.0104
27529W        W44377   3.518  13.249   3.775 -0.0727  0.1932 -0.1000
27530W        W44378  12.476   9.673  12.332 -0.2383  0.2889 -0.3421
27531W        W44379  13.194  17.288   3.413  0.1518 -0.1420  0.1087
27532W        W44380   2.271  16.898   3.598 -0.1626  0.4218 -0.2179
27533W        W44381   1.671   0.948   3.972 -0.0960  0.0927 -0.2562
27534W        W44382   2.912   7.089  13.532  0.0237 -0.3466 -0.2589
27535W        W44383  17.558   1.420  12.084 -0.1081 -0.0011 -0.0196
27536W        W44384  17.721  11.319   0.650 -0.1736  0.0175 -0.0458
27537W        W44385  13.755   3.343   1.121 -0.3422  0.0284  0.4780
27538W        W44386  12.451   8.598   1.761 -0.1511  0.0982 -0.0732
27539W        W44387  12.330   6.109   3.679 -0.2780  0.0044  0.0539
27540W        W44388  16.425  16.648   2.241 -0.0420  0.4555 -0.3108
27541W        W44389  14.496   4.464  13.155 -0.0621 -0.2892 -0.1912
27542W        W44390   6.557  17.858  13.764 -0.0554 -0.1894  0.0165
27543W        W44391  17.320   3.497  11.878  0.0832 -0.0977 -0.1157
27544W        W44392  15.114   2.293  13.868  0.0555  0.0836 -0.1400
27545W        W44393  14.459   5.305   1.320 -0.0227  0.0805 -0.2164
27546W        W44394   3.835   7.895   4.392 -0.2072  0.1568  0.1879
27547W        W44395   5.692  17.184   2.728 -0.0676  0.0887  0.1045
27548W        W44396   0.823  11.175   0.884  0.0321  0.1352  0.1918
27549W        W44397  11.744  16.711   5.113 -0.3561 -0.0429 -0.3833
27550W        W44398   2.840  16.699   1.129  0.0379 -0.0242 -0.0200
27551W        W44399  15.563  10.563  13.975  0.1192 -0.1005 -0.2473
27552W        W44400  14.259  10.267  14.431  0.1509 -0.4183 -0.0289
27553W        W44401  11.544   6.483   4.298  0.2371 -0.0217 -0.1811
27554W        W44402   3.521  11.117  11.805 -0.1231 -0.0549  0.1285
27555W        W44403  11.607  13.746   0.419  0.0481  0.2546 -0.1025
27556W        W44404   5.730   0.964   0.879 -0.1974 -0.1811 -0.0460
27557W        W44405  14.105  15.139  14.715  0.1034 -0.0219  0.1875
27558W        W44406  12.801   3.606   5.568  0.2447  0.1041 -0.0347
27559W        W44407  14.945   5.458   4.665  0.1185 -0.2497 -0.3027
27560W        W44408  15.876   0.854  11.510  0.2533 -0.0051  0.0921
27561W        W44409  11.323   8.268   6.071 -0.2382  0.1082 -0.3761
27562W        W44410  16.045  14.437   4.858  0.0135 -0.0465 -0.0049
27563W        W44411   6.078   0.981  16.256 -0.1626  0.1036 -0.1431
27564W        W44412  17.280   8.349   0.632 -0.1044  0.1538 -0.0257
27565W        W44413  17.063  13.232  12.960  0.2735 -0.0498  0.2772
27566W        W44414   1.633   4.001   3.953  0.1646  0.3823 -0.0805
27567W        W44415   3.708  16.456   1.434 -0.3695 -0.3614  0.1301
27568W        W44416  13.351   4.632   1.673  0.1345  0.2363  0.1915
27569W        W44417  16.809   1.836  14.059 -0.0330  0.2214  0.0591
27570W        W44418   8.800  16.752   4.482 -0.2860 -0.2759  0.0908
27571W        W44419   9.862  12.018   3.411  0.2499 -0.0146 -0.0941
27572W        W44420   0.385   5.752   1.138 -0.3955 -0.0408 -0.0483
27573W        W44421  14.561   6.511   0.079  0.1561  0.1378 -0.0898
27574W        W44422   2.849   8.084  15.787 -0.1374 -0.0184  0.1073
27575W        W44423  12.967   5.233   1.208 -0.0788 -0.2655 -0.2649
27576W        W44424   4.836   9.379  14.219 -0.0039 -0.0140  0.2053
27577W        W44425   8.476  11.312  15.385  0.0499 -0.1429  0.1124
27578W        W44426   5.151   5.184   5.889 -0.1396 -0.0291  0.2037
27579W        W44427  14.323   3.221   3.179  0.2673 -0.0208 -0.1104
27580W        W44428  15.155   8.660   0.862 -0.0640  0.0523  0.0475
27581W        W44429  10.266   9.484   1.327 -0.3317  0.1117 -0.0492
27582W        W44430  13.278  17.941   3.108  0.0272  0.0342  0.0058
27583W        W44431   5.041   9.685   2.472 -0.0107 -0.0129  0.1078
27584W        W44432  18.039  12.332  12.578 -0.1458 -0.0823  0.0818
27585W        W44433   7.097  13.743   0.716 -0.3892  0.1854 -0.1111
27586W        W44434   0.567   1.417  11.101 -0.0420  0.0388 -0.0171
27587W        W44435  10.341   0.938   5.076  0.2201 -0.4508 -0.1016
27588W        W44436  15.576  13.417  12.429  0.2483  0.0120 -0.1724
27589W        W44437   9.466   6.224  13.808  0.1639 -0.2172 -0.1622
27590W        W44438  14.598  15.376  15.418 -0.1113  0.0554 -0.0035
27591W        W44439   9.367   6.744   0.892 -0.0401 -0.3526 -0.0601
27592W        W44440  10.100  13.530  15.648  0.1844 -0.1374  0.0658
27593W        W44441  17.901  14.748  11.945  0.3272  0.1481  0.0791
27594W        W44442  13.945  17.027  12.077 -0.0291  0.3898  0.0968
27595W        W44443  13.711   4.189   4.458  0.0362  0.0730  0.3411
27596W        W44444   9.156  11.360   1.298 -0.0849 -0.2271  0.1322
27597W        W44445  15.760   7.840   0.523 -0.2193 -0.1202  0.2201
27598W        W44446   4.993   2.037   0.259 -0.0478  0.2477 -0.2869
27599W        W44447   3.875   2.272   3.903  0.0036  0.0749  0.1093
27600W        W44448   4.895   6.589  15.521 -0.0503  0.0548  0.3363
27601W        W44449   0.601   0.717   0.980 -0.1965  0.3794 -0.0493
27602W        W44450   2.799  15.116   3.413  0.0088 -0.2523 -0.2789
27603W        W44451   2.857   9.459  15.671 -0.4388  0.1065 -0.1394
27604W        W44452  16.288  12.334  12.445 -0.0274 -0.1316 -0.1485
27605W        W44453  12.251   7.299  11.686  0.1439 -0.0682 -0.2100
27606W        W44454   3.013  16.431   2.979  0.0433  0.0823  0.2188
27607W        W44455   7.905   8.625   1.308  0.0584  0.3008 -0.1753
27608W        W44456  16.321   0.460  15.818  0.2077  0.1841 -0.1146
27609W        W44457  14.788   3.181  15.665 -0.0295  0.0734 -0.0808
27610W        W44458   1.905  13.964  12.774 -0.1277 -0.1433 -0.1598
27611W        W44459   6.112   5.675   0.929 -0.2621  0.0839 -0.4728
27612W        W44460   3.724   0.908   0.486 -0.1286  0.0394 -0.2788
27613W        W44461   3.741  17.542   0.147  0.0130  0.1659  0.0965
27614W        W44462   1.345  10.128  12.747  0.0436 -0.3393  0.0595
27615W        W44463   2.709  10.032  13.982  0.2330  0.0570 -0.0410
27616W        W44464  10.828  12.793   4.797 -0.0481  0.3436  0.1380
27617W        W44465  10.317  17.699   5.004 -0.1256  0.2337 -0.0602
27618W        W44466  15.416   2.034   0.026 -0.2771  0.3451 -0.3693
27619W        W44467   9.681   2.455  12.105 -0.3156  0.1008 -0.2063
27620W        W44468  12.843   5.518  14.583 -0.0413 -0.0818 -0.0628
27621W        W44469   2.243  12.763   2.932 -0.1750  0.1470  0.2332
27622W        W44470  17.068  12.565   3.974 -0.1817  0.0414 -0.1176
27623W        W44471   6.204   8.381   4.686  0.0399 -0.0269  0.0800
27624W        W44472  17.512  15.699   0.026  0.0216 -0.0186 -0.1838
27625W        W44473  16.125   6.477   2.680 -0.0481  0.1368 -0.3093
27626W        W44474   1.528  15.003  12.684 -0.0877  0.3140  0.0115
27627W        W44475   7.770  17.038  15.242 -0.3760 -0.1896 -0.2009
27628W        W44476   5.975  17.663  13.556  0.1378  0.3045  0.0174
27629W        W44477   4.295   4.519  13.129  0.1596 -0.1114  0.0263
27630W        W44478   8.776   3.861   0.650 -0.0821 -0.1833 -0.1492
27631W        W44479   4.674  12.851   5.034 -0.2982 -0.0566  0.1214
27632W        W44480  17.207   8.997  12.945  0.0629  0.0829 -0.3021
27633W        W44481   7.016   8.278  15.545 -0.0269  0.2612 -0.0828
27634W        W44482   3.161  10.757  11.043 -0.0148  0.0315 -0.1169
27635W        W44483  11.266  15.753  16.000  0.1384 -0.0622  0.1728
27636W        W44484   1.421   9.350   1.053  0.0426  0.0486  0.0220
27637W        W44485   5.289  11.723   5.403 -0.0280 -0.1478  0.0812
27638W        W44486  15.143   7.925  10.886 -0.1723  0.1771 -0.2777
27639W        W44487   1.256   5.181   0.526 -0.2005 -0.0322  0.1063
27640W        W44488  13.025   9.374   3.285 -0.0744 -0.1674  0.3366
27641W        W44489  16.834   4.390   3.971 -0.4124 -0.2966 -0.1257
27642W        W44490  11.674  15.985   2.423 -0.1582 -0.3073 -0.2968
27643W        W44491   0.538  14.917   0.232 -0.1363  0.0265 -0.0189
27644W        W44492   4.848   1.401   5.707 -0.1608 -0.0157 -0.0355
27645W        W44493   2.150   4.081  12.697  0.1278 -0.1448 -0.0149
27646W        W44494   1.172  17.259   4.166 -0.0951 -0.0149 -0.3402
27647W        W44495  16.862   3.004   2.949  0.2245  0.3299 -0.0514
27648W        W44496   3.583  11.868   0.562 -0.0536 -0.0305 -0.0577
27649W        W44497   6.112  16.915  14.949 -0.2954  0.2407 -0.0453
27650W        W44498   9.139  10.713  12.530 -0.0909 -0.1689 -0.1247
27651W        W44499  17.803   6.776   1.045  0.0540 -0.0489  0.1165
27652W        W44500  10.742   5.592   4.695  0.0552 -0.0374  0.2475
27653W        W44501   8.425  11.200  16.026 -0.2068 -0.3183  0.1289
27654W        W44502  16.415   1.750  11.395 -0.2830 -0.1384  0.0743
27655W        W44503   8.152   7.071  16.053  0.2806  0.1843  0.1270
27656W        W44504  11.045   6.272  14.956  0.0908 -0.0229  0.0362
27657W        W44505   2.462   6.168  12.047  0.3287 -0.0326 -0.3169
27658W        W44506   0.266  16.422  15.906 -0.0498 -0.0539  0.0974
27659W        W44507   6.191   4.038  16.124  0.2041 -0.3735  0.2130
27660W        W44508   4.038  14.183  13.235  0.0885  0.1624  0.1867
27661W        W44509  13.475  15.942  11.409 -0.0177 -0.0318 -0.1541
27662W        W44510   2.225   4.081  13.626 -0.1404  0.1037 -0.1031
27663W        W44511  13.425   2.581  12.924 -0.0319  0.1124  0.0605
27664W        W44512   5.677   2.822   3.614  0.0666 -0.0924  0.0119
27665W        W44513   6.543  17.436   3.139  0.1792 -0.0967  0.0731
27666W        W44514  17.181   2.722   4.327 -0.1184 -0.2196  0.0047
27667W        W44515  11.012  16.657  14.393  0.0679  0.0353 -0.2924
27668W        W44516  10.495  11.205  14.832  0.0487 -0.1361 -0.0416
27669W        W44517  17.176   0.780   6.003  0.4005 -0.1463  0.1836
27670W        W44518   1.419  13.229  14.882 -0.0265 -0.0423  0.0668
27671W        W44519   0.184   8.017   4.769  0.0069 -0.1584 -0.1045
27672W        W44520   7.773  12.228   4.075  0.4940 -0.0381 -0.2101
27673W        W44521  17.144  10.030   3.463 -0.4269 -0.2932 -0.1791
27674W        W44522   8.215   6.052   0.995  0.1567 -0.0682  0.4625
27675W        W44523   9.687   7.011   1.268  0.3467  0.1353  0.1498
27676W        W44524   5.228   9.167  11.206  0.2293  0.2649  0.1854
27677W        W44525  15.848   6.959   0.088  0.0741 -0.0452  0.1230
27678W        W44526   2.777   2.958  14.233 -0.3416  0.1043 -0.2534
27679W        W44527   4.559   7.589   2.292  0.0962  0.0535 -0.1078
27680W        W44528   2.098   8.135   4.647 -0.0533 -0.0762  0.0133
27681W        W44529  13.050   9.189   1.412  0.0092 -0.0094 -0.4820
27682W        W44530   9.992   1.446   2.189  0.1276 -0.0029 -0.0398
27683W        W44531  15.713   4.776   4.486 -0.1603  0.0090  0.1833
27684W        W44532  17.474   9.867   0.589  0.2250  0.1215 -0.0405
27685W        W44533  10.091   4.534   2.127 -0.2700 -0.0165 -0.0169
27686W        W44534  12.469  10.151  15.920  0.0248  0.1987 -0.2411
27687W        W44535   9.628   4.471  12.723  0.2102  0.3075  0.1113
27688W        W44536  10.722  15.734  12.996 -0.0228  0.0373  0.0181
27689W        W44537   6.189   6.197   3.303 -0.0024  0.1926 -0.0024
27690W        W44538   4.112  17.698  13.041  0.3704  0.1124  0.0431
27691W        W44539   2.796   3.967  11.163  0.3784  0.4162 -0.3113
27692W        W44540  12.145  12.964   1.339  0.0416 -0.0469  0.0395
27693W        W44541   7.510  15.728   0.217 -0.0177 -0.1597 -0.1860
27694W        W44542  16.159   0.648  14.409 -0.1021 -0.0106  0.1850
27695W        W44543   4.704   0.229  15.627 -0.1853  0.1247  0.0911
27696W        W44544   5.617  13.366  11.934 -0.1084 -0.1969 -0.3477
27697W        W44545   8.804   0.170   4.865 -0.2081  0.1352  0.2055
27698W        W44546  15.987  17.501   1.451  0.1067 -0.3421 -0.1841
27699W        W44547   1.078   3.375   5.928  0.1986 -0.0007  0.1120
27700W        W44548   2.986  17.487   3.965 -0.0574  0.1997 -0.1860
27701W        W44549  12.645   0.820  12.552  0.0236 -0.1452  0.2316
27702W        W44550  17.195  12.758   3.440  0.0845  0.1320 -0.2427
27703W        W44551  18.020   2.543   2.495 -0.1920  0.1112 -0.2474
27704W        W44552  15.938  17.080   1.048 -0.1786  0.1845 -0.0567
27705W        W44553  15.094  16.684  11.499 -0.0092 -0.3664 -0.0295
27706W        W44554   4.839   8.412   2.614  0.0341  0.2413 -0.0303
27707W        W44555   7.081   9.696  11.097  0.1224 -0.1181 -0.0844
27708W        W44556   1.048  16.949   0.569 -0.1256  0.1069 -0.1883
27709W        W44557   5.768   1.669  13.848  0.3084 -0.0923 -0.2179
27710W        W44558   6.911   2.206   3.519  0.0601 -0.2972 -0.2031
27711W        W44559  14.449   4.076  14.619 -0.2049 -0.0228  0.0459
27712W        W44560  13.996   2.995   5.265 -0.0312 -0.3381  0.0058
27713W        W44561  16.556   0.599  12.349  0.1331  0.2573 -0.1627
27714W        W44562  15.273   5.828   0.683  0.0479  0.2525 -0.1292
27715W        W44563  17.698   6.792  14.797 -0.0571 -0.1710  0.0007
27716W        W44564   0.704   0.430  11.221 -0.0414  0.0529 -0.0765
27717W        W44565  13.216  17.412   0.049 -0.2286  0.0520 -0.0620
27718W        W44566  13.684   2.642   5.204 -0.3980 -0.1533  0.1130
27719W        W44567  16.417  13.869  12.639  0.0513 -0.0959 -0.0675
27720W        W44568   9.583   6.284  14.779 -0.0870  0.1465 -0.1780
27721W        W44569  10.010  13.462  14.616  0.2924  0.0923 -0.2620
27722W        W44570   2.989   8.138   5.403 -0.1643  0.3198  0.0074
27723W        W44571   4.043   8.514  10.419 -0.1916  0.2012 -0.3714
27724W        W44572  16.076   2.256   0.295 -0.1355  0.1887 -0.2428
27725W        W44573  17.059   7.503   2.657  0.4563  0.0057 -0.1569
27726W        W44574   5.351   2.533   4.418  0.0134  0.3123  0.2461
27727W        W44575   6.261  17.503   5.484  0.1161 -0.1069 -0.0767
27728W        W44576   7.047   8.074   2.489  0.6147 -0.0041  0.1800
27729W        W44577  16.490   2.106   5.523  0.0820 -0.0744  0.0883
27730W        W44578   0.387   4.356  11.729 -0.0914  0.1022  0.1331
27731W        W44579   5.944  13.484  14.965  0.0375 -0.4229  0.0839
27732W        W44580  12.006   5.684  15.224 -0.2900 -0.0055  0.0318
27733W        W44581   2.364   7.885   0.776  0.1438  0.1388 -0.0432
27734W        W44582  12.199   9.649  11.069 -0.1927  0.0841 -0.1213
27735W        W44583   5.672   9.591   6.194 -0.0371 -0.0231 -0.1932
27736W        W44584  10.375   7.942   3.921  0.0720 -0.1867  0.1432
27737W        W44585  14.976  14.713  15.616  0.1422  0.1687 -0.0552
27738W        W44586   9.621  17.962  13.462  0.2699 -0.3193 -0.1938
27739W        W44587  17.301   6.675   3.715  0.1815 -0.1992 -0.2673
27740W        W44588   5.737  15.906   0.588 -0.1037  0.0725 -0.0132
27741W        W44589  16.304  12.546  13.823  0.3966 -0.0174  0.3079
27742W        W44590   7.527  12.822   2.462 -0.0824 -0.2981 -0.1308
27743W        W44591  12.228   2.915   3.375 -0.0180  0.1747 -0.1796
27744W        W44592   2.507  15.445   3.628 -0.2897  0.0178  0.1587
27745W        W44593   2.646  14.132   4.436  0.2101  0.1825  0.2361
27746W        W44594   9.958  10.221  12.121 -0.1894 -0.0619 -0.0770
27747W        W44595  17.555   0.712  11.304 -0.0222 -0.2987 -0.0551
27748W        W44596   3.100  16.985   4.118  0.1854 -0.0273 -0.2861
27749W        W44597  10.757   8.366  13.633 -0.0953  0.1535  0.0408
27750W        W44598   1.635  17.999   3.024  0.0130 -0.6318  0.3054
27751W        W44599   0.171   1.535  13.665  0.0857  0.0528 -0.2243
27752W        W44600  15.095   9.856  14.323 -0.0725 -0.1479 -0.0876
27753W        W44601  10.755  13.922  12.024  0.1522 -0.1998 -0.0028
27754W        W44602  13.794  15.835   0.311  0.2829  0.1634  0.1329
27755W        W44603   4.242   5.754   4.341 -0.4674 -0.1566  0.0049
27756W        W44604  13.816   5.460   2.996  0.2198  0.1524 -0.1275
27757W        W44605  17.643   7.143   5.499 -0.2529  0.3885  0.1364
27758W        W44606   9.312   7.954  13.224  0.0564 -0.0540  0.0569
27759W        W44607   9.572  15.404   3.101 -0.0096  0.4048  0.0849
27760W        W44608   2.032   7.871  11.665 -0.1410 -0.1612 -0.0476
27761W        W44609  16.880   6.941  12.044  0.1542  0.1477  0.1616
27762W        W44610   9.851   7.227   3.567  0.0567  0.2771  0.0183
27763W        W44611  12.924  11.171  14.336  0.0218 -0.0718  0.0027
27764W        W44612   8.275  12.643  15.187 -0.2189 -0.1544  0.0726
27765W        W44613  11.020  12.320  13.920  0.1282 -0.0057 -0.0101
27766W        W44614  13.298  10.458   2.092  0.0193 -0.4083 -0.0490
27767W        W44615   1.316  13.124  12.922  0.0377  0.3029  0.1692
27768W        W44616  15.939  12.676  12.606 -0.2835  0.1655  0.0952
27769W        W44617  13.781   1.941  15.519 -0.1640 -0.2320  0.1387
27770W        W44618  15.284   2.344   5.153  0.0860 -0.0847 -0.0382
27771W        W44619  10.494  12.101   2.895  0.1153 -0.1117  0.0128
27772W        W44620   4.021  17.147  12.446  0.0523 -0.1612 -0.0133
27773W        W44621   4.580  14.282   3.752 -0.3045 -0.0974 -0.2417
27774W        W44622   0.347   4.314  16.272 -0.0411 -0.1811  0.0577
27775W        W44623   1.396  11.117   1.860 -0.0155  0.0113  0.0920
27776W        W44624  14.020  17.892   1.575 -0.0154 -0.0613  0.1655
27777W        W44625   5.719  10.444  13.520 -0.0478 -0.0547  0.1563
27778W        W44626  10.243  14.183  12.864  0.1254 -0.0127 -0.0291
27779W        W44627   3.897  10.299  11.654 -0.0186  0.0265 -0.0546
27780W        W44628  12.465  15.071  13.168 -0.3320 -0.1921 -0.1670
27781W        W44629  15.641   0.855   1.394  0.1381 -0.2284 -0.1685
27782W        W44630   7.991   0.363   4.373 -0.0314 -0.0814  0.2328
27783W        W44631   5.031   1.074   0.027 -0.0240 -0.1431 -0.0258
27784W        W44632   1.586  13.970  15.992  0.1318  0.1690  0.2280
27785W        W44633  11.288   5.324  11.340  0.2385 -0.2950  0.0176
27786W        W44634  10.609   2.001   4.805 -0.2398 -0.0631 -0.2073
27787W        W44635  16.926   3.340  14.575  0.0896  0.0552  0.0050
27788W        W44636   3.847   6.646   5.340  0.1618  0.1753 -0.1390
27789W        W44637   6.931   5.529  14.100 -0.0031 -0.2422  0.3038
27790W        W44638  12.055   0.790   3.613 -0.0526 -0.1303  0.0181
27791W        W44639   7.922   1.362   4.337  0.1663 -0.0104  0.2220
27792W        W44640  17.512   0.538  14.999  0.1831  0.1387  0.2172
27793W        W44641  17.150  11.798  14.943  0.2156 -0.2590  0.0536
27794W        W44642   4.394   4.964  13.363 -0.1948  0.0433 -0.2652
27795W        W44643  11.475   8.834   0.523  0.0522  0.1605 -0.3674
27796W        W44644   0.102   4.568   3.512 -0.2181 -0.1136  0.0813
27797W        W44645   7.810  17.678  15.679  0.1014 -0.1461 -0.0692
27798W        W44646   3.200  12.751   0.138 -0.0603 -0.0989 -0.0025
27799W        W44647  16.779   5.661  13.912  0.2946  0.0743  0.0082
27800W        W44648   8.528  16.258   4.206  0.2430 -0.0843 -0.3454
27801W        W44649   3.029  17.027   0.016  0.0068  0.0320  0.2616
27802W        W44650   3.180  10.079   4.367 -0.1009  0.0802 -0.3682
27803W        W44651  16.380   7.560  11.623  0.1491 -0.0278 -0.1414
27804W        W44652   2.128  16.656   5.066  0.0392  0.3461  0.1279
27805W        W44653  17.861   7.945   3.046  0.0284 -0.0578  0.2174
27806W        W44654   1.756  10.095  13.885  0.0038  0.1512 -0.0639
27807W        W44655   8.094   7.070   2.814 -0.3226  0.1301 -0.0936
27808W        W44656   7.296  12.289   1.308  0.1236  0.1176 -0.2383
27809W        W44657  17.908   4.372   2.300  0.4497 -0.1005 -0.2342
27810W        W44658   9.384  15.589  15.334 -0.0651  0.1320 -0.0566
27811W        W44659   0.528   9.236  15.319  0.0059  0.2639 -0.3688
27812W        W44660  10.686  13.853   3.420 -0.4377 -0.1096  0.2247
27813W        W44661  15.236   4.730  12.712 -0.1390 -0.1057  0.1223
27814W        W44662  12.956   5.111  14.892  0.2280 -0.3170  0.4990
27815W        W44663  13.565   0.186  11.716  0.2849 -0.3191  0.1113
27816W        W44664   6.066   6.099   0.742  0.0526  0.0548 -0.1247
27817W        W44665   0.236   4.245  15.343  0.0215  0.0179  0.0879
27818W        W44666   4.717  13.606   2.436  0.0914  0.0375 -0.0199
27819W        W44667  12.476   9.737  13.763  0.0204  0.1711 -0.3928
27820W        W44668  11.683   0.193   5.082 -0.0371 -0.2108 -0.1633
27821W        W44669  12.729  14.187  15.644  0.0178 -0.2415  0.0093
27822W        W44670   0.704   3.242   3.989 -0.1985  0.1199  0.2560
27823W        W44671   3.762  17.194  10.787  0.1556  0.1195 -0.0491
27824W        W44672   7.471  11.061  14.365 -0.0607  0.1549 -0.0695
27825W        W44673  12.054   3.442  12.122  0.3123  0.0681  0.2207
27826W        W44674   9.718   3.995   5.794  0.0506 -0.2425 -0.1114
27827W        W44675   7.097   0.563  14.022 -0.1395 -0.1410  0.2612
27828W        W44676   3.932   8.623  16.165  0.0073  0.1005  0.3184
27829W        W44677  14.543   3.068   5.284 -0.0572  0.0570 -0.5956
27830W        W44678   9.549   2.155   0.407  0.0453 -0.1066  0.0249
27831W        W44679  17.251   9.016  15.310 -0.1335  0.2086 -0.0714
27832W        W44680   9.469  15.908  12.660  0.2000 -0.0236 -0.0671
27833W        W44681   5.119  16.328   2.541 -0.0676 -0.0682  0.3524
27834W        W44682  16.824  13.169  16.092 -0.1833  0.0549 -0.0284
27835W        W44683   1.062   9.455  15.387  0.3096 -0.1612  0.1813
27836W        W44684  16.898   8.515   5.683 -0.2785  0.0161 -0.0749
27837W        W44685   3.371  13.664  13.381  0.0990  0.4655 -0.4267
27838W        W44686   4.108  13.050  15.054 -0.1298  0.2485 -0.0727
27839W        W44687  17.461  15.982   1.724 -0.0830 -0.2716 -0.2366
27840W        W44688   6.866  11.610   3.724 -0.0485  0.0708 -0.3569
27841W        W44689  13.129  14.849   3.707  0.1229 -0.1699  0.0290
27842W        W44690   3.636  12.830   2.306  0.2117  0.1332  0.2979
27843W        W44691  17.665   9.200   4.235  0.2426 -0.0432 -0.0506
27844W        W44692  13.801   6.538  14.361  0.0384  0.1523 -0.2686
27845W        W44693  12.056  13.532  11.569  0.0676 -0.2056 -0.0907
27846W        W44694   1.543   8.487  13.080  0.1705  0.3077 -0.0644
27847W        W44695   3.339  11.004   0.130  0.0660 -0.1833  0.2831
27848W        W44696  13.274   1.078   2.623 -0.1056 -0.0312  0.0610
27849W        W44697   8.636  12.644  10.914  0.0298  0.1080  0.2622
27850W        W44698   9.286   2.472  15.315 -0.0111 -0.0847 -0.0110
27851W        W44699  12.974  11.534  12.082 -0.0672  0.2102  0.3006
27852W        W44700   4.229   5.235   3.103 -0.1817  0.1899 -0.2006
27853W        W44701   0.415  11.750   1.934 -0.1990  0.0472 -0.1024
27854W        W44702  10.787  17.131  14.039  0.5866 -0.1382  0.3363
27855W        W44703   8.321   6.508   2.890 -0.2445  0.0909 -0.1621
27856W        W44704   9.367  11.823  13.822  0.0520  0.1377  0.1791
27857W        W44705   5.713  14.999   1.938 -0.1672  0.0240  0.0435
27858W        W44706   6.978   4.876   4.993 -0.2123 -0.2058 -0.1954
27859W        W44707  11.246   7.954   1.680  0.1754 -0.0395 -0.1561
27860W        W44708  13.244  17.915  11.474  0.1218  0.1328 -0.1010
27861W        W44709  13.658   3.534   0.625  0.1939 -0.2987  0.0070
27862W        W44710   9.130   7.462   0.102  0.1699 -0.0571 -0.0014
27863W        W44711   8.025   3.765  15.444 -0.0142 -0.2867  0.2206
27864W        W44712   2.211  14.313  15.052 -0.0776  0.1140  0.1635
27865W        W44713   3.236   9.118   2.629  0.0481  0.0995  0.1154
27866W        W44714   7.934   3.934  12.927  0.0983  0.0613 -0.0481
27867W        W44715  15.261   2.271  11.305  0.0677 -0.0756  0.1981
27868W        W44716   4.248  12.954   1.220 -0.1187  0.1781  0.2968
27869W        W44717  13.923  11.244  12.635  0.0991  0.0798 -0.2054
27870W        W44718   2.193  10.728  14.855  0.1294 -0.0209  0.2987
27871W        W44719   7.051   6.014  13.257  0.3885 -0.2936  0.1464
27872W        W44720   7.740  16.721  12.411  0.2361 -0.1567  0.2884
27873W        W44721  13.314  13.551  10.437 -0.0814 -0.1820 -0.0594
27874W        W44722  17.158  12.018   4.069 -0.4054 -0.1735  0.0963
27875W        W44723   0.425  16.780   1.796 -0.0205  0.3913  0.3141
27876W        W44724  13.559   1.962   3.503  0.0894  0.2915 -0.1762
27877W        W44725  14.880  17.420  11.028 -0.0695 -0.0735  0.3412
27878W        W44726  14.751  16.404  13.401  0.2510  0.3240 -0.1226
27879W        W44727  16.809   3.898  14.392 -0.0630  0.1251 -0.1261
27880W        W44728  14.564   0.405   3.839  0.0625 -0.1858 -0.0804
27881W        W44729  10.227  15.582  13.768  0.0545  0.4597 -0.1168
27882W        W44730  14.682  17.926  15.378  0.2720  0.0640 -0.2500
27883W        W44731   4.985   4.633   5.140  0.0559  0.2416  0.1010
27884W        W44732  14.820  16.280  12.934  0.0093 -0.1929  0.1528
27885W        W44733   9.578  17.085   1.123  0.1409 -0.0891  0.2727
27886W        W44734  11.723   8.285   3.022  0.1258 -0.1336  0.0609
27887W        W44735   8.924   2.747   0.239  0.3714  0.1104 -0.3215
27888W        W44736  12.212   3.307  13.104 -0.1111 -0.0874 -0.2077
27889W        W44737   3.723  10.226   4.159  0.0365  0.0974  0.0973
27890W        W44738  15.323  15.311   2.210 -0.1701 -0.0309  0.1195
27891W        W44739   9.557  17.199  14.086 -0.1502 -0.2605 -0.1148
27892W        W44740   7.219  16.845  15.529 -0.0503  0.0801 -0.1460
27893W        W44741   5.212   9.619  11.743  0.0704 -0.0395  0.0788
27894W        W44742  17.955   4.478   6.158 -0.0215  0.1877 -0.1917
27895W        W44743  14.024   8.686  12.070  0.1838 -0.3579  0.3070
27896W        W44744   9.195  10.692   2.185  0.2062  0.2708 -0.0670
27897W        W44745  17.554  10.707   2.871 -0.3613 -0.1702 -0.0483
27898W        W44746  11.327  15.082   0.757 -0.1605 -0.0810  0.4021
27899W        W44747   2.873   8.782   3.757  0.0193 -0.1439 -0.0920
27900W        W44748   3.834  10.910  10.757  0.0665  0.0449 -0.0482
27901W        W44749  13.717  13.026  12.488 -0.2808 -0.0451  0.0651
27902W        W44750   5.610   4.234   1.524  0.0098 -0.0363 -0.0545
27903W        W44751   8.820  10.349  13.670  0.4761 -0.1319  0.0768
27904W        W44752  13.789  11.127   1.935  0.0641  0.0562  0.3481
27905W        W44753   8.223  14.450   1.897  0.1150  0.1678 -0.1596
27906W        W44754   7.323  11.524  12.219  0.0582  0.0227 -0.3583
27907W        W44755   0.699   7.067   0.091 -0.0071  0.1877 -0.2383
27908W        W44756   4.676  12.657   0.088  0.0146 -0.1211 -0.1931
27909W        W44757   5.907  14.119   3.510  0.1869 -0.2195 -0.1908
27910W        W44758  12.487  14.724   0.860 -0.2325 -0.1965 -0.0519
27911W        W44759   0.007   6.423  15.479 -0.1534 -0.1208 -0.0045
27912W        W44760   9.975  10.188  14.297 -0.0831 -0.0300  0.1292
27913W        W44761  14.383  17.453  13.458 -0.4386 -0.3046  0.1192
27914W        W44762   3.771   1.591  13.475  0.1086 -0.0047  0.0320
27915W        W44763  17.049   4.360   3.462 -0.1564 -0.2794 -0.2151
27916W        W44764  14.059   7.125  12.586  0.2350 -0.1853 -0.1130
27917W        W44765   9.264   4.743  11.024  0.0557  0.0458 -0.0243
27918W        W44766   9.597   3.823  11.097  0.0552  0.0736  0.3950
27919W        W44767  11.217  14.615  15.564 -0.0951  0.1422  0.1759
27920W        W44768  14.866   9.126  11.670 -0.1328 -0.0502 -0.6492
27921W        W44769  12.523  12.441  12.094  0.0986  0.0070  0.0849
27922W        W44770   0.273  14.918  14.065 -0.0055 -0.0696  0.1488
27923W        W44771  15.124  11.647   3.156  0.1839  0.0253 -0.1253
27924W        W44772   7.073   8.789   3.892 -0.2377  0.0504  0.2070
27925W        W44773   7.692  12.111   5.017  0.1048 -0.2393  0.1855
27926W        W44774   4.307   1.568   2.503 -0.0643 -0.0167  0.0070
27927W        W44775  16.002  13.519   2.017 -0.2586 -0.1220  0.1000
27928W        W44776  17.361  15.235   2.753  0.2624  0.0307 -0.1033
27929W        W44777   0.009   2.649  12.379  0.2140 -0.2408  0.1403
27930W        W44778   8.986  12.710  11.895 -0.0537  0.1183 -0.1033
27931W        W44779   8.628   0.687   1.219 -0.4157  0.2823 -0.0746
27932W        W44780   1.567  17.546   4.267  0.0799 -0.0022  0.1272
27933W        W44781  11.401   6.870   0.029  0.1025 -0.3194 -0.2041
27934W        W44782  12.022   4.048   4.733 -0.3044  0.3953 -0.1885
27935W        W44783  16.288  14.577   1.042 -0.1330  0.0360  0.0215
27936W        W44784  15.991   6.145   1.507 -0.0833 -0.0959 -0.0586
27937W        W44785   0.703  13.779  13.127 -0.1691  0.1150 -0.2426
27938W        W44786  11.905  17.134   1.373 -0.2549 -0.0925 -0.1907
27939W        W44787   5.342  13.597   3.054 -0.1949  0.2896  0.0004
27940W        W44788   6.706  12.271  12.988 -0.1904 -0.0772 -0.0943
27941W        W44789   8.878  15.284  13.517  0.0524  0.2014  0.0220
27942W        W44790   5.777   0.119   2.852  0.2083 -0.0201 -0.3534
27943W        W44791  14.785  11.111  10.917 -0.0566  0.1331 -0.1260
27944W        W44792   6.408   9.561  15.477 -0.1665 -0.0002  0.0312
27945W        W44793  11.719  11.424  13.569 -0.0189 -0.1993  0.0346
27946W        W44794  10.963  15.573  10.666  0.1352  0.0189  0.3281
27947W        W44795   0.859   4.814   0.500  0.3879 -0.0814  0.1348
27948W        W44796  13.683  11.694  14.475 -0.2820 -0.2075 -0.0414
27949W        W44797  12.272  12.977  14.478  0.1694  0.0341 -0.0792
27950W        W44798   2.083   0.740  13.068  0.1875 -0.0930  0.0360
27951W        W44799  11.043  12.438   1.128 -0.0512 -0.1406 -0.0702
27952W        W44800   2.731  14.607   0.883  0.0923  0.1307 -0.1772
27953W        W44801  17.949  10.981   3.105 -0.1213 -0.2713  0.1019
27954W        W44802   7.907   2.883  11.481  0.0178  0.4171  0.0078
27955W        W44803   4.370   8.669   0.952 -0.0677 -0.1067 -0.1371
27956W        W44804   9.343   3.030   0.621 -0.6785  0.0307  0.1435
27957W        W44805   1.384   4.614  14.011 -0.2851 -0.0503  0.1395
27958W        W44806   2.580  16.261   5.090 -0.3201  0.1598 -0.0410
27959W        W44807  17.965   2.684   3.804 -0.0392 -0.1573 -0.3067
27960W        W44808   4.798   8.640  11.904 -0.0326 -0.3832 -0.0921
27961W        W44809   6.682   6.498  11.960 -0.4182 -0.0173  0.0397
27962W        W44810   3.263   7.224   1.826 -0.1592 -0.0210  0.0574
27963W        W44811   8.945   3.530  11.689 -0.2361 -0.1960  0.0669
27964W        W44812   2.924  11.592   5.974  0.0859 -0.1237 -0.2011
27965W        W44813   0.519   4.090  13.276 -0.0871 -0.1452 -0.4716
27966W        W44814   4.870  13.016   1.946  0.0599 -0.0019  0.1846
27967W        W44815  11.135  10.108  12.475 -0.0495  0.0047  0.1714
27968W        W44816   6.112  10.756  15.206 -0.0156 -0.0430 -0.1203
27969W        W44817  15.000  16.071  13.753 -0.3346  0.0149  0.0090
27970W        W44818  10.799  17.002   0.361 -0.2373 -0.0896  0.0951
27971W        W44819  14.475  15.042  11.393 -0.2770  0.1492 -0.0298
27972W        W44820  16.755   1.403  14.280  0.2068  0.2190  0.0394
27973W        W44821  13.838   2.191   3.082  0.1801 -0.1665 -0.0676
27974W        W44822   9.328   9.423   4.255 -0.1282 -0.0316  0.0610
27975W        W44823  13.603  14.785  11.272 -0.2569 -0.0285  0.2280
27976W        W44824   8.770   7.785   3.173  0.0879  0.0411 -0.0971
27977W        W44825   1.833  12.340  11.340 -0.0434  0.3319  0.2458
27978W        W44826   3.815   8.934  13.834  0.3112 -0.2196  0.1944
27979W        W44827   5.904  16.051  12.638  0.2585  0.5312 -0.2824
27980W        W44828   6.359   8.442  14.222  0.2290 -0.1003 -0.0837
27981W        W44829  15.429   0.832   4.528 -0.0995 -0.0225 -0.1169
27982W        W44830  16.257  17.784   3.491 -0.0107  0.1926 -0.2053
27983W        W44831  15.237   9.668   5.133 -0.2381 -0.0630  0.0420
27984W        W44832  17.975   9.778   0.444 -0.1404  0.3549 -0.2277
27985W        W44833  14.880  17.958   2.702 -0.0411 -0.0327 -0.1173
27986W        W44834   4.234   4.658  15.820 -0.2725  0.2677  0.0975
27987W        W44835   9.709   8.091   2.222  0.0823  0.1622 -0.1596
27988W        W44836  10.505  12.988  15.872 -0.1956 -0.0113  0.2094
27989W        W44837   6.704  14.057  14.828  0.0224  0.3982 -0.0958
27990W        W44838  17.862  10.236   0.445 -0.1201 -0.0759  0.0683
27991W        W44839  16.903  13.813  11.350 -0.4149  0.0482 -0.1161
27992W        W44840  17.516   4.216  13.203 -0.2606 -0.1574 -0.0412
27993W        W44841   9.504  16.673   1.442 -0.1157 -0.0858  0.2278
27994W        W44842   4.471   7.461   1.643  0.2724 -0.0614 -0.1172
27995W        W44843   3.948   5.556  12.105  0.0847 -0.5459 -0.0476
27996W        W44844   4.079   9.714  12.443 -0.3972  0.2530 -0.2307
27997W        W44845   2.930  15.155  15.697 -0.2206 -0.2420  0.0495
27998W        W44846  13.093   7.061  11.418  0.0916  0.1764 -0.1644
27999W        W44847  13.447  17.366  15.387 -0.1221  0.3846  0.2729
28000W        W44848  12.074  15.801  14.476 -0.0482  0.1917 -0.4585
28001W        W44849   5.172  14.144   0.172  0.2754  0.0616  0.0005
28002W        W44850  11.208  16.240   3.645  0.0520  0.0810 -0.0309
28003W        W44851   3.249   5.868  15.640 -0.0062 -0.0066  0.1505
28004W        W44852   7.367   2.900  11.941  0.3751 -0.0096 -0.2010
28005W        W44853   7.660  13.545  14.386 -0.0439 -0.0164  0.4585
28006W        W44854   3.188  12.691   3.588 -0.2003  0.1608  0.0858
28007W        W44855  10.263  10.388   0.173  0.0905  0.0380  0.0283
28008W        W44856   3.184  11.441  15.167  0.3449 -0.2722  0.4017
28009W        W44857  11.047  16.784   1.514 -0.0536 -0.2396 -0.0082
28010W        W44858  12.410  10.663   2.802 -0.1325  0.2378 -0.2176
28011W        W44859  12.799  15.489   3.010  0.0529 -0.5778  0.3856
28012W        W44860   1.439  15.123   2.829 -0.3968  0.1336 -0.1085
28013W        W44861  17.613  17.034   2.994  0.0247 -0.1118  0.0322
28014W        W44862  11.855  10.581   4.873 -0.1023 -0.0185  0.0541
28015W        W44863  16.478   6.189   1.371 -0.0152  0.0865  0.0663
28016W        W44864   9.707  13.309   4.340  0.3333 -0.0641 -0.3286
28017W        W44865  11.842   3.394  11.616 -0.1720  0.0306  0.0730
28018W        W44866   3.791   4.126   1.154 -0.0802 -0.0349  0.1158
28019W        W44867  13.145   9.893   0.646  0.3453  0.1627 -0.0017
28020W        W44868  16.224  17.447   2.295 -0.1136 -0.0415 -0.0563
28021W        W44869   2.322   5.052  11.425  0.1874 -0.0334  0.0443
28022W        W44870  11.937  10.077   0.472  0.4910  0.0086  0.1133
28023W        W44871   7.755  14.366  13.417 -0.3678 -0.2414  0.0015
28024W        W44872   2.767  12.115  14.004 -0.1097  0.0104  0.0687
28025W        W44873  12.034  14.167   4.406 -0.0052  0.2973 -0.2340
28026W        W44874   4.086   1.394  11.376  0.0476 -0.2790  0.1212
28027W        W44875   9.040  11.296  11.238  0.2356 -0.0205  0.1868
28028W        W44876  17.803  12.642  11.430  0.1089  0.1571  0.1347
28029W        W44877   8.585  14.106   1.972  0.0433  0.4374 -0.0208
28030W        W44878  10.026   2.971  12.176  0.0105 -0.2071 -0.2746
28031W        W44879  14.597   2.804   1.338 -0.0342  0.4021 -0.0247
28032W        W44880  13.478   7.180   2.538  0.1334  0.0147  0.0240
28033W        W44881  12.905   7.381   0.066 -0.2854  0.1879 -0.0439
28034W        W44882   6.137  15.835   1.574  0.0611  0.2767 -0.3652
28035W        W44883   1.858   6.644  12.432 -0.0754 -0.2002  0.3070
28036W        W44884   9.655   7.141   2.606 -0.3980 -0.0993  0.0601
28037W        W44885   7.708  16.085   5.337  0.0606  0.0465  0.3582
28038W        W44886   5.100  11.979   3.069  0.1376 -0.1063 -0.3732
28039W        W44887   8.159  12.720   4.753  0.1035  0.1468 -0.0087
28040W        W44888   3.242   0.449  13.029  0.0968 -0.1301 -0.0885
28041W        W44889   2.665   8.079  13.461  0.1505 -0.1863 -0.1985
28042W        W44890   5.134   6.823   1.780  0.1635 -0.1473  0.2554
28043W        W44891   3.726  12.190  14.902 -0.0113 -0.0230  0.1664
28044W        W44892   1.313  11.818  15.216  0.1920 -0.0860 -0.0264
28045W        W44893   2.237   6.831  12.773  0.3131  0.0959 -0.0219
28046W        W44894   8.348  10.601   4.300 -0.0780 -0.4064  0.0321
28047W        W44895  11.849   4.369  12.322 -0.0397  0.0426  0.2574
28048W        W44896   6.846   1.194   2.386  0.1187 -0.0078  0.0084
28049W        W44897   3.840   2.407  16.139 -0.5169  0.2089 -0.0473
28050W        W44898  14.890   1.950  12.283 -0.0303  0.0405  0.0404
28051W        W44899   3.718   2.363  14.531 -0.0941  0.1148 -0.1474
28052W        W44900  11.670   7.939   0.078  0.0151 -0.3006 -0.1189
28053W        W44901   9.647   2.611   0.721 -0.3748 -0.0535 -0.0283
28054W        W44902   8.819   5.457   1.756  0.1463 -0.1273  0.3875
28055W        W44903  13.941  16.867   4.007  0.0577  0.0941 -0.1504
28056W        W44904   0.010   0.139  11.856 -0.0113  0.0816 -0.1884
28057W        W44905   7.685  16.480   3.961 -0.0999 -0.0900  0.3134
28058W        W44906   2.578   3.773  12.580  0.0046 -0.0956  0.2157
28059W        W44907   0.932   7.628   0.972  0.0568  0.0300  0.3136
28060W        W44908   2.755   6.043   2.128 -0.2151 -0.2417 -0.2268
28061W        W44909  16.103   8.925  11.598  0.0768  0.1000 -0.0492
28062W        W44910  15.711   5.764   2.340  0.4264  0.1277  0.0755
28063W        W44911   6.981  15.833   5.190 -0.3039  0.2351  0.3468
28064W        W44912  17.906  12.746  13.710  0.1538  0.3037  0.0580
28065W        W44913   6.335  15.057  15.332  0.1094 -0.3869 -0.1191
28066W        W44914  12.091   6.137  11.606  0.1230  0.2667  0.0385
28067W        W44915   6.651   6.507  14.248  0.2667  0.1175 -0.3413
28068W        W44916   5.064   2.227   6.073 -0.1191 -0.0479  0.0292
28069W        W44917   7.295  10.733  13.212 -0.0664 -0.0503  0.0397
28070W        W44918  14.101  16.155  13.762  0.1152 -0.1029 -0.1579
28071W        W44919  17.526   4.259   0.256  0.0558  0.2242 -0.1306
28072W        W44920   9.354   2.687  14.808 -0.1365 -0.1928  0.1517
28073W        W44921  12.366   1.627   1.863  0.0726 -0.2181  0.1215
28074W        W44922   7.245   3.602   2.663 -0.0103 -0.1569  0.0968
28075W        W44923  17.449   1.020  15.884 -0.0640  0.0568 -0.1390
28076W        W44924  15.133  15.983   2.239  0.0028  0.3031 -0.1824
28077W        W44925  17.969  13.793   1.243 -0.0689  0.2822  0.1384
28078W        W44926   5.559   9.346   2.144  0.1402  0.0441  0.1965
28079W        W44927  16.136   9.818   3.762 -0.2108 -0.1167 -0.1095
28080W        W44928  17.728   6.963  15.247 -0.1498 -0.2718  0.2072
28081W        W44929  15.639  14.623  10.774 -0.1492  0.1575  0.0482
28082W        W44930  16.791  12.486   3.405 -0.2377 -0.2146 -0.1284
28083W        W44931   5.816  11.268   0.573 -0.1124 -0.1974 -0.0237
28084W        W44932   1.118  10.313   0.889 -0.3523 -0.1626  0.0695
28085W        W44933   8.360   9.332   1.683 -0.1559 -0.2621  0.2102
28086W        W44934  12.697  10.264   0.605  0.0668  0.1808 -0.0843
28087W        W44935   8.946   4.031   3.771 -0.0550  0.0403  0.0170
28088W        W44936  15.320   6.263  16.250  0.1236 -0.2165  0.2841
28089W        W44937  12.914   6.572   2.304 -0.2036  0.0139 -0.2065
28090W        W44938  10.407   4.838  14.015 -0.3302 -0.0381 -0.2169
28091W        W44939  17.073   7.537   3.648  0.2752  0.1663 -0.1878
28092W        W44940  13.348   6.485   1.997 -0.3331  0.0721 -0.0878
28093W        W44941  10.984  10.007   3.684 -0.0408  0.0524 -0.0733
28094W        W44942   9.357   4.970  14.470  0.1066 -0.2010  0.1110
28095W        W44943   3.084  14.967   3.760  0.0400  0.2257 -0.3604
28096W        W44944   8.056   2.769   4.622  0.0761 -0.3381  0.2787
28097W        W44945   8.243  16.257   2.604 -0.0434  0.3868  0.1498
28098W        W44946  14.529  11.019   1.352 -0.0436  0.2433  0.3173
28099W        W44947  10.325  16.952  14.449  0.0211  0.4550  0.0640
28100W        W44948   2.678  15.990  15.722 -0.1876  0.0800  0.1866
28101W        W44949   7.632  13.351  12.809  0.1939 -0.0368  0.2873
28102W        W44950   9.361   3.540  12.514  0.0339  0.3779 -0.2939
28103W        W44951   7.137  10.020  15.879 -0.0056  0.0776 -0.1069
28104W        W44952  11.233   9.945   1.223 -0.2071 -0.1066  0.1478
28105W        W44953   1.724   4.832  11.552  0.4059  0.0680 -0.0927
28106W        W44954   7.400  16.891   1.912 -0.2522  0.2149  0.0005
28107W        W44955   6.412  11.361   0.932 -0.0543 -0.0297  0.0398
28108W        W44956  13.247   1.470   0.033 -0.2758 -0.0189  0.2818
28109W        W44957   6.570  16.695  14.223 -0.0156  0.2175 -0.0217
28110W        W44958  12.305   5.624   1.853  0.0250  0.2206  0.0502
28111W        W44959   1.016  12.614  13.029 -0.1405  0.1997 -0.1714
28112W        W44960  14.096  11.440  14.548  0.0723  0.1352  0.0536
28113W        W44961   2.015   1.847   1.845 -0.1532 -0.0009 -0.3415
28114W        W44962   3.326  14.955   1.582 -0.3025 -0.0179  0.2038
28115W        W44963   6.733   8.260  11.681  0.0748 -0.1347 -0.1095
28116W        W44964   9.090   3.246   3.476  0.1506 -0.2840  0.1054
28117W        W44965   4.623  15.692  16.157  0.3907 -0.0347 -0.1752
28118W        W44966   0.623   5.271  12.096  0.1822  0.1224 -0.2727
28119W        W44967   9.301  13.797   4.020  0.1570  0.2957 -0.1275
28120W        W44968   0.339  12.449   2.964 -0.2548  0.2337 -0.2149
28121W        W44969   9.391   3.252   4.072 -0.0622 -0.0567 -0.3274
28122W        W44970   7.145   0.764   2.436  0.1651 -0.1464 -0.2109
28123W        W44971   0.716  11.400  14.473  0.0873  0.2055  0.2292
28124W        W44972  16.557  16.784  15.600 -0.0313 -0.1298 -0.4403
28125W        W44973   5.337   7.267   4.984  0.0261  0.1918 -0.0631
28126W        W44974   5.742  17.327   4.643  0.0713 -0.3068 -0.3944
28127W        W44975  11.935  15.097   4.919 -0.2169 -0.1552 -0.0113
28128W        W44976  12.865  11.676   2.209 -0.0247 -0.2603 -0.1776
28129W        W44977  14.218   3.544   1.202 -0.0572 -0.4274  0.1078
28130W        W44978   6.614  17.907   2.547  0.1898  0.0255  0.0503
28131W        W44979  15.340  12.972   1.560 -0.4586 -0.0444  0.4421
28132W        W44980   2.753   2.075   3.815 -0.2096  0.0722  0.0345
28133W        W44981   6.509  16.101  12.839 -0.0900  0.1965 -0.0815
28134W        W44982  10.999   9.085  12.867 -0.4351  0.0954 -0.0510
28135W        W44983  11.439   8.685  12.471  0.1426 -0.0340  0.1714
28136W        W44984  16.785  16.574  13.353 -0.0355 -0.0828 -0.1239
28137W        W44985  16.009  10.933   5.829  0.3558 -0.0731  0.0777
28138W        W44986  11.963   6.041   1.861  0.0710 -0.0348 -0.1018
28139W        W44987   2.536   1.080   0.642  0.1664 -0.0282 -0.1313
28140W        W44988   5.275   2.639  15.160 -0.0008  0.1760  0.3339
28141W        W44989  12.103  16.892   4.302  0.1519 -0.0430  0.2072
28142W        W44990   2.455  15.349  13.351 -0.2033  0.0486 -0.2712
28143W        W44991  11.753  16.568  15.628  0.2594  0.1491 -0.1947
28144W        W44992  16.055  12.975  13.996 -0.2471 -0.2203 -0.0170
28145W        W44993   5.862  12.449   2.885  0.2147 -0.1099  0.2859
28146W        W44994  16.786  10.966   2.666  0.2654  0.0261  0.0595
28147W        W44995  13.229  10.254   5.761 -0.0389  0.0431 -0.0586
28148W        W44996   7.160  10.026   0.655  0.2463 -0.2554 -0.2094
28149W        W44997   8.121   9.200   3.862  0.2919  0.1620  0.2027
28150W        W44998   3.663   8.475  12.145 -0.4250 -0.0436 -0.0561
28151W        W44999  13.793   5.327  13.700  0.1611  0.0822 -0.1949
28152W        W45000   5.630  14.447   4.162  0.0270  0.2688 -0.1861
28153W        W45001  14.932  10.656  15.191 -0.1342 -0.2458  0.1366
28154W        W45002  17.078  13.756   3.587  0.1272  0.0735 -0.0348
28155W        W45003   1.234  12.545   4.308  0.1743  0.1910 -0.1375
28156W        W45004  11.479  12.997  14.996  0.0121  0.1573 -0.0017
28157W        W45005  10.608   2.075  13.972  0.1661  0.2428 -0.2714
28158W        W45006   8.829  17.232  12.716  0.0618 -0.0575  0.0818
28159W        W45007   4.546   2.306   0.983 -0.0214  0.4349 -0.2509
28160W        W45008  12.984  11.705  14.179 -0.1341 -0.2516  0.0639
28161W        W45009  12.312  17.581   3.973 -0.2660  0.3061 -0.2117
28162W        W45010  11.573   7.028   1.061 -0.2186  0.0348 -0.0395
28163W        W45011   8.573  15.017   2.115 -0.3794  0.2053 -0.1326
28164W        W45012   8.281   2.741   0.054 -0.2582 -0.1094 -0.1313
28165W        W45013  11.743  10.736  12.577 -0.0534  0.3876 -0.5574
28166W        W45014  16.218  17.139  15.031 -0.0473 -0.2457  0.1954
28167W        W45015  12.938  11.674   2.913 -0.2989  0.0528  0.0645
28168W        W45016   7.961   8.669  12.278  0.1868 -0.1872  0.1578
28169W        W45017  17.473   9.915  11.120 -0.2274 -0.2199  0.0417
28170W        W45018   5.393   8.760   4.720  0.0630  0.0544 -0.1016
28171W        W45019  15.077   0.331   2.567 -0.2680  0.2007 -0.2609
28172W        W45020   9.171  16.643   1.077  0.1356 -0.3350 -0.0333
28173W        W45021   9.704  13.876  15.732  0.4273  0.1611  0.0317
28174W        W45022  11.257   4.744   2.040 -0.2035 -0.0323 -0.1549
28175W        W45023   6.533   6.018   0.287 -0.4378 -0.0836 -0.3608
28176W        W45024   7.466   4.940  13.660 -0.2451  0.3204  0.1619
28177W        W45025  15.846   8.566  14.656 -0.1940  0.3924 -0.0355
28178W        W45026   9.134  13.170   2.891 -0.3666 -0.1733 -0.2024
28179W        W45027   0.127   0.506   0.777 -0.1141  0.3420 -0.1831
28180W        W45028  15.153   7.804  12.535  0.2436  0.4875 -0.0878
28181W        W45029   1.437  14.280   1.143  0.3516  0.0565  0.1265
28182W        W45030   6.461  12.556   1.251  0.1665 -0.0441  0.1999
28183W        W45031  12.865  10.000  16.204 -0.2421 -0.0507 -0.0994
28184W        W45032  15.891  16.622  14.947  0.0888 -0.1317 -0.2929
28185W        W45033  12.483   3.629   1.438  0.0698 -0.1052 -0.0667
28186W        W45034   1.503  16.460   4.590  0.1656 -0.0598 -0.0068
28187W        W45035   0.452  14.437   4.979  0.0966 -0.2117  0.0437
28188W        W45036  13.122   8.155   1.533 -0.0713 -0.0447  0.6191
28189W        W45037   7.412  17.394   2.115 -0.2272  0.0863  0.0859
28190W        W45038  15.192   4.312   3.691  0.3779 -0.2958  0.2071
28191W        W45039   1.941  11.744  14.029  0.3324  0.0559 -0.1090
28192W        W45040  14.808  14.476  14.715 -0.0621 -0.0202 -0.1678
28193W        W45041  12.972  15.663  14.178 -0.3686 -0.1729  0.1750
28194W        W45042   8.874  12.765   0.223  0.0901  0.0949  0.1986
28195W        W45043   0.936   6.444   2.922  0.3204 -0.3282  0.0539
28196W        W45044   2.268  11.020  11.440 -0.1429 -0.2872  0.0679
28197W        W45045  16.533  15.147  16.143 -0.2043 -0.2804  0.3613
28198W        W45046  16.637  12.495   9.979  0.0155  0.1106  0.4102
28199W        W45047  16.564  14.642  13.144  0.3399 -0.1275 -0.0110
28200W        W45048   5.031   2.112  15.231  0.1766 -0.0058  0.0376
28201W        W45049  17.332  14.374   4.183 -0.0721  0.2417  0.1955
28202W        W45050   8.013  14.226   4.730 -0.2308  0.0327 -0.0990
28203W        W45051   2.416  16.360   0.170 -0.0955 -0.0204  0.0847
28204W        W45052  16.313  15.418   1.661 -0.0570 -0.2272 -0.1340
28205W        W45053   1.987   8.286  15.361  0.1261  0.1882 -0.3308
28206W        W45054   3.220   7.399   4.856  0.2780 -0.0117 -0.0602
28207W        W45055   8.817   5.676   4.507 -0.2339 -0.2211 -0.1828
28208W        W45056   6.317  17.523  16.097  0.2878  0.0270 -0.1613
28209W        W45057   2.039   6.212  14.249 -0.2069  0.0456 -0.5244
28210W        W45058   3.505   5.016   2.482  0.0759  0.0841 -0.1442
28211W        W45059   2.892   9.894   3.601 -0.0706  0.1003 -0.3259
28212W        W45060  14.353   5.161   2.960 -0.0494  0.2621  0.2145
28213W        W45061   2.339   3.580   5.078 -0.0515  0.2117 -0.1411
28214W        W45062  10.933   0.834  11.223 -0.0517  0.4243  0.1638
28215W        W45063  15.327  10.191  11.991 -0.0010  0.0414  0.1859
28216W        W45064  10.703   1.007  14.124 -0.0288  0.2676 -0.1475
28217W        W45065  16.581   9.476  14.485  0.3038 -0.0890 -0.4630
28218W        W45066   8.429   2.258   3.483  0.1582  0.1698 -0.4178
28219W        W45067   5.331  10.597  11.827  0.1526  0.0290 -0.2206
28220W        W45068   4.040  17.923   0.807 -0.3614 -0.1574  0.0201
28221W        W45069   6.150   9.343  16.014  0.1354  0.2301 -0.0574
28222W        W45070   0.921   5.251   4.299 -0.0329 -0.1261  0.0145
28223W        W45071   2.614  15.436  12.767 -0.3583  0.0129  0.0621
28224W        W45072  16.360   9.012   2.759  0.0228  0.2339  0.2304
28225W        W45073   6.602  17.827   1.249  0.1131  0.1516  0.0104
28226W        W45074  14.549   5.267  13.232 -0.2922  0.0759 -0.3645
28227W        W45075   0.961  14.756   1.117 -0.0964  0.1197  0.0093
28228W        W45076   0.913  17.404  15.385 -0.1750  0.1500  0.0279
28229W        W45077   0.473   2.327   2.270 -0.1159  0.4678  0.0228
28230W        W45078   9.863   0.473  16.089 -0.0670  0.3450 -0.0957
28231W        W45079  14.330   8.904   2.704  0.1714  0.0048  0.2688
28232W        W45080   8.448   9.263  10.955  0.2674 -0.1194  0.1115
28233W        W45081  15.630   0.054  12.294 -0.1423  0.0609  0.2145
28234W        W45082  13.205   1.071   1.753 -0.0014  0.2741 -0.0112
28235W        W45083   6.393   4.847   0.462 -0.2402 -0.3773  0.0940
28236W        W45084   7.651  10.808  15.407 -0.1115  0.1312 -0.0653
28237W        W45085  12.632  12.405  16.168  0.0129  0.0260  0.2080
28238W        W45086  17.153   0.720  15.536  0.2722 -0.3122 -0.1637
28239W        W45087   1.064   9.716   1.022 -0.1623  0.0701  0.2977
28240W        W45088  14.943   0.793   2.739  0.1518 -0.1624  0.1939
28241W        W45089   2.225  15.467   4.463  0.3920 -0.1984 -0.1955
28242W        W45090  14.168   5.530   5.104 -0.0666  0.0494  0.0721
28243W        W45091   8.871   2.974   3.930  0.0833 -0.0042 -0.1037
28244W        W45092   9.695   8.906  16.178  0.0806 -0.0761  0.1106
28245W        W45093  16.471   6.067  12.607 -0.2224  0.0146 -0.3959
28246W        W45094   8.957   0.422  15.979  0.0342 -0.0460  0.1507
28247W        W45095   6.560   5.110  11.557 -0.2159  0.1846 -0.3016
28248W        W45096   2.704  12.154  14.615 -0.1753  0.0318  0.0149
28249W        W45097   0.480  12.284  14.088 -0.1774  0.0328 -0.1979
28250W        W45098   6.253  14.026  12.228 -0.0492  0.1224  0.0470
28251W        W45099   1.066   9.957  10.702  0.2833  0.0398 -0.1399
28252W        W45100  11.462  16.717   2.154  0.0547  0.1646  0.2197
28253W        W45101  16.126   8.565   1.823 -0.2212 -0.3283  0.4973
28254W        W45102  14.480   7.834  16.026 -0.0785 -0.1290 -0.0176
28255W        W45103   6.501   2.119  15.580 -0.2902  0.1116  0.0418
28256W        W45104   4.174   7.681  14.591  0.2138  0.2004  0.3160
28257W        W45105  16.162  16.715  11.188  0.2079 -0.0608  0.3066
28258W        W45106  17.584   6.507  11.184 -0.4036 -0.0378  0.1377
28259W        W45107   7.734   6.064  12.545  0.0770 -0.0613  0.0052
28260W        W45108  15.795   9.248   3.085 -0.0567  0.1328  0.0477
28261W        W45109   1.943  12.945  11.897  0.2887  0.3031 -0.3281
28262W        W45110   7.739  16.218   0.267 -0.1099  0.5362 -0.1342
28263W        W45111  16.386  10.734   1.332  0.1078  0.2141 -0.0577
28264W        W45112  13.927  12.863   0.737  0.1022  0.0091 -0.0651
28265W        W45113   2.400   2.543   2.627 -0.0350 -0.2106  0.1637
28266W        W45114  13.006  15.176   5.637 -0.0018  0.0418  0.0588
28267W        W45115  11.461   5.977  12.026 -0.2909  0.1115 -0.0066
28268W        W45116  10.603   2.896  11.302 -0.1900  0.1379 -0.1396
28269W        W45117  11.698   2.426   1.026 -0.0577 -0.0594  0.0451
28270W        W45118  13.487   6.259   5.978 -0.0774  0.0192  0.2149
28271W        W45119  13.483   1.142   1.334  0.2320 -0.1626  0.1103
28272W        W45120   0.096  14.615   2.711  0.0450 -0.2660  0.6086
28273W        W45121  17.677   3.004  15.874  0.2730  0.0750  0.1014
28274W        W45122  13.362  11.873  16.144  0.0715  0.1385  0.0237
28275W        W45123   5.496  15.626  15.926  0.2037  0.3211 -0.0229
28276W        W45124   4.547   9.311   4.058  0.1083  0.0467  0.0075
28277W        W45125  10.638   0.251   2.734 -0.1292  0.0760  0.2537
28278W        W45126  13.924   9.382   4.933 -0.1372 -0.0264 -0.1833
28279W        W45127  15.998   3.696   3.670  0.2195 -0.1075 -0.1266
28280W        W45128  11.672   0.750   1.232 -0.0956  0.0510  0.1251
28281W        W45129   2.992   8.136   0.039  0.1840 -0.1721  0.4847
28282W        W45130   8.403  10.235   0.927  0.0583  0.1674 -0.2314
28283W        W45131   9.829  12.656   3.358 -0.3400  0.1855  0.1431
28284W        W45132   9.497  16.957   3.065 -0.3097 -0.0223  0.2431
28285W        W45133  11.316  12.714   5.076  0.0033 -0.0074  0.1411
28286W        W45134  15.126   0.229  12.587  0.0038 -0.1552  0.3001
28287W        W45135   2.960  13.468   1.498  0.1997  0.0821 -0.2311
28288W        W45136  11.426   3.446  14.133  0.0243  0.1713 -0.0520
28289W        W45137   2.811   2.912  13.229  0.2105  0.0650 -0.2871
28290W        W45138   7.080   0.100   4.301  0.0491  0.0182  0.1082
28291W        W45139   2.714   4.115  13.424 -0.0805  0.1623  0.1594
28292W        W45140   4.192   7.641  15.092  0.2311 -0.0677  0.0195
28293W        W45141  14.819   6.994   0.319  0.0968 -0.0425  0.2453
28294W        W45142   6.913  16.824  15.061  0.0165 -0.0263  0.3102
28295W        W45143  13.081  14.742   5.411 -0.1925 -0.1382  0.1255
28296W        W45144  15.190   7.695   3.620  0.3178 -0.2617  0.3356
28297W        W45145   6.740   8.892   3.521  0.2444 -0.1394 -0.0732
28298W        W45146  15.811   8.862  15.942  0.0150 -0.2046 -0.2252
28299W        W45147  16.091   7.000  14.819  0.0468  0.2702 -0.0007
28300W        W45148   3.077  17.663   0.795 -0.2534 -0.1350  0.1003
28301W        W45149  11.718  13.013  13.714 -0.0376 -0.1051  0.3684
28302W        W45150  14.328  15.322   0.491 -0.0086  0.2757 -0.1159
28303W        W45151  15.445  16.136   4.213 -0.0179 -0.0152 -0.0185
28304W        W45152  10.939  13.067  13.564 -0.2393 -0.3980 -0.1716
28305W        W45153  12.271  16.892  15.559  0.2157 -0.1237  0.2432
28306W        W45154  14.780   5.363   2.688  0.2328  0.1340 -0.0609
28307W        W45155   4.092   3.222  14.881 -0.1454  0.2264  0.2796
28308W        W45156  17.138   5.547  14.197  0.1332 -0.1998  0.0663
28309W        W45157   0.597  17.347  16.265  0.0257  0.0919  0.0494
28310W        W45158  11.050   6.824   2.562  0.0801  0.3076 -0.1760
28311W        W45159   7.311  14.387   4.903  0.2271 -0.2775  0.0170
28312W        W45160   0.973   4.784  12.003  0.0628  0.0002  0.5520
28313W        W45161  11.028   1.335  15.631 -0.1802 -0.3507 -0.4632
28314W        W45162   4.109   3.527   2.123 -0.2549 -0.0548 -0.0090
28315W        W45163   5.899  17.589  11.623  0.0212  0.0436 -0.1254
28316W        W45164  15.800   3.411   1.861 -0.2264 -0.5410 -0.1668
28317W        W45165   7.043  10.146   5.036 -0.1355 -0.1598 -0.1665
28318W        W45166   4.414   2.992  15.094  0.0281  0.3294  0.2070
28319W        W45167  12.209   7.105  15.378 -0.0128 -0.1176  0.0130
28320W        W45168   1.535   4.948  15.704 -0.0796  0.0132 -0.0346
28321W        W45169   1.484  14.044   0.733 -0.0854  0.0600  0.2936
28322W        W45170   3.712   7.717   3.947 -0.2183  0.0263  0.0297
28323W        W45171   4.122   9.963   3.089 -0.0448  0.3176  0.3123
28324W        W45172   5.758   3.841  14.081 -0.0948 -0.2526  0.1512
28325W        W45173   7.663   0.085  15.976 -0.1758 -0.0448  0.1458
28326W        W45174   5.431   0.137   2.507  0.2726 -0.0424  0.0463
28327W        W45175  17.601   5.322   0.856 -0.3119 -0.1504  0.0675
28328W        W45176   4.652   4.081   4.345  0.3102  0.0094  0.1888
28329W        W45177   5.617  17.992  10.873 -0.2446  0.1117  0.0143
28330W        W45178  16.883   6.170  13.884  0.3074 -0.0222  0.0683
28331W        W45179  11.035   6.915   4.751  0.1088 -0.2095  0.1934
28332W        W45180  10.973  15.333  15.907  0.1236  0.2511  0.1726
28333W        W45181  10.138  16.414   0.072  0.2008  0.1128 -0.0401
28334W        W45182  16.911  12.199   4.486  0.2426  0.1169  0.0185
28335W        W45183   5.170   7.397  13.827  0.1842  0.0078 -0.0989
28336W        W45184   5.903   2.032  14.192  0.0937 -0.1627  0.1835
28337W        W45185  14.554   2.759   4.296  0.1495  0.1219 -0.0610
28338W        W45186   6.235   3.601   5.237  0.0144  0.1705 -0.1022
28339W        W45187  11.760   3.621  12.472 -0.1599 -0.0235  0.0954
28340W        W45188  17.697   0.337   1.977  0.2240  0.0472  0.1444
28341W        W45189   9.904   6.133   3.105  0.1365  0.1544  0.1713
28342W        W45190   4.986   0.605  13.950 -0.2129 -0.1263 -0.1515
28343W        W45191   1.127   0.154  12.762 -0.2471  0.3269  0.0498
28344W        W45192  11.423   1.505   1.093 -0.0341  0.0181  0.0522
28345W        W45193  14.267   0.770   0.499 -0.0344  0.0106  0.1460
28346W        W45194  12.624   4.249  15.488  0.0260 -0.1199  0.0929
28347W        W45195   7.938   7.943   2.573 -0.1672  0.1785  0.0418
28348W        W45196  10.567   3.532   4.164  0.2060  0.2334 -0.1772
28349W        W45197   9.297   0.882   3.970 -0.0965 -0.2283 -0.1505
28350W        W45198  16.922  12.683   2.090  0.1033  0.0686  0.1886
28351W        W45199  10.506  15.520  15.347  0.3827  0.3591  0.2184
28352W        W45200   6.769   3.646  15.544 -0.0085 -0.3074  0.0655
28353W        W45201   5.151   2.646   3.038  0.0427  0.4021  0.2373
28354W        W45202   0.154  12.391   3.456  0.1287 -0.0709 -0.0047
28355W        W45203  13.048  14.235  14.494  0.0055  0.1822 -0.0397
28356W        W45204  14.775   4.018   5.395  0.0321  0.1888 -0.1768
28357W        W45205  15.631   3.989   2.774  0.1518 -0.2429  0.0726
28358W        W45206   7.994   8.521  14.584  0.1174  0.3445  0.2294
28359W        W45207  17.511  13.328  13.226  0.0362 -0.2175 -0.1295
28360W        W45208   3.114  13.791   4.538  0.2972  0.0477  0.0558
28361W        W45209   0.195  11.721  11.200 -0.0884 -0.0576 -0.2400
28362W        W45210  16.826   8.356  12.233  0.0228  0.2033  0.0041
28363W        W45211   6.961  12.867  11.766  0.0237 -0.1274 -0.1463
28364W        W45212   0.197   8.133  15.003  0.3091 -0.0620  0.2329
28365W        W45213  14.764   9.625  14.612  0.1719  0.0813 -0.0125
28366W        W45214   8.895  13.693  15.057  0.0706  0.4593  0.0273
28367W        W45215  14.194  14.119   0.681 -0.2097 -0.0946 -0.1696
28368W        W45216  14.508   6.890   3.330  0.2520 -0.0833  0.1545
28369W        W45217  16.287  11.450   0.945 -0.0122 -0.3493  0.3300
28370W        W45218  12.614  12.854   1.750  0.3110  0.0126 -0.2865
28371W        W45219   9.194   6.055   1.368 -0.2612  0.0809  0.5512
28372W        W45220   9.878  17.487   1.974  0.1322  0.0328 -0.2489
28373W        W45221   6.746   1.430   3.241  0.2661 -0.3061 -0.0756
28374W        W45222   2.879   1.283   6.213  0.2198  0.3791 -0.0186
28375W        W45223  17.941   1.755   2.374  0.0369 -0.2184 -0.2537
28376W        W45224   5.392   5.251  12.511 -0.0779  0.0421 -0.2236
28377W        W45225  12.044   2.152  15.747 -0.1527  0.2394  0.1358
28378W        W45226   2.276  16.796  12.239  0.1162  0.0172  0.1435
28379W        W45227  12.528  14.981   2.752  0.1326 -0.2216 -0.0835
28380W        W45228   2.649   7.626  15.744 -0.0793  0.0135 -0.0816
28381W        W45229   0.687  12.129   3.243 -0.0285 -0.0021  0.3278
28382W        W45230   4.805   4.486  13.489 -0.0366 -0.1707  0.0254
28383W        W45231  13.872   8.863  14.703 -0.0583  0.0597 -0.1574
28384W        W45232   6.748   9.594  15.924 -0.1509  0.0627  0.1237
28385W        W45233  10.984   3.108   3.228 -0.0975 -0.1999  0.1217
28386W        W45234   1.826   0.680  16.025  0.1860  0.1831  0.1172
28387W        W45235  15.245   7.780   4.497 -0.1567 -0.2635 -0.2944
28388W        W45236  17.687  11.205   1.160 -0.0335  0.2201 -0.0060
28389W        W45237   4.760  13.801   4.244 -0.3510  0.0117  0.2945
28390W        W45238   6.042  10.106  11.346 -0.0305 -0.5457 -0.2555
28391W        W45239   3.237   6.819  10.028  0.3322 -0.0064 -0.0301
28392W        W45240   9.355   5.621  11.332  0.0643 -0.1748 -0.0999
28393W        W45241   0.138  15.220   5.604  0.4971 -0.0872 -0.0487
28394W        W45242   8.962  16.201  16.171  0.0774 -0.1861  0.0861
28395W        W45243   8.516  15.360  15.428 -0.2626  0.1295  0.2368
28396W        W45244   9.654  16.822  12.793 -0.2244 -0.1323 -0.1296
28397W        W45245  16.608  12.364  14.484  0.1546 -0.1260 -0.1523
28398W        W45246   5.006  15.955  15.922  0.0247  0.2950  0.0799
28399W        W45247   5.597   7.520   3.675  0.1202 -0.0350 -0.3047
28400W        W45248   0.607   6.438   3.812  0.3211 -0.1618  0.0167
28401W        W45249  17.260  16.080  13.309 -0.2385 -0.0327 -0.1549
28402W        W45250  15.359   3.221   1.121  0.2926  0.1744 -0.2194
28403W        W45251   2.532   8.557  13.676 -0.0355  0.0051  0.0874
28404W        W45252  16.784   6.249   4.659 -0.0003  0.0872 -0.1138
28405W        W45253   4.386   8.317  13.404 -0.0380 -0.2150 -0.1600
28406W        W45254   2.551  10.671   4.236  0.0422  0.1798  0.1847
28407W        W45255   2.351   0.149   1.039  0.1979  0.0428  0.3592
28408W        W45256  14.577  12.926  16.016 -0.0904  0.2194 -0.0303
28409W        W45257   7.433  12.039  12.425 -0.0153 -0.2095  0.0091
28410W        W45258   3.086   8.691   1.503  0.3018 -0.0000 -0.1212
28411W        W45259   2.245   5.623   5.074 -0.0370  0.1793  0.3965
28412W        W45260   6.808   6.987  14.240  0.0070 -0.1853 -0.1707
28413W        W45261   0.043   4.660   1.358  0.2623  0.0760 -0.3548
28414W        W45262  12.345  15.253  12.415  0.4854 -0.0631  0.0282
28415W        W45263   3.880   8.859  11.873  0.0046 -0.0526  0.4186
28416W        W45264  12.289  11.042   1.937 -0.2278  0.2775  0.0858
28417W        W45265   0.279  12.418  15.795  0.1122 -0.0654 -0.1231
28418W        W45266   1.223   7.983  15.331  0.1919  0.1335  0.1472
28419W        W45267   4.730   2.113   1.445  0.0624 -0.0764  0.0774
28420W        W45268  18.045   3.303  15.088  0.0921  0.0174  0.4815
28421W        W45269  15.820  16.371  12.643  0.0395 -0.4070 -0.1958
28422W        W45270  12.991   8.714  12.446 -0.1322 -0.0950  0.2082
28423W        W45271   6.438   2.823   4.731 -0.4691  0.4061 -0.0255
28424W        W45272  15.467   2.545   1.758  0.5169 -0.1329  0.0341
28425W        W45273   0.657   7.723  12.939 -0.0152 -0.0396  0.1605
28426W        W45274   0.278  15.907  12.800 -0.0574  0.0653  0.1068
28427W        W45275  12.232   1.704   1.187 -0.1786 -0.2508  0.0929
28428W        W45276   3.442   0.370  12.106 -0.3572  0.1006 -0.1852
28429W        W45277   8.097   7.770   5.535 -0.1401 -0.1979 -0.3382
28430W        W45278  15.670  14.081   3.275  0.0772 -0.1095 -0.1170
28431W        W45279  15.075  14.792  11.569  0.1997  0.0822 -0.1759
28432W        W45280   9.886  12.227  16.090  0.0001 -0.3266  0.1597
28433W        W45281   8.706  13.142   0.553  0.1348 -0.1083 -0.1579
28434W        W45282   4.012   4.636   0.499 -0.2636  0.1727  0.1990
28435W        W45283   7.638   4.267   3.928 -0.2053  0.0131  0.4029
28436W        W45284  12.394  10.743  13.296 -0.0936 -0.1632  0.0897
28437W        W45285   2.866   3.410  16.258 -0.0297  0.3368 -0.0631
28438W        W45286   2.863  12.969  14.387  0.0061  0.1249  0.0803
28439W        W45287  16.321   5.416   4.767 -0.1550  0.1183 -0.3007
28440W        W45288  13.768  13.555   1.408  0.0027  0.0050  0.0280
28441W        W45289  14.384  13.616  14.922 -0.1226 -0.1366  0.3507
28442W        W45290   5.229   9.089  14.922 -0.1658 -0.1779  0.0941
28443W        W45291  12.025   4.664  10.994  0.4373  0.2787 -0.4066
28444W        W45292   1.330   4.439   1.139 -0.0102  0.0220 -0.0111
28445W        W45293  12.388  10.847   0.762 -0.0067  0.1610  0.1034
28446W        W45294  17.795   8.330  13.567 -0.2780  0.0613 -0.0725
28447W        W45295   5.808   4.497  11.468 -0.0613  0.0222  0.1304
28448W        W45296   2.798   3.412   5.044 -0.0857  0.0873  0.0148
28449W        W45297  10.187   1.172  16.004 -0.3054  0.0345  0.1473
28450W        W45298   5.681   6.241  15.085 -0.0307 -0.4084  0.0817
28451W        W45299   0.068  16.920  15.798  0.1505  0.1505  0.3352
28452W        W45300  17.651   3.971  12.625  0.0118 -0.1001 -0.2399
28453W        W45301   6.933   4.882  12.828  0.0926 -0.2105 -0.1126
28454W        W45302   6.672  13.365  12.585  0.1375  0.1587  0.1412
28455W        W45303  11.097   6.877   0.706 -0.0793  0.3511  0.2280
28456W        W45304   2.801   6.546   2.957 -0.2125 -0.1565  0.2140
28457W        W45305   4.085   2.912   1.111 -0.0218  0.2739  0.5588
28458W        W45306   9.517   4.090   3.718 -0.0912  0.0956 -0.0507
28459W        W45307   4.493  11.437  14.515 -0.2955 -0.2391 -0.1246
28460W        W45308   3.559   1.926  15.440  0.1702  0.0217  0.0271
28461W        W45309   7.863   3.777   3.788  0.0185 -0.3127 -0.0861
28462W        W45310  10.586  12.217  14.285  0.2389 -0.1867 -0.3400
28463W        W45311  16.026  16.571   0.804 -0.0372 -0.0807  0.1455
28464W        W45312   7.887   2.114   2.520  0.0613  0.0335  0.3215
28465W        W45313  14.186   7.018   1.370 -0.1268 -0.0108  0.2026
28466W        W45314   9.703  17.004  12.029  0.0727 -0.1446  0.0036
28467W        W45315  15.180   5.030  12.213  0.1628  0.1122 -0.0235
28468W        W45316  12.530   6.652  13.109 -0.0112 -0.0280 -0.2710
28469W        W45317  11.631   0.344  11.342  0.0830  0.0097 -0.2018
28470W        W45318   3.605  12.410   3.781 -0.1661  0.0338  0.3251
28471W        W45319   4.889   0.455   3.926  0.0036 -0.1753  0.0242
28472W        W45320   1.017  15.473  14.440 -0.3046 -0.0525 -0.3841
28473W        W45321  12.719  16.411   3.762  0.2721  0.1119 -0.1018
28474W        W45322  13.452   6.094   3.849 -0.4781  0.1236 -0.0903
28475W        W45323  16.761   3.512  11.770  0.0900  0.2309 -0.2505
28476W        W45324  17.857   5.801  13.784  0.2637  0.1118 -0.1858
28477W        W45325   3.904   3.291   2.937  0.1978  0.2455 -0.0141
28478W        W45326   0.886  12.592   3.344 -0.2142  0.0141 -0.1583
28479W        W45327  10.236   4.267  12.390  0.1246  0.2301 -0.0697
28480W        W45328   8.066   6.912  12.622 -0.2264 -0.0746 -0.1927
28481W        W45329   2.976  17.706   5.422 -0.0365 -0.1946 -0.2963
28482W        W45330   3.389   0.670  15.433 -0.2478  0.0949  0.0425
28483W        W45331  12.896  17.579   3.094 -0.0543  0.2027 -0.0298
28484W        W45332   7.645   3.817  12.068 -0.2554 -0.0328 -0.3469
28485W        W45333   6.841   8.230   3.260  0.2927 -0.1372 -0.1738
28486W        W45334   9.608   1.581   3.667  0.1395 -0.2017  0.0576
28487W        W45335   0.295   2.907  13.712  0.0597 -0.1514  0.0154
28488W        W45336   9.527  16.046   2.282  0.1977  0.0601  0.1227
28489W        W45337  17.709  15.119  14.963 -0.0568 -0.0242 -0.2375
28490W        W45338  13.026   6.148  14.505  0.2882  0.3749  0.0266
28491W        W45339  18.012   9.282   0.488  0.2427 -0.1947 -0.1357
28492W        W45340   7.358  17.537  12.009  0.2768  0.2516 -0.0815
28493W        W45341   3.875  14.856   5.156  0.0458 -0.1429  0.2535
28494W        W45342  14.208  14.622  16.032 -0.1360  0.0621 -0.1359
28495W        W45343  12.762   7.763   4.164 -0.0495  0.2745 -0.1935
28496W        W45344  10.533   6.079   0.788 -0.0322  0.3958  0.0731
28497W        W45345   3.550  14.063  12.990  0.1991 -0.0614  0.1637
28498W        W45346  15.001  10.640  13.827  0.0021 -0.0371  0.1519
28499W        W45347   1.981   1.866  14.748  0.2942 -0.1893 -0.3047
28500W        W45348   9.743  11.873  15.714  0.1344  0.0861 -0.2798
28501W        W45349  12.845   1.378   4.314  0.1781 -0.2356  0.1401
28502W        W45350  14.489  14.509  12.223 -0.0792  0.0123 -0.4075
28503W        W45351  13.575  14.626  15.830  0.3111  0.2505  0.1447
28504W        W45352   3.382   7.863   4.785  0.0976 -0.2320 -0.0219
28505W        W45353  14.060  17.971   2.035 -0.2912  0.1718  0.2261
28506W        W45354   4.289  15.365   1.811 -0.0384 -0.1412 -0.3148
28507W        W45355   4.027   6.095  12.128 -0.2794 -0.0199 -0.4532
28508W        W45356   2.882   4.627   1.293  0.1346 -0.0316 -0.1707
28509W        W45357  16.056   3.075   3.541  0.0427 -0.0015  0.0613
28510W        W45358  11.475  12.659   0.460  0.0133 -0.2165 -0.3043
28511W        W45359   7.574   6.435   1.785  0.0813 -0.1853  0.0754
28512W        W45360   8.642  16.169  15.278 -0.1817  0.1922  0.3359
28513W        W45361   5.927  11.744  13.966  0.0683  0.0286 -0.2208
28514W        W45362   8.776   3.959   5.577  0.0923  0.3111 -0.1891
28515W        W45363   1.609   0.731  13.319 -0.0421 -0.0908 -0.2172
28516W        W45364  13.369   0.061  15.729 -0.0276 -0.1575 -0.1091
28517W        W45365  17.256  17.445  11.200 -0.4061 -0.1329  0.0582
28518W        W45366   9.491  12.351  14.879  0.2491 -0.1373 -0.0282
28519W        W45367  13.240  10.284  14.207 -0.2324 -0.1492  0.1763
28520W        W45368   7.065   9.875   3.089  0.0626  0.1451 -0.0325
28521W        W45369   0.253  11.095  13.443  0.0526 -0.0663 -0.1692
28522W        W45370   4.269  16.214  11.924 -0.0667 -0.5380 -0.0446
28523W        W45371  11.840  16.136   0.065 -0.2297  0.0981  0.0755
28524W        W45372  15.034   0.259  13.110 -0.0868 -0.0737  0.3815
28525W        W45373   8.434  16.233  12.485  0.3253 -0.0465 -0.0780
28526W        W45374  11.124   0.275  15.486  0.0328 -0.1650  0.0621
28527W        W45375   1.996  16.706  14.542  0.0951 -0.0274 -0.1115
28528W        W45376   1.281   2.368  13.325 -0.1011 -0.0908 -0.1612
28529W        W45377   7.517   4.579  14.563  0.2170  0.1687  0.2769
28530W        W45378  15.981  13.997  12.882  0.2820  0.2937  0.3261
28531W        W45379   0.334  16.278  12.306 -0.1673 -0.0388 -0.1302
28532W        W45380   3.400   7.726   2.010  0.0493  0.0699  0.0084
28533W        W45381   6.813  15.048   5.975 -0.0828  0.1379  0.2359
28534W        W45382  14.777   4.677   0.472 -0.1580  0.1083 -0.1299
28535W        W45383  10.748   4.894  10.482 -0.1074  0.2149 -0.1891
28536W        W45384  17.368   1.168  15.262  0.2224 -0.1577  0.3508
28537W        W45385  14.070  17.026  13.278  0.0790  0.1320 -0.2734
28538W        W45386   2.863  13.248  11.446 -0.0506 -0.0539  0.0507
28539W        W45387  17.620  15.059  12.363  0.1857  0.0569 -0.0488
28540W        W45388   5.724   4.985  12.072 -0.0254  0.1781  0.2258
28541W        W45389   7.462   8.746   0.026 -0.0716 -0.2722  0.0573
28542W        W45390  15.031   9.118  10.911 -0.0129  0.0802 -0.0638
28543W        W45391  17.341   4.405  14.434  0.1236 -0.4388  0.0947
28544W        W45392  16.601   0.425   4.791 -0.0222 -0.2790 -0.0017
28545W        W45393  14.744  13.854  16.225  0.4568 -0.2038  0.2097
28546W        W45394  17.016   6.399   1.997  0.1836 -0.1899  0.0968
28547W        W45395   7.934   1.014  13.897 -0.2231 -0.3217 -0.1693
28548W        W45396  17.940  17.595   2.512 -0.1406  0.1807  0.3788
28549W        W45397   1.042   0.520   2.863 -0.3180  0.0146  0.5269
28550W        W45398  13.388   4.258  14.099  0.3920 -0.2599  0.0420
28551W        W45399  13.827  16.186  11.816  0.3395 -0.1997  0.0704
28552W        W45400   7.962   5.348   5.865 -0.3201 -0.2231  0.1914
28553W        W45401  13.296   4.577   3.089  0.1959  0.0371 -0.0776
28554W        W45402   7.361   6.371   1.226  0.1781 -0.1411  0.0007
28555W        W45403  14.684  15.911  11.081 -0.1500  0.0646 -0.1298
28556W        W45404   7.617  16.063   2.049  0.0292 -0.1404 -0.0416
28557W        W45405  15.577   3.723  10.906  0.1576 -0.4677 -0.0723
28558W        W45406   2.423   4.451   2.959  0.1936 -0.1370 -0.1354
28559W        W45407   3.550  11.083  11.075 -0.1188 -0.2814 -0.2073
28560W        W45408  11.260  15.590   0.827 -0.4437 -0.0609  0.0858
28561W        W45409  13.446  10.964   2.653 -0.1136  0.1913 -0.4373
28562W        W45410   4.374   6.562  14.403  0.1938 -0.1596 -0.0092
28563W        W45411   0.754   7.952  15.201 -0.3203  0.0001 -0.1686
28564W        W45412  14.509   3.895   0.028 -0.0876 -0.1842 -0.1410
28565W        W45413   9.083   3.999   6.299 -0.1707 -0.1724  0.0782
28566W        W45414   6.780  16.755   3.553  0.0081 -0.1595  0.1324
28567W        W45415  13.828   6.546   5.740  0.1241 -0.0644  0.0085
28568W        W45416  15.053  11.471   2.020 -0.2046  0.0452 -0.1734
28569W        W45417  14.043   1.764   1.652 -0.0854  0.2393 -0.1304
28570W        W45418   0.068  17.706   4.719  0.1041  0.1053  0.2508
28571W        W45419   0.863  15.297  13.129 -0.2622  0.0343  0.0692
28572W        W45420  12.957   1.841   4.487  0.0317 -0.1086  0.0794
28573W        W45421  13.336   1.515  13.101  0.4349 -0.3260  0.1402
28574W        W45422   5.855   0.115   1.898 -0.0213 -0.2780 -0.0799
28575W        W45423   1.746  10.966   0.651  0.0434 -0.2302  0.2743
28576W        W45424  12.618  16.304   1.402  0.0704  0.1215 -0.0268
28577W        W45425  15.529   0.156   0.908  0.2704 -0.3674 -0.1806
28578W        W45426   0.434   7.053  13.683 -0.3060 -0.0437 -0.0733
28579W        W45427   0.494   1.491  12.154  0.1012  0.4532 -0.2159
28580W        W45428  11.714   3.343   4.078 -0.0057  0.2459 -0.2943
28581W        W45429   7.583   0.429  14.132 -0.1656 -0.1481 -0.4598
28582W        W45430   1.260   2.225   4.961  0.1534 -0.1992  0.2532
28583W        W45431  17.683   8.456  11.723 -0.0246 -0.1637  0.1473
28584W        W45432   2.432  10.257  14.943  0.3468 -0.0327  0.2246
28585W        W45433   5.498   6.695  14.273  0.0272  0.4887 -0.0000
28586W        W45434  11.549   0.459  14.469 -0.1501 -0.2033 -0.1632
28587W        W45435   3.557   3.865   3.252  0.2415 -0.0952  0.1069
28588W        W45436  14.017   7.537   0.622 -0.0180 -0.2412  0.0440
28589W        W45437  17.577  16.605   0.405 -0.2795 -0.1753 -0.3856
28590W        W45438  17.742   8.626  12.527 -0.0951 -0.0065  0.0304
28591W        W45439  12.844   2.578   3.911 -0.5719 -0.2651 -0.0976
28592W        W45440  13.340   0.421  12.110 -0.0053  0.0899 -0.2825
28593W        W45441   7.222   8.347   3.583 -0.0955  0.0498 -0.2618
28594W        W45442   8.375  16.456  13.459 -0.0609 -0.3846  0.0747
28595W        W45443   6.396  13.552  13.700  0.1162  0.0882  0.3182
28596W        W45444  16.342  13.635   5.022 -0.1826  0.3056 -0.0252
28597W        W45445   6.625  11.751   1.780 -0.0153 -0.0074  0.2136
28598W        W45446   5.559   0.659   0.362  0.2122  0.3401  0.0683
28599W        W45447  14.902   9.443  11.242 -0.1429 -0.1164 -0.1445
28600W        W45448   0.195   7.659  11.451 -0.0772 -0.4359  0.0140
28601W        W45449   7.841   4.388   1.412 -0.1218  0.2489  0.1736
28602W        W45450   4.132   2.145  15.180  0.1317 -0.0622  0.1218
28603W        W45451   1.766  17.550   1.289  0.1645 -0.1152 -0.0580
28604W        W45452  16.767  14.062   3.356  0.0451  0.2054 -0.0849
28605W        W45453  10.671  15.270   4.501  0.2644  0.4013 -0.1367
28606W        W45454  14.017   5.313  13.215 -0.4935 -0.0063 -0.1450
28607W        W45455   3.237   8.188  13.070 -0.1746  0.0253  0.1107
28608W        W45456   5.927   2.452   0.037 -0.2537  0.0084 -0.2335
28609W        W45457   3.460   2.184  14.925  0.0501  0.1640 -0.1014
28610W        W45458   9.387  12.302   1.449  0.0490  0.2862  0.1384
28611W        W45459   8.563   8.776   4.540  0.0367 -0.1569 -0.4557
28612W        W45460   1.343   5.478  11.032 -0.0152  0.1872 -0.1036
28613W        W45461   6.163   0.573   3.476  0.0531 -0.0197 -0.1760
28614W        W45462  18.008  15.853   4.420  0.0081  0.1473  0.0164
28615W        W45463   9.763   7.382  10.920  0.0196 -0.0532 -0.3096
28616W        W45464   1.346   6.331   1.936 -0.0690  0.0199 -0.3210
28617W        W45465  15.026  12.243   0.896  0.1182 -0.4349  0.2319
28618W        W45466   2.060  14.112   3.763  0.0869 -0.3556  0.2458
28619W        W45467  17.442   8.021  15.174  0.0465  0.1487 -0.2146
28620W        W45468  11.099   9.332  13.784 -0.1486 -0.1606  0.0654
28621W        W45469   1.490   8.560  13.631  0.0674 -0.1305  0.0609
28622W        W45470  12.423   4.866   2.728 -0.1637  0.1588 -0.2065
28623W        W45471  17.821  16.601   1.376 -0.0699  0.1242  0.2119
28624W        W45472  15.287   3.409  14.148  0.0355  0.0980  0.2689
28625W        W45473   1.691   0.598   4.943 -0.0376 -0.1496 -0.2977
28626W        W45474   3.542   7.815  13.597 -0.2716 -0.0312  0.0594
28627W        W45475   5.094  15.641   0.072 -0.1662 -0.2689  0.1228
28628W        W45476   0.701   2.326   3.736  0.2279 -0.0307  0.1016
28629W        W45477  14.461  12.030   0.380  0.2944 -0.1519 -0.2034
28630W        W45478   2.920   3.468   4.086 -0.1508 -0.0467  0.1560
28631W        W45479  11.153  12.097   4.237 -0.2508 -0.2552  0.0793
28632W        W45480  11.933   6.512  13.830  0.1759  0.0384 -0.4186
28633W        W45481  14.811  16.260  15.595  0.4208 -0.0499 -0.1311
28634W        W45482   1.406   0.114   3.971 -0.1330 -0.0981 -0.2156
28635W        W45483  13.265   1.625   1.318  0.0089 -0.3902  0.1409
28636W        W45484   0.656  14.425   3.702 -0.0614 -0.2316 -0.0671
28637W        W45485   4.264  12.330   5.136  0.0930  0.2298  0.1237
28638W        W45486  12.174  17.387   3.396  0.2317 -0.2094 -0.2703
28639W        W45487  12.492   6.007  14.453  0.1666  0.4490  0.1938
28640W        W45488  13.261  16.863   1.507  0.0203 -0.0338 -0.0752
28641W        W45489   2.735  13.614  11.780  0.1419 -0.2862 -0.1744
28642W        W45490  10.339  17.068  11.483 -0.0553  0.1625 -0.2780
28643W        W45491   0.933  10.330   2.645  0.2092 -0.0727 -0.0020
28644W        W45492   0.525   3.476   0.736 -0.1694  0.3233 -0.3262
28645W        W45493  12.031  11.461   1.537  0.1277  0.1733 -0.1639
28646W        W45494  13.818  17.117   2.505 -0.0235  0.0988  0.0117
28647W        W45495   2.554   0.169  11.356  0.2563  0.0559  0.0281
28648W        W45496  17.828   3.904   4.153  0.0344  0.0773  0.3118
28649W        W45497   3.652   9.551  10.797 -0.2140 -0.3472  0.0397
28650W        W45498  16.771  17.802   4.631  0.2319  0.1790 -0.2563
28651W        W45499  13.056   6.587  11.456  0.2784  0.0705 -0.0498
28652W        W45500   0.024  12.666   2.643 -0.0654  0.0422  0.0776
28653W        W45501  17.227  10.746   2.551  0.3369 -0.1105 -0.2418
28654W        W45502   8.957  16.241  12.566 -0.0896  0.2940  0.0478
28655W        W45503  10.183  12.354   3.196 -0.1889 -0.0704 -0.3551
28656W        W45504  11.796   0.533  14.889 -0.1045  0.3722 -0.1602
28657W        W45505   1.524  10.982  12.762  0.2619  0.0153 -0.5900
28658W        W45506  15.655  10.575   3.297 -0.1812  0.1726 -0.0108
28659W        W45507   9.216  11.691  12.830 -0.1503  0.0428 -0.1117
28660W        W45508   1.317   3.148  12.523  0.1594 -0.0592  0.1407
28661W        W45509  17.426   8.322   3.680  0.2370  0.0986 -0.0534
28662W        W45510  16.509  16.278  15.829  0.1859  0.1185 -0.1229
28663W        W45511   9.587   4.798  14.908  0.2245  0.1632  0.0660
28664W        W45512   2.678  15.947   3.743  0.1206  0.2376 -0.1064
28665W        W45513   3.268   0.796   0.604  0.1805 -0.0382 -0.1053
28666W        W45514   6.736   6.796  16.005  0.2311  0.1517  0.0720
28667W        W45515   9.472   9.791   1.867  0.0073 -0.2517 -0.0664
28668W        W45516  14.102   1.455  14.420  0.2356 -0.2226  0.2254
28669W        W45517   9.149   2.767   1.187  0.0545  0.1700  0.2101
28670W        W45518   9.299  10.350   1.159 -0.2012 -0.3148 -0.1225
28671W        W45519   7.417   7.433   3.035  0.1246  0.0227  0.4447
28672W        W45520   8.147   3.072   1.650  0.3707 -0.0276 -0.0713
28673W        W45521  14.456   7.348   4.736 -0.0748  0.1708  0.2056
28674W        W45522  17.845   6.579  14.220  0.4302  0.2300  0.0477
28675W        W45523  17.605  11.756   0.567  0.0761  0.3011  0.0403
28676W        W45524   7.566  17.260   1.641 -0.0759 -0.0592 -0.2517
28677W        W45525   6.530   0.809  11.936  0.0110  0.2654 -0.0661
28678W        W45526   1.329  11.651   2.540 -0.1344  0.2175 -0.0424
28679W        W45527   6.160  10.189   3.162 -0.1684 -0.0408 -0.1112
28680W        W45528   4.000  17.671   5.339 -0.3393  0.0938 -0.0656
28681W        W45529   4.884  10.462  14.621 -0.2493 -0.0953 -0.0116
28682W        W45530   8.411   7.930   5.893 -0.0319 -0.1138  0.4263
28683W        W45531  11.100   6.125   3.396 -0.2372  0.3221  0.0984
28684W        W45532   2.393   6.528  12.359 -0.2168  0.4361 -0.3421
28685W        W45533   5.374   1.613   3.868  0.1097 -0.1413  0.0743
28686W        W45534   3.484   2.342  15.766  0.1871  0.1311 -0.3078
28687W        W45535   9.970  12.888  13.386 -0.1771  0.0705 -0.0759
28688W        W45536   5.628   2.425  13.916  0.0545  0.0242 -0.0999
28689W        W45537  13.169  14.628   1.424  0.0371  0.0482  0.3740
28690W        W45538   9.635  18.021  12.411  0.0772  0.3149  0.4106
28691W        W45539  10.139   4.498  14.307  0.0062 -0.1921 -0.0677
28692W        W45540  11.650   8.811  15.795  0.2488 -0.1331 -0.3191
28693W        W45541   0.368  13.206  12.503  0.3335 -0.2352  0.1026
28694W        W45542   2.108  13.253   2.608  0.2742 -0.0914 -0.0214
28695W        W45543  17.336  17.781   2.598 -0.1332 -0.1277  0.4510
28696W        W45544   1.894   1.471   3.928 -0.0967  0.0488 -0.1097
28697W        W45545   4.969   4.201   0.323  0.1992 -0.1338 -0.2825
28698W        W45546  13.828  16.095   0.778  0.1599 -0.2293 -0.0565
28699W        W45547   5.725   0.103  15.948  0.3171  0.1685  0.2433
28700W        W45548   9.394   7.470  12.412 -0.3138  0.5768 -0.0961
28701W        W45549   9.571  17.266  15.339 -0.2192 -0.3540  0.0125
28702W        W45550   3.300   0.874   2.776  0.1522  0.2992 -0.0743
28703W        W45551  11.090  15.574  14.094 -0.0703 -0.1393 -0.0398
28704W        W45552   5.736  15.925   2.014  0.0442  0.1242  0.0243
28705W        W45553   5.333   1.078   0.475 -0.4114 -0.0898  0.1505
28706W        W45554  15.791  16.502   4.057  0.0151  0.1433 -0.1960
28707W        W45555  12.468   1.612  13.269  0.3683  0.2154 -0.1439
28708W        W45556   6.993  12.084   3.922  0.1327 -0.0805 -0.1027
28709W        W45557   7.424   2.833   2.069  0.1347  0.1651 -0.1546
28710W        W45558   2.275   3.071   1.486 -0.0889 -0.1431 -0.1183
28711W        W45559  17.473   8.292   3.170 -0.3704  0.2279 -0.4418
28712W        W45560   3.788   5.109  14.517 -0.0858 -0.0672 -0.0710
28713W        W45561  13.269   9.299  15.736  0.2055  0.0214  0.1961
28714W        W45562   7.637   9.139   3.169 -0.0259 -0.2951  0.0704
28715W        W45563  14.135  10.307   1.477  0.2046 -0.1925  0.2322
28716W        W45564  12.307   5.233   0.011 -0.1609 -0.0334  0.1283
28717W        W45565  12.574   9.764   2.094  0.1348 -0.3258  0.3215
28718W        W45566   7.464   1.875  13.227 -0.0170 -0.0233 -0.2350
28719W        W45567  13.647   6.353   4.276 -0.1504  0.3298  0.1475
28720W        W45568  12.586  14.069  12.619  0.1053  0.0332  0.0903
28721W        W45569   1.191   3.340  10.928  0.1241 -0.0867  0.0387
28722W        W45570  12.783  11.531   1.218  0.2533  0.0223 -0.1317
28723W        W45571  14.694  13.068  14.400 -0.1384 -0.1453  0.0812
28724W        W45572  15.316  15.885   2.979  0.1421  0.3266  0.0501
28725W        W45573   2.208  17.367  11.678 -0.1165 -0.1586  0.1255
28726W        W45574  17.077  13.556  13.362  0.0723 -0.0558 -0.1668
28727W        W45575  15.776  15.980   4.565 -0.2809  0.1400  0.0083
28728W        W45576   8.474   5.223   1.449  0.1424 -0.4302 -0.0127
28729W        W45577   0.815  16.932   1.237 -0.1266 -0.2224  0.1917
28730W        W45578  11.173  10.052   3.133  0.3554 -0.2092  0.0122
28731W        W45579   6.209  11.133   0.246 -0.0297 -0.0534 -0.0312
28732W        W45580   1.238   1.341  15.999 -0.3501 -0.1519 -0.0693
28733W        W45581   3.692   8.082  11.910  0.1706  0.3852  0.1175
28734W        W45582  16.660   1.431   3.320 -0.2120  0.0276  0.3339
28735W        W45583  15.037   0.396   3.676  0.0575  0.3485 -0.0182
28736W        W45584  11.118  15.886   3.221  0.0672  0.0919  0.2247
28737W        W45585  12.235  14.061  14.408  0.1758  0.1566 -0.3670
28738W        W45586   7.653   2.202  11.647 -0.0686  0.1678  0.3053
28739W        W45587   4.750   5.660  12.749  0.0686 -0.1170 -0.1375
28740W        W45588   2.287   1.216  13.067  0.0029 -0.0483  0.5240
28741W        W45589   4.463   8.223  15.885 -0.1369  0.2026 -0.3186
28742W        W45590  11.930   9.802  12.223 -0.0064 -0.0467  0.3523
28743W        W45591   4.614   7.660   0.531 -0.1401 -0.1382 -0.1976
28744W        W45592  15.929   6.389   0.629 -0.1966  0.1163 -0.3140
28745W        W45593   8.131  14.835   4.521 -0.1560 -0.1556 -0.0337
28746W        W45594   1.694  10.396   4.514 -0.1708  0.1301  0.2092
28747W        W45595  11.318   1.920  15.664  0.0203  0.0688 -0.3110
28748W        W45596  12.062  10.488  11.390 -0.2889  0.2490  0.2203
28749W        W45597  15.500  14.162   4.395 -0.2108 -0.0732 -0.4742
28750W        W45598  15.493   3.574   0.893 -0.0181 -0.1091  0.3628
28751W        W45599  10.332  15.992   2.107  0.1406 -0.0381  0.3988
28752W        W45600   4.941   1.780   5.260  0.0189  0.1093 -0.2602
28753W        W45601   1.488   8.396   0.963  0.0787  0.2451 -0.3651
28754W        W45602  12.278   0.852  15.878  0.0642 -0.1161  0.1180
28755W        W45603   8.769   2.040   4.731 -0.2545 -0.3101 -0.1429
28756W        W45604   7.340  15.180  14.744  0.0520 -0.1470 -0.0549
28757W        W45605  13.082   3.710   2.743 -0.3011  0.0346 -0.1588
28758W        W45606  14.204  15.577  14.983 -0.2151 -0.0765  0.2163
28759W        W45607   1.661   7.277  15.409  0.2879 -0.0149  0.3235
28760W        W45608   9.447  11.750   3.442 -0.2066  0.2781 -0.0656
28761W        W45609   7.566  13.008  14.872  0.0304  0.0380  0.1840
28762W        W45610   5.262   8.796  12.083  0.1017 -0.4016 -0.0059
28763W        W45611  15.867  11.644  13.006  0.0951 -0.1924 -0.1202
28764W        W45612   0.894  17.574   2.893 -0.2283 -0.1742  0.1833
28765W        W45613  12.539   2.449   2.990 -0.1521  0.0301  0.1964
28766W        W45614   0.991   1.728   0.317  0.0089  0.1588  0.1177
28767W        W45615   2.264   1.066  12.529  0.2162 -0.2447  0.0954
28768W        W45616  13.988  15.477   2.875 -0.0250 -0.0849  0.1966
28769W        W45617   4.435  17.924  15.372  0.2626  0.1488 -0.2496
28770W        W45618  14.851  14.122  12.455  0.1038  0.0991  0.1434
28771W        W45619   5.342   4.425  12.024 -0.0645 -0.2155 -0.3393
28772W        W45620   9.606  13.974   2.030 -0.0818 -0.0492  0.0514
28773W        W45621  14.094   2.923   4.380 -0.1478  0.2712  0.0809
28774W        W45622  12.694   4.548   4.254  0.1551  0.1282  0.1137
28775W        W45623  11.462   5.091   4.778 -0.0101  0.0166 -0.1309
28776W        W45624   8.749   9.681  15.036  0.1978  0.0725 -0.0323
28777W        W45625   4.251  16.464  14.532 -0.2320 -0.2163 -0.0397
28778W        W45626  10.464   6.896   0.588  0.0300  0.1083 -0.0934
28779W        W45627   8.407   6.318  15.488  0.0177 -0.0327  0.0508
28780W        W45628   5.896   4.196   2.260 -0.0433 -0.0811  0.0801
28781W        W45629   5.551   3.347  11.495  0.1491  0.2231 -0.0810
28782W        W45630  10.159   0.058   0.100 -0.4832 -0.1150  0.0895
28783W        W45631   3.104   4.133   4.995  0.0504  0.0171  0.0041
28784W        W45632  15.213   9.005  10.399  0.4183 -0.1484 -0.0138
28785W        W45633   3.888  14.857  12.164 -0.0422  0.0304 -0.1720
28786W        W45634   6.923   4.817   1.064 -0.0476  0.1749  0.0814
28787W        W45635   3.804  10.814   2.053 -0.2873 -0.0358  0.0512
28788W        W45636  10.293   1.780   3.049 -0.0052 -0.0009 -0.0901
28789W        W45637   1.339  14.473  12.857 -0.1451 -0.0160  0.2990
28790W        W45638   5.839  16.055  11.505  0.0925 -0.0578 -0.3291
28791W        W45639  12.165  15.886  15.453  0.2465  0.1335  0.3069
28792W        W45640   6.248   6.469   0.404  0.2782  0.1194  0.0242
28793W        W45641   8.121   0.973   0.967  0.2031 -0.1863  0.1384
28794W        W45642   3.284  15.656   0.544  0.2290 -0.0125  0.3751
28795W        W45643   8.389   3.711  15.949 -0.0958 -0.2354 -0.0433
28796W        W45644   8.239   4.636  12.369  0.2925 -0.2236 -0.1556
28797W        W45645   2.681   7.091   3.062  0.1156  0.1391 -0.0087
28798W        W45646  16.183   6.985  12.896 -0.1906  0.2696 -0.0665
28799W        W45647  13.283   0.547  14.967 -0.1838 -0.2028  0.0272
28800W        W45648  11.976  16.739   0.291  0.1045 -0.1707  0.0580
28801W        W45649  15.793   3.088  14.578  0.1486 -0.1431 -0.1682
28802W        W45650  16.209   5.028   5.119 -0.0361  0.0190 -0.2354
28803W        W45651  10.210  11.841   2.370  0.0608  0.3136 -0.1879
28804W        W45652  12.582   4.028   0.802 -0.0440  0.1047  0.2872
28805W        W45653  13.305  10.667   0.306 -0.3722 -0.2069  0.1915
28806W        W45654   5.899  13.605   4.406 -0.1691  0.2382 -0.1022
28807W        W45655  10.615   3.403   3.119 -0.1165 -0.1863 -0.0760
28808W        W45656  10.011   7.596  15.106 -0.1683 -0.1811 -0.2152
28809W        W45657  17.500   8.273  15.694 -0.0628 -0.1463  0.3731
28810W        W45658   9.025   7.033  13.782 -0.2274 -0.1005 -0.1204
28811W        W45659  16.740   1.099   1.665  0.0596 -0.0256  0.1113
28812W        W45660   0.914  12.144  11.497  0.0149 -0.1168 -0.1286
28813W        W45661   4.582   1.989   2.635 -0.1827  0.1504 -0.1134
28814W        W45662   0.475   2.024   6.121 -0.1722  0.0571 -0.3188
28815W        W45663   8.554  10.357  15.454  0.1131 -0.0571  0.0598
28816W        W45664  16.247   0.539  11.354 -0.1555 -0.1471 -0.1266
28817W        W45665   3.116  13.972  13.739  0.1100 -0.1148 -0.0280
28818W        W45666   3.465  14.520   2.250 -0.3230  0.1837  0.2158
28819W        W45667  15.027   6.232   0.795 -0.1451 -0.3712 -0.2319
28820W        W45668   2.766   0.571  10.543 -0.2090  0.1820  0.1387
28821W        W45669   8.043   7.843   1.845 -0.0421  0.0847 -0.4074
28822W        W45670   1.882   7.762  15.229 -0.2332 -0.0667 -0.0185
28823W        W45671   9.561   8.822  13.920 -0.2339 -0.0455  0.1135
28824W        W45672  15.370   9.703   4.123 -0.0283  0.0818 -0.0023
28825W        W45673  13.119   7.193   3.721 -0.0211  0.0637  0.0330
28826W        W45674   2.543   2.195  13.856  0.1040 -0.2200  0.0242
28827W        W45675  16.742   8.710   2.324 -0.1009  0.0710  0.2521
28828W        W45676  12.765   7.625  13.463 -0.0482 -0.1914 -0.0159
28829W        W45677   9.772   8.304   2.709  0.0266  0.0104 -0.2399
28830W        W45678   7.626  11.014  11.116 -0.1083  0.0822  0.1896
28831W        W45679   8.140   6.544   1.782  0.2168  0.1982 -0.0096
28832W        W45680   9.124  13.972  12.624  0.2654  0.0506 -0.0995
28833W        W45681  11.378  17.270  15.565 -0.1670 -0.0348  0.0199
28834W        W45682   9.025  13.265  16.173 -0.5393  0.1174  0.1470
28835W        W45683  10.736  16.437   2.787  0.0220 -0.0425 -0.3260
28836W        W45684  14.506   8.155  13.063 -0.0536  0.2700  0.0404
28837W        W45685   9.956   7.852  11.041 -0.2579 -0.4402 -0.1986
28838W        W45686   7.332  11.521   5.123 -0.0621  0.1124  0.0845
28839W        W45687  10.546  11.843   5.019  0.1774 -0.0341  0.0096
28840W        W45688   3.137   0.045   1.738 -0.0512  0.1018  0.1225
28841W        W45689   8.135  15.008  11.745  0.0535  0.2630 -0.1519
28842W        W45690   1.514   9.493   4.693 -0.0276 -0.0304  0.2430
28843W        W45691   0.670   8.422   9.942 -0.4682 -0.0144 -0.0917
28844W        W45692   0.888  14.839  11.706  0.1220 -0.0038  0.0158
28845W        W45693  12.204  13.902  15.447  0.1116  0.0575  0.2696
28846W        W45694  15.183  13.422  14.237 -0.0744  0.3243  0.0254
28847W        W45695   7.497   7.996   3.247 -0.0450  0.0199 -0.1576
28848W        W45696   4.788   0.537   5.076  0.3055 -0.0503 -0.1495
28849W        W45697   5.965  11.374   3.668  0.0230 -0.3111  0.1555
28850W        W45698   9.288  14.178   5.380  0.0596 -0.0697 -0.3100
28851W        W45699  11.108   4.934   2.585  0.3139  0.1943 -0.0819
28852W        W45700  11.859   5.070  13.695  0.0137 -0.0783 -0.0139
28853W        W45701  14.449   0.270  15.254  0.1711 -0.1880  0.0762
28854W        W45702   2.868   5.927  14.384 -0.0660 -0.3836  0.1266
28855W        W45703   3.646  13.089  14.852  0.0474  0.3148  0.0093
28856W        W45704   3.912   2.671   3.539  0.2279 -0.1338 -0.1548
28857W        W45705   2.070   2.962   2.891  0.0203  0.3312 -0.0311
28858W        W45706   9.417   5.772  13.508  0.2749 -0.1508 -0.1007
28859W        W45707   2.602   9.299   5.412 -0.0337 -0.0108 -0.0851
28860W        W45708   6.219  18.029  16.059  0.0061  0.0777 -0.1873
28861W        W45709   2.202   4.717   4.962  0.1515  0.1632 -0.0579
28862W        W45710  14.480   2.901  13.620  0.1220 -0.0168 -0.1402
28863W        W45711   5.447   5.519  13.455  0.1792 -0.0731 -0.0023
28864W        W45712  15.213  10.835  11.025 -0.1660  0.4676 -0.0680
28865W        W45713   0.029   7.694   2.207 -0.0985  0.0442 -0.0346
28866W        W45714   1.615   2.671  13.744  0.0546 -0.1477  0.0602
28867W        W45715  14.999   6.017   0.298 -0.1871 -0.4612  0.0177
28868W        W45716  11.792  13.544  13.769  0.1193 -0.0268 -0.0985
28869W        W45717   3.885   0.495  15.643  0.2811  0.0331 -0.0777
28870W        W45718  14.016  16.547   0.969 -0.1260  0.0942 -0.0716
28871W        W45719   9.103   5.194   4.196 -0.1207  0.1114  0.1172
28872W        W45720  12.714   0.006  11.468 -0.1876  0.1437  0.0039
28873W        W45721   4.568   2.964   2.754 -0.0634  0.0668 -0.0876
28874W        W45722   9.811   3.974  12.345 -0.1015 -0.0729 -0.1449
28875W        W45723  17.810  16.004   5.537 -0.0350  0.0710  0.1778
28876W        W45724   7.767  16.731  15.621 -0.1996 -0.0278  0.1222
28877W        W45725   9.111   0.655   1.081  0.1450  0.0666  0.0511
28878W        W45726  18.046   2.961  13.220  0.3116 -0.0598  0.4310
28879W        W45727   2.870  17.549   0.043  0.0798  0.0298  0.1624
28880W        W45728   5.088   7.380  12.140 -0.0218  0.0837 -0.2061
28881W        W45729   1.276  10.914  15.730 -0.1515  0.1420 -0.0612
28882W        W45730  11.756   4.174  15.283  0.0302  0.0039 -0.2302
28883W        W45731   8.877  11.574  13.739 -0.0949 -0.1161  0.4820
28884W        W45732   7.942   9.175  12.355  0.0426 -0.2557  0.0351
28885W        W45733  13.973   7.902  11.361 -0.2338  0.0375  0.1441
28886W        W45734   0.175  12.932   4.123 -0.0137 -0.1215 -0.0568
28887W        W45735   6.962   6.096  14.309 -0.3026  0.1185  0.2075
28888W        W45736  15.313   3.139   4.215  0.2340  0.1004  0.2450
28889W        W45737   8.207  13.079  13.687 -0.2116  0.0182  0.1971
28890W        W45738   2.946   9.180  11.808 -0.2100  0.4518 -0.1522
28891W        W45739  13.595  16.735   2.237 -0.0844 -0.2313  0.1495
28892W        W45740   2.460  17.037   1.962 -0.0352 -0.0632  0.2136
28893W        W45741  10.008  10.536   0.676 -0.2323 -0.0071  0.0965
28894W        W45742   0.328  11.338  14.044 -0.0081  0.1117  0.2109
28895W        W45743   4.431   0.467  14.147  0.0938 -0.1080 -0.2483
28896W        W45744   3.659   6.616   4.232  0.1992 -0.0414  0.1110
28897W        W45745   0.011   7.740  12.768  0.1028 -0.3951  0.1309
28898W        W45746  15.577   3.239  15.146 -0.1021  0.0189  0.1783
28899W        W45747   5.401   2.566  16.251 -0.0303 -0.0215 -0.1324
28900W        W45748  17.290   7.137  15.972  0.0025  0.1581  0.0646
28901W        W45749  17.815   8.026  13.165 -0.0666 -0.0633  0.2076
28902W        W45750  14.623   1.044  14.955  0.0528 -0.2214 -0.0365
28903W        W45751   0.750   6.734  13.833  0.2180 -0.2985  0.0607
28904W        W45752   5.070   6.731  12.934  0.0127  0.1038  0.1831
28905W        W45753  11.777  10.970   4.040 -0.0095 -0.0882 -0.0354
28906W        W45754  17.007  11.346  15.096 -0.0676 -0.1780  0.0725
28907W        W45755  13.641   3.834  14.851 -0.1630  0.0766  0.0714
28908W        W45756   2.477  14.673   3.168  0.0279  0.0906  0.0661
28909W        W45757  10.289   6.811  15.177 -0.1766  0.2191 -0.1107
28910W        W45758  13.965  11.057  11.319 -0.0659  0.0502  0.0295
28911W        W45759   7.650  17.741  11.356 -0.0565 -0.1312 -0.2612
28912W        W45760  11.180   3.393  13.085 -0.1655 -0.1933  0.2152
28913W        W45761   9.515   2.009  12.551  0.0290 -0.2077 -0.0910
28914W        W45762  17.775  14.968   2.664  0.1097 -0.2229 -0.0567
28915W        W45763   8.797   6.723  14.304  0.0981  0.0370  0.1951
28916W        W45764   8.860  10.812  14.805  0.1203 -0.1423  0.3585
28917W        W45765  16.591  12.684  15.471  0.0972 -0.0977  0.1892
28918W        W45766  16.999   2.459  15.292 -0.0952 -0.1083  0.0296
28919W        W45767   4.567  11.016  10.691 -0.0507 -0.1941 -0.2097
28920W        W45768   2.149   4.559  11.553  0.2096  0.1981 -0.2567
28921W        W45769   4.788  15.794  14.589 -0.3999 -0.1296  0.0078
28922W        W45770   5.512   4.573   5.211  0.0138  0.0743 -0.2044
28923W        W45771   0.833  16.309   0.660 -0.1831  0.0079 -0.2054
28924W        W45772   4.046  10.245  12.359 -0.1558 -0.0470 -0.2808
28925W        W45773   3.787   6.028  13.934  0.3130 -0.0843 -0.0053
28926W        W45774  12.537  11.282  15.199  0.0265  0.2576 -0.0507
28927W        W45775   1.113   7.189   0.710  0.1850  0.1075 -0.3261
28928W        W45776  14.963   3.074  13.559  0.0236  0.0610  0.0048
28929W        W45777  15.676   1.616  15.600  0.0516  0.2051 -0.0715
28930W        W45778   2.042  11.395   1.284  0.0072  0.0269 -0.0370
28931W        W45779   5.030   7.215  12.603  0.1024  0.0515 -0.1998
28932W        W45780  12.681  12.184   3.966  0.3269 -0.0108 -0.1297
28933W        W45781   3.268   6.808  15.903  0.4055 -0.4023  0.3942
28934W        W45782   2.751  10.487   3.435  0.0811  0.0277  0.2035
28935W        W45783  10.813   2.584   0.680  0.3065  0.1233  0.1764
28936W        W45784   6.114  10.958  15.708  0.2253 -0.1603 -0.1949
28937W        W45785  13.267  15.379  15.351 -0.0332 -0.1670  0.1946
28938W        W45786   0.220  10.348  13.119  0.0080 -0.0357  0.4172
28939W        W45787  13.027   6.424  11.927  0.0217  0.3628 -0.2103
28940W        W45788  16.288  10.326  12.891  0.1232 -0.0108  0.0759
28941W        W45789   1.721   1.270   3.026  0.2112  0.2626  0.0144
28942W        W45790   9.572   8.941   5.107 -0.0141  0.2743  0.1255
28943W        W45791  14.701   3.369  12.876  0.1307 -0.0641  0.1642
28944W        W45792   6.374   5.809   1.765  0.0985  0.4752 -0.0069
28945W        W45793   3.252   8.383   1.086  0.2589  0.2785  0.1412
28946W        W45794   4.765  13.094   2.412 -0.0397  0.3021 -0.1165
28947W        W45795   3.686  15.937   5.155 -0.1168  0.0056 -0.1689
28948W        W45796   8.186  15.947  11.660  0.1036 -0.2842 -0.0940
28949W        W45797   9.357  13.988   2.491 -0.0217  0.0091  0.1615
28950W        W45798  16.396  11.192  10.945  0.2601  0.0686 -0.0895
28951W        W45799  12.561  17.098   5.060 -0.2643 -0.0884 -0.1358
28952W        W45800  17.287  12.630  13.818 -0.2639  0.0913 -0.0383
28953W        W45801  15.517  15.482  14.306  0.0759 -0.1495 -0.1225
28954W        W45802   8.487   8.241  13.558  0.1495 -0.0683  0.1702
28955W        W45803   2.251  10.518   3.341 -0.3213 -0.2176 -0.1032
28956W        W45804  10.125   3.463  11.912  0.0354 -0.2991 -0.0899
28957W        W45805   4.660  16.407  12.258 -0.3111 -0.3139 -0.3373
28958W        W45806   8.184  11.676   1.236 -0.0697  0.0246 -0.0961
28959W        W45807  11.449  14.871  13.371  0.2661 -0.0860  0.1791
28960W        W45808   8.436   7.263   1.113 -0.0534 -0.0999 -0.2259
28961W        W45809   9.290  10.836   0.182  0.1184 -0.2664 -0.1404
28962W        W45810   4.343   0.836   2.616 -0.2324 -0.0675  0.3044
28963W        W45811  17.969  15.309   1.379 -0.1345 -0.0062  0.3085
28964W        W45812   4.991   8.293   1.567  0.2297  0.0829 -0.0789
28965W        W45813  12.281  13.259   4.669  0.1070 -0.0071  0.2423
28966W        W45814   6.400   5.476  10.708 -0.1672 -0.1443  0.0624
28967W        W45815  12.651  16.671  15.814 -0.2685 -0.1884 -0.0086
28968W        W45816   9.077   7.520  13.454  0.1168 -0.1423  0.0226
28969W        W45817  14.541  14.446   0.470  0.0747 -0.0657  0.1096
28970W        W45818   8.603   1.820  14.617 -0.1745 -0.0107  0.2272
28971W        W45819  17.366   9.212  12.069  0.0263  0.0726 -0.3195
28972W        W45820  12.985  12.646   0.325  0.0384 -0.1960 -0.4660
28973W        W45821  10.949   9.380   0.090 -0.4876 -0.0699  0.0757
28974W        W45822   9.009   7.706   0.966 -0.0113 -0.0004  0.2730
28975W        W45823   0.006   1.891  13.337  0.4609  0.0790  0.0366
28976W        W45824   5.938   0.621  13.291 -0.1081  0.4549 -0.1937
28977W        W45825  13.481   0.314   0.958  0.0887  0.1039  0.0617
28978W        W45826   0.497   0.317  15.275  0.0252  0.0491 -0.1088
28979W        W45827  12.143   5.721   0.461  0.0513 -0.0049 -0.1099
28980W        W45828  16.107  11.480   2.486  0.0602 -0.2196  0.1724
28981W        W45829   8.764  16.643  13.769 -0.4832  0.0078 -0.0150
28982W        W45830   8.164  10.768  12.327 -0.1933 -0.0354 -0.0716
28983W        W45831   0.245  10.998  12.945 -0.2271 -0.1502 -0.1551
28984W        W45832   8.100  12.628   1.059 -0.4201 -0.0227 -0.0760
28985W        W45833   8.822   3.486  12.187 -0.2975 -0.0478 -0.2637
28986W        W45834   6.118  16.207  13.088  0.1660 -0.0872  0.0160
28987W        W45835  18.036  17.802  11.370  0.2174 -0.0482 -0.2172
28988W        W45836   2.865   5.623   3.434  0.0108 -0.0531  0.1458
28989W        W45837  17.076  13.906  12.370 -0.0534 -0.1583  0.0499
28990W        W45838  12.143   6.589  11.742  0.0092  0.0487  0.2324
28991W        W45839   1.931   8.568   3.543 -0.5340 -0.0900  0.1808
28992W        W45840  10.985   4.821  12.252  0.1136 -0.1169  0.1479
28993W        W45841   6.357  13.038  15.017  0.1219 -0.0635  0.2021
28994W        W45842  16.133   2.478  10.938  0.3370  0.1990  0.1518
28995W        W45843  17.529   6.741  13.865 -0.0995  0.0670  0.1485
28996W        W45844  14.074   8.436  11.023  0.0882 -0.1946 -0.1282
28997W        W45845  13.728   2.494   4.287 -0.0047 -0.2294 -0.1343
28998W        W45846  17.492   3.789  15.603 -0.1590  0.3662 -0.1695
28999W        W45847   3.078   1.400   1.724 -0.0871  0.1752  0.0251
29000W        W45848   7.021   0.493   4.000  0.1227  0.1418  0.0700
29001W        W45849   1.593   1.953  12.668 -0.1856 -0.0464  0.3750
29002W        W45850   0.750   0.459  12.954  0.0337  0.1779 -0.1862
29003W        W45851   7.932   0.199   5.448  0.1230 -0.2460  0.1076
29004W        W45852   9.903   3.654   6.456 -0.5682 -0.0678 -0.2039
29005W        W45853   3.368  13.947  15.916 -0.2723 -0.1221  0.0118
29006W        W45854  11.043   5.292   1.887  0.0685 -0.1216 -0.0302
29007W        W45855   8.792  10.489   1.095  0.0353  0.5411 -0.0634
29008W        W45856  11.249   4.348  12.994 -0.1353  0.0098  0.2908
29009W        W45857  14.523   0.159  12.709  0.2191 -0.0037  0.1205
29010W        W45858   7.299  15.397  16.104 -0.1588 -0.2222 -0.0972
29011W        W45859  17.820   5.070  12.259 -0.0809  0.4182 -0.0128
29012W        W45860  16.103   0.537   0.192  0.1051  0.1342 -0.1308
29013W        W45861   2.035   4.022   0.862  0.1739 -0.1711  0.2519
29014W        W45862  11.718   2.722   2.717  0.0869 -0.2718 -0.1131
29015W        W45863  17.011   9.771  11.313 -0.1222 -0.0374 -0.1037
29016W        W45864   8.467  16.313  14.110 -0.2515 -0.0019  0.0118
29017W        W45865  17.144   1.519  13.826 -0.0391 -0.0364  0.2247
29018W        W45866  15.292   9.419  12.614 -0.0771  0.2658 -0.1024
29019W        W45867   8.229  10.455   3.835 -0.2215 -0.1660  0.0963
29020W        W45868  11.625   2.075   3.827  0.2122 -0.1652 -0.3268
29021W        W45869  12.712   9.670   2.939  0.0756  0.0978 -0.2447
29022W        W45870  15.251   1.796   0.785  0.1886  0.4221  0.0905
29023W        W45871   1.027   7.920   4.685 -0.2644  0.0513  0.2119
29024W        W45872  10.365   6.908  14.655  0.0290  0.0263  0.3788
29025W        W45873   6.205   1.661   1.902 -0.1579 -0.1488  0.0629
29026W        W45874   5.961  16.708   5.561  0.2003 -0.0792 -0.0275
29027W        W45875  15.213  17.500   0.955 -0.1474 -0.1092 -0.1497
29028W        W45876   3.432   7.874  11.500  0.3045 -0.0753 -0.4147
29029W        W45877   1.705   8.590   0.392 -0.2324 -0.2047  0.3324
29030W        W45878  16.097   2.505   5.032  0.0535  0.2702 -0.0125
29031W        W45879  13.646   2.951   0.712  0.0487 -0.1407 -0.1296
29032W        W45880  13.800  16.262  11.280 -0.1002 -0.1886  0.0013
29033W        W45881   0.302  16.258  15.390  0.0707  0.0892 -0.0444
29034W        W45882  10.268   4.953  13.507  0.3021 -0.0793  0.3762
29035W        W45883   3.062  11.180   1.341 -0.0895  0.0729 -0.1234
29036W        W45884  10.633   5.412  12.767 -0.1721  0.2692  0.1738
29037W        W45885  11.197  15.936   5.722  0.2257  0.0065  0.0894
29038W        W45886   7.811  12.277   1.227  0.3018 -0.0564  0.1485
29039W        W45887   7.798   9.521   3.517 -0.0251 -0.1553  0.1316
29040W        W45888  13.289   3.715   0.345 -0.1984 -0.1993 -0.1051
29041W        W45889  15.918  12.356   3.019 -0.1514  0.1785  0.1269
29042W        W45890  13.436   0.594   2.481 -0.1811  0.1369  0.0422
29043W        W45891   3.477  16.969  12.329  0.0358 -0.2241 -0.0635
29044W        W45892   5.174   9.525  15.115 -0.0715  0.1741  0.0897
29045W        W45893  16.677  10.163  12.456 -0.2322 -0.0494  0.0938
29046W        W45894   3.743  13.166   1.201 -0.1303  0.0621 -0.0303
29047W        W45895  11.647   2.147  13.798 -0.1893 -0.4027 -0.0399
29048W        W45896   6.996   8.973   4.794  0.1729  0.2563  0.2566
29049W        W45897  17.315  12.885   4.343 -0.2814 -0.1172  0.0657
29050W        W45898  14.147   3.717   0.363  0.1543  0.1505 -0.0518
29051W        W45899   3.399  14.955  14.000  0.2853  0.1127  0.1708
29052W        W45900  16.953   9.969   2.639  0.1760  0.0632  0.0181
29053W        W45901  13.416   6.709   1.604 -0.2292 -0.1602 -0.0148
29054W        W45902   7.384  17.001   3.634 -0.1339 -0.0750  0.2979
29055W        W45903  10.923   0.715  11.927  0.0598  0.1570 -0.0083
29056W        W45904  17.069  13.264   1.255  0.0425 -0.0973 -0.4208
29057W        W45905  12.416   1.156  15.061  0.2575  0.3877  0.1517
29058W        W45906  12.163   4.652  12.845  0.1061  0.0894  0.1230
29059W        W45907  14.787  14.602  12.602 -0.1960  0.1739  0.1164
29060W        W45908  17.638  14.806   2.168 -0.0723 -0.2566 -0.0098
29061W        W45909   9.316   5.018   0.490  0.0165  0.1658 -0.2009
29062W        W45910  11.236   4.143   3.457  0.0159  0.2854 -0.1196
29063W        W45911   4.711   7.847  14.590 -0.0892 -0.0676  0.1412
29064W        W45912   6.271  15.095  13.350  0.0993 -0.0050 -0.0360
29065W        W45913  17.698   0.239   3.206 -0.1069  0.2444  0.0022
29066W        W45914   3.246  15.678  14.456  0.2916  0.0919  0.1216
29067W        W45915  10.483  18.006  11.392  0.1806 -0.0485  0.0558
29068W        W45916   9.806   2.302   3.252 -0.0049  0.1329 -0.1310
29069W        W45917  15.615  14.748   6.388  0.1086 -0.0455  0.0599
29070W        W45918   5.608   8.496   4.318  0.0768 -0.1049 -0.2869
29071W        W45919  13.607   9.393  13.177  0.0999 -0.1405  0.1615
29072W        W45920  12.713   1.605   0.051 -0.1743  0.2876 -0.2039
29073W        W45921   5.480  11.033  13.394  0.2520  0.1185  0.1227
29074W        W45922   7.280  14.513  11.671 -0.1471  0.0333  0.1631
29075W        W45923   0.634   6.597   0.116 -0.0105  0.0193 -0.2681
29076W        W45924   6.530   2.814   3.069 -0.1952  0.2065  0.3097
29077W        W45925   8.960   8.165  15.135  0.3685  0.2699  0.1131
29078W        W45926  15.750   9.887   1.395  0.0104 -0.1715  0.3140
29079W        W45927  16.896   0.879   4.109  0.3219  0.1825  0.1710
29080W        W45928   3.362   9.951   5.318 -0.2990  0.1316 -0.1430
29081W        W45929   8.194  17.139   0.017  0.1419  0.0408 -0.0980
29082W        W45930   1.029   4.551   3.681  0.2190  0.1387  0.1197
29083W        W45931   1.536   6.190  15.589 -0.1521  0.2678 -0.3143
29084W        W45932  11.765   4.107   2.500 -0.1429  0.2015 -0.3799
29085W        W45933   9.919  13.573  12.156  0.0698 -0.1691 -0.1058
29086W        W45934   6.135   5.318   1.939 -0.0430  0.0001  0.0085
29087W        W45935  17.304  16.850  11.412 -0.0214 -0.1980  0.1582
29088W        W45936   4.521   2.789   5.650 -0.1494 -0.0137 -0.0235
29089W        W45937   6.524   0.518   2.633 -0.2090  0.0915 -0.0310
29090W        W45938   4.322   5.946   2.414  0.3208 -0.0178  0.3710
29091W        W45939  11.340   4.538   2.685 -0.3688  0.1127  0.0868
29092W        W45940   3.071   8.637   2.028  0.0240  0.1709 -0.0485
29093W        W45941   0.504   1.897   0.163  0.2264 -0.0289  0.2272
29094W        W45942   7.332   7.019   4.849 -0.0064  0.0069 -0.1007
29095W        W45943  12.345  10.100   3.602  0.0150  0.1793  0.3420
29096W        W45944   2.742   5.107  12.276  0.1510 -0.1199 -0.3301
29097W        W45945  16.049  12.226  13.527  0.3150  0.3326  0.2117
29098W        W45946  14.102  16.640   1.461  0.0928 -0.0523  0.0169
29099W        W45947   3.346   4.163   2.872  0.3883  0.0800 -0.1540
29100W        W45948  17.149  15.153  13.166 -0.0009 -0.0170 -0.0881
29101W        W45949   2.442   0.590   1.615 -0.0719 -0.1732 -0.0414
29102W        W45950   1.876   2.178  10.357 -0.4595  0.1458  0.1316
29103W        W45951   4.470  14.830  14.219  0.4319 -0.1939  0.3388
29104W        W45952  13.426  15.740   4.552  0.0483  0.1396  0.3872
29105W        W45953   4.517   6.844   1.830  0.1108 -0.4372  0.1696
29106W        W45954  10.091   5.484  13.349  0.3912 -0.4266  0.2251
29107W        W45955  13.293   5.601  14.326  0.3526 -0.0275  0.1380
29108W        W45956   4.284  14.704   4.291  0.0055 -0.0378 -0.1965
29109W        W45957  11.288   8.074   3.818 -0.0744 -0.0563  0.0169
29110W        W45958   4.628   1.764   1.099 -0.1711  0.1789  0.0110
29111W        W45959   7.718   8.636  13.594 -0.2949  0.1587 -0.0907
29112W        W45960   2.193  17.848  11.503 -0.0083 -0.1766  0.1583
29113W        W45961   6.151   5.035   4.314 -0.0284 -0.1277 -0.1966
29114W        W45962  15.308  13.902  15.124  0.2696 -0.2294 -0.2863
29115W        W45963  10.612   2.991  13.505 -0.0621 -0.2326  0.0159
29116W        W45964  13.921   9.766  12.999 -0.2489  0.0123  0.2936
29117W        W45965  17.565   1.646   4.097 -0.0247 -0.0069  0.2461
29118W        W45966   0.419   3.867   0.325  0.0856 -0.3048 -0.0720
29119W        W45967   2.241  11.239  13.255  0.0426  0.2133 -0.3941
29120W        W45968  12.580   0.339   4.622 -0.1892  0.0409  0.0158
29121W        W45969  13.675   2.399  12.182 -0.0011  0.1173 -0.1406
29122W        W45970  14.294   4.102   1.743 -0.3412  0.0062 -0.1244
29123W        W45971  10.373  13.687   3.824 -0.1608  0.0170 -0.1382
29124W        W45972   2.185  11.958   3.577 -0.3050 -0.1674  0.2891
29125W        W45973   8.463  11.984  11.620 -0.0749 -0.0388  0.1485
29126W        W45974  17.562   0.107  11.903  0.0531 -0.0688 -0.1532
29127W        W45975  11.385   2.873  12.228  0.1443 -0.0632 -0.1561
29128W        W45976  14.008   6.832   4.024  0.1038 -0.0524 -0.4042
29129W        W45977   0.898  15.559   1.241  0.1282  0.0583 -0.0774
29130W        W45978  17.806  10.507  15.313  0.1172 -0.2610 -0.0373
29131W        W45979   4.660  10.945  14.408  0.2588  0.1333  0.3595
29132W        W45980   9.416  10.384  12.925  0.0600 -0.2096  0.2102
29133W        W45981   0.704   2.245  14.641 -0.3507 -0.0433  0.3505
29134W        W45982  13.059  13.877  12.620 -0.5796 -0.3892 -0.2683
29135W        W45983   3.931  13.238   3.436  0.2257  0.0029  0.0789
29136W        W45984  15.787  15.113   5.030 -0.0705  0.0100 -0.1701
29137W        W45985   1.363   0.014   5.692  0.0188 -0.1746  0.1540
29138W        W45986   2.949   3.683   0.681  0.3047  0.1985  0.3742
29139W        W45987  15.395   6.105   1.440 -0.0470 -0.0614 -0.1675
29140W        W45988   4.132   4.700   4.129  0.0490  0.0749 -0.0554
29141W        W45989  11.768  18.021  12.288  0.0967 -0.0636  0.0464
29142W        W45990  15.259  10.822  14.298 -0.0813 -0.0779 -0.0929
29143W        W45991   6.801  14.985   1.587 -0.0017 -0.0344 -0.0414
29144W        W45992  17.822   8.581  16.209  0.1765  0.0828  0.1608
29145W        W45993  12.010  15.797   4.266  0.3240 -0.0804 -0.1303
29146W        W45994  10.422  12.067   0.622  0.1544 -0.2258 -0.1985
29147W        W45995  16.455   9.553  13.702 -0.3169 -0.1067 -0.0239
29148W        W45996   4.963  12.405   3.844  0.3275 -0.4390  0.1398
29149W        W45997  11.126  13.205   2.898  0.0195 -0.2574  0.2356
29150W        W45998  16.853  11.388  13.157  0.3521  0.1696  0.0399
29151W        W45999  13.466   3.062   5.391 -0.1219  0.1378 -0.0672
29152W        W46000   6.679   6.939  10.585 -0.2884 -0.1748  0.0603
29153W        W46001  13.232  14.484   2.659  0.2092  0.1153  0.3613
29154W        W46002  11.628   8.216   1.854 -0.1677 -0.1308  0.1189
29155W        W46003  10.016   6.705   4.906 -0.1629  0.2482 -0.1590
29156W        W46004   7.534   5.050   0.870 -0.1435  0.4280  0.0612
29157W        W46005  17.017  10.936   3.554  0.0023  0.1851 -0.0565
29158W        W46006  17.593   2.240  10.375 -0.1547 -0.0358 -0.0747
29159W        W46007   8.175  16.698  15.915  0.0791  0.2855 -0.2059
29160W        W46008   2.534  13.510   2.806  0.2104 -0.0725  0.1297
29161W        W46009   4.099   1.122   1.570  0.1401  0.2932  0.0687
29162W        W46010   0.746  16.527   3.817  0.0963  0.0410 -0.2206
29163W        W46011   0.700   4.449   4.052 -0.0173 -0.1760  0.1162
29164W        W46012  11.555   6.385  15.630  0.3099 -0.1071 -0.0413
29165W        W46013  13.082   6.895   1.891 -0.1116 -0.0050 -0.1089
29166W        W46014   5.624   1.063   1.738  0.1980  0.0789 -0.0501
29167W        W46015  13.640  13.745  12.967  0.0459 -0.0206  0.2850
29168W        W46016   9.776  11.261  15.747  0.0076  0.2637 -0.3644
29169W        W46017   7.295   0.883  12.246 -0.1196 -0.0659  0.3319
29170W        W46018   4.573  16.386  14.149  0.1932  0.1496 -0.0478
29171W        W46019   5.993   2.585   1.756 -0.3474  0.2395  0.3094
29172W        W46020   4.364   6.758   5.361 -0.0953  0.0262  0.0649
29173W        W46021   2.815  11.100   3.980  0.0573 -0.1048 -0.2577
29174W        W46022   8.339   3.333  12.226 -0.2324 -0.2659  0.0763
29175W        W46023   1.823   5.555   3.266  0.2315 -0.1876 -0.0417
29176W        W46024   7.669   5.802   3.351  0.0988 -0.0826 -0.1488
29177W        W46025   5.256   8.179  15.131  0.3776 -0.1102  0.1274
29178W        W46026   8.884  17.141   0.870  0.0987  0.2080 -0.3497
29179W        W46027  15.135   6.817  14.189 -0.1172  0.0903  0.1344
29180W        W46028   5.401   4.763   4.246  0.0087 -0.2529  0.1417
29181W        W46029   4.261  13.550  12.594 -0.1812  0.0200 -0.0169
29182W        W46030   5.785  11.701   6.215  0.2968  0.0861  0.0626
29183W        W46031   7.794  16.654   5.065 -0.1631 -0.1166 -0.0974
29184W        W46032  10.527   7.302  13.352 -0.3128  0.2320  0.1375
29185W        W46033   2.179  15.518   3.985  0.2601  0.1539 -0.1012
29186W        W46034   7.872   6.180   3.670 -0.1334  0.0862 -0.0937
29187W        W46035  13.718  10.885  14.133  0.0308  0.1872  0.1661
29188W        W46036   0.186  11.133   2.368  0.2668 -0.0573 -0.1316
29189W        W46037   7.893   9.121  13.552 -0.1398  0.1163 -0.1000
29190W        W46038  12.240   0.118  11.565  0.2452 -0.0998  0.2557
29191W        W46039   8.362   7.494   0.672 -0.0616 -0.2201  0.1299
29192W        W46040   0.082   9.550   0.062  0.1706  0.1981  0.0108
29193W        W46041   2.367   7.836   5.288 -0.0292 -0.2495 -0.0645
29194W        W46042   4.321   8.061  14.300 -0.1565 -0.1741  0.1155
29195W        W46043   5.471   0.372  13.088  0.1625  0.2673 -0.2265
29196W        W46044   1.617  10.602  15.168  0.2278  0.4163 -0.0150
29197W        W46045   9.286   1.360  16.260  0.0018  0.1646  0.1404
29198W        W46046  11.135  10.971  15.238 -0.2450  0.0436  0.1252
29199W        W46047   2.358   0.533  12.637  0.0665  0.0085 -0.0718
29200W        W46048  12.474  13.973  11.445  0.0431  0.1891 -0.1060
29201W        W46049  16.074   5.774  15.517 -0.0475  0.4719 -0.1569
29202W        W46050  15.536  13.069  16.233 -0.4631 -0.4184 -0.1703
29203W        W46051   0.783  13.953  15.820  0.3511  0.1453 -0.0445
29204W        W46052   7.281   8.262  11.863  0.0936 -0.1856 -0.0186
29205W        W46053   7.370   8.020  12.850  0.2369 -0.2643 -0.0380
29206W        W46054   0.250   3.074   0.871 -0.1341 -0.2382  0.1930
29207W        W46055  18.041   4.705  11.734  0.2663 -0.2468 -0.2541
29208W        W46056  14.627  17.613  11.565 -0.3776 -0.0534 -0.0622
29209W        W46057  16.224  10.220   2.819 -0.4596 -0.0875 -0.3525
29210W        W46058  15.200   7.440  11.882 -0.0111  0.4042  0.1632
29211W        W46059   3.152   8.508  12.422  0.0458 -0.0350  0.2779
29212W        W46060  12.532  13.034   3.193 -0.0580 -0.1100  0.1694
29213W        W46061   3.004   1.359   4.948  0.1445  0.1331  0.1917
29214W        W46062   7.916  12.649   4.327 -0.2202 -0.1023  0.0458
29215W        W46063  12.314   3.005   3.944  0.1567  0.2738 -0.0126
29216W        W46064   3.273  11.853  13.011 -0.0149 -0.0954  0.3671
29217W        W46065   8.517   7.457   5.557  0.1733  0.2041 -0.1360
29218W        W46066   9.494  14.721   3.806  0.0183 -0.2661 -0.0417
29219W        W46067  16.301  15.658  13.817  0.0078  0.0273 -0.0094
29220W        W46068   5.080   6.416   5.154 -0.0680  0.0558  0.0962
29221W        W46069  10.779  14.291   1.941 -0.2866 -0.0587 -0.1679
29222W        W46070   7.743  10.464   4.053  0.3960 -0.0567 -0.2858
29223W        W46071  10.699   8.180  15.287  0.1931 -0.0369 -0.0351
29224W        W46072  14.119  17.110   0.408 -0.0863  0.0967 -0.0414
29225W        W46073  10.162  17.427   2.400  0.2208 -0.3944 -0.0004
29226W        W46074   0.895   1.334  12.467 -0.1708 -0.0323  0.1782
29227W        W46075   1.719  10.713  15.622 -0.0433 -0.0942 -0.5020
29228W        W46076   6.239  15.441  11.582 -0.0006 -0.2112  0.1236
29229W        W46077  16.657   8.457   1.908 -0.0222 -0.1941 -0.0523
29230W        W46078  12.619   8.522  13.703  0.0406  0.3695  0.2430
29231W        W46079   0.199  17.391  12.544  0.1279  0.0341 -0.2269
29232W        W46080  14.410   2.647   3.743  0.0472  0.1127 -0.3192
29233W        W46081   3.707   0.130  12.948  0.0984  0.3578  0.1424
29234W        W46082   4.991  14.284  14.106  0.0449  0.1774  0.3196
29235W        W46083   4.081   1.692   1.133  0.0136 -0.1799 -0.0565
29236W        W46084  14.777  10.276  11.992 -0.0439  0.1197  0.0945
29237W        W46085  17.709   9.596  12.061  0.4809  0.0843 -0.0235
29238W        W46086   5.967  17.682  12.166  0.0220 -0.1617  0.0447
29239W        W46087   4.516   6.880   2.446 -0.0533 -0.4149  0.2944
29240W        W46088   0.175   8.601  14.815 -0.1683  0.1732  0.0861
29241W        W46089   7.761   1.569   0.522  0.0579 -0.3907  0.0677
29242W        W46090   5.658  14.792  13.515  0.1745 -0.0813 -0.2196
29243W        W46091   1.421  12.656  12.774 -0.1881 -0.0092 -0.1012
29244W        W46092  15.918   0.850   2.846  0.0793 -0.0185 -0.0430
29245W        W46093   9.982  16.506   1.405 -0.3127  0.2828 -0.0515
29246W        W46094   0.887   2.429  13.054  0.0000 -0.0042  0.0911
29247W        W46095  11.966   8.715   0.229 -0.2137 -0.3522  0.1874
29248W        W46096   2.843   7.596   4.521 -0.2025  0.3137 -0.1396
29249W        W46097  15.276   0.776   4.072 -0.2005  0.4419  0.0218
29250W        W46098   0.118  13.894  13.647  0.1170 -0.3961  0.0192
29251W        W46099   9.730  16.177  16.198 -0.2232  0.1719  0.1438
29252W        W46100   5.761  14.238  10.598 -0.1097  0.1127 -0.0026
29253W        W46101  14.642   9.889  12.717  0.2277  0.0558 -0.0330
29254W        W46102  11.620  14.845  12.004 -0.1821 -0.2347  0.3121
29255W        W46103   7.986  15.561   3.770  0.1568 -0.0728 -0.0406
29256W        W46104   8.083  12.350   0.604 -0.0302 -0.1494  0.0726
29257W        W46105   9.856  10.952   4.212  0.0458  0.1201 -0.2162
29258W        W46106   4.949   7.250  11.677 -0.1919 -0.2418  0.1546
29259W        W46107  11.768   5.369   3.573 -0.1607  0.0307 -0.0513
29260W        W46108   2.655   7.413   2.386  0.0078  0.2497 -0.0029
29261W        W46109   2.764  13.936  13.310 -0.0887  0.2618 -0.0797
29262W        W46110   9.766   4.067  14.165  0.0952 -0.0508 -0.0109
29263W        W46111   1.542   1.010   2.173  0.1449  0.1113 -0.1893
29264W        W46112  10.513   9.838  11.350 -0.1223 -0.1554  0.1778
29265W        W46113   3.437  14.465   5.965 -0.2121 -0.0437  0.0455
29266W        W46114   0.064  15.848  12.221  0.0846 -0.1488  0.1873
29267W        W46115   2.124   8.912  14.408 -0.0910 -0.1204 -0.1045
29268W        W46116   0.473   7.957   2.278  0.0933  0.0562  0.1179
29269W        W46117  13.155  10.450  16.127  0.4313  0.1121 -0.0665
29270W        W46118   1.723   5.838  13.368  0.2622  0.1594  0.1030
29271W        W46119   2.396   3.193  13.630  0.2210  0.0952 -0.0422
29272W        W46120   7.727   5.511  13.176 -0.0795 -0.2623  0.1233
29273W        W46121   0.678   6.346  12.979  0.0521 -0.2750 -0.1420
29274W        W46122  16.304   0.707  11.785 -0.2369 -0.0839  0.0994
29275W        W46123   1.234  15.631   2.915 -0.2166 -0.2316 -0.0214
29276W        W46124   9.349  13.996   1.213 -0.0868 -0.2311 -0.0971
29277W        W46125  12.960   0.637   2.703  0.2791 -0.1141 -0.3410
29278W        W46126  17.375   2.752  15.505  0.2127 -0.0056 -0.3945
29279W        W46127   5.858  12.030  15.546  0.0584 -0.2993 -0.0368
29280W        W46128   4.861   0.375  13.507 -0.0103 -0.1881  0.0501
29281W        W46129  11.562  17.357  13.574 -0.1160 -0.2843 -0.1223
29282W        W46130  16.733  10.604  13.796  0.0331  0.0826  0.0994
29283W        W46131  15.877   8.012  14.487  0.3595 -0.2702 -0.2376
29284W        W46132  11.484  14.302  15.923  0.0041 -0.2170  0.1798
29285W        W46133   0.576   1.883   2.522  0.0873  0.4697  0.1293
29286W        W46134  13.261   6.859   4.170  0.2097 -0.0862  0.1857
29287W        W46135  11.943   7.553  11.992 -0.0056 -0.1008 -0.1156
29288W        W46136  13.435   4.555   4.956 -0.0368  0.0895 -0.0311
29289W        W46137  15.507  15.201  16.144 -0.2448 -0.1525 -0.1071
29290W        W46138  12.712   2.943   3.613 -0.0226 -0.2431  0.2469
29291W        W46139   3.234   1.610  15.200 -0.1176  0.0896 -0.0364
29292W        W46140   3.833  15.081   1.714  0.0666 -0.2138  0.0434
29293W        W46141   6.477   7.224   2.691 -0.0647 -0.0797 -0.3078
29294W        W46142   1.085  17.753   4.055  0.1119  0.0248  0.0224
29295W        W46143   8.263  11.014  14.689 -0.0418 -0.1882  0.2109
29296W        W46144  17.379  14.783  11.044  0.1656 -0.4330  0.3915
29297W        W46145   3.629  11.859   1.869  0.1123 -0.0541  0.1525
29298W        W46146   4.271  10.292   2.605  0.2554 -0.0455  0.0370
29299W        W46147  16.238  13.927  13.818 -0.0084 -0.0380 -0.2519
29300W        W46148  10.147   1.837   4.959  0.2708 -0.1487  0.0498
29301W        W46149  17.311   0.284  12.749  0.0011  0.0937  0.3380
29302W        W46150  17.541   3.174   0.967 -0.0640 -0.1661 -0.1587
29303W        W46151   9.968  13.211   5.207  0.1514  0.3117  0.2903
29304W        W46152   3.422   5.463  13.594  0.0566 -0.1798  0.1498
29305W        W46153  13.072   6.315  15.077 -0.0561  0.0680  0.1221
29306W        W46154   1.682  14.143   2.894 -0.4712 -0.0478 -0.3324
29307W        W46155  13.739   8.305  14.983  0.1029 -0.3739 -0.0233
29308W        W46156   3.385  16.071  14.807  0.1431  0.0453 -0.0673
29309W        W46157   5.058   1.814  13.271 -0.3400  0.2032  0.1660
29310W        W46158  15.055   5.257  12.815 -0.1328  0.0528 -0.2242
29311W        W46159   6.545   0.686   2.107  0.1701 -0.0948  0.1507
29312W        W46160   9.669  15.216  13.196 -0.4218  0.1266 -0.3633
29313W        W46161  13.771  13.364  12.098  0.0922 -0.1831 -0.4490
29314W        W46162  10.101   3.128   0.162  0.1061  0.2247  0.0775
29315W        W46163   8.686   6.441  11.632 -0.0098  0.1162  0.0688
29316W        W46164   3.054  16.363  15.764  0.3984  0.0792 -0.2448
29317W        W46165   0.893  15.118  13.614 -0.0171  0.2811  0.2692
29318W        W46166   9.271   4.570   0.160 -0.2955  0.1607  0.2188
29319W        W46167   7.946   9.898   1.039 -0.1099 -0.0117 -0.1030
29320W        W46168  14.848   4.364  12.573 -0.0162 -0.0088 -0.0074
29321W        W46169   5.173  13.931   3.356  0.0813 -0.1158  0.0718
29322W        W46170   1.839  14.617  13.611  0.3549  0.0682 -0.1287
29323W        W46171   5.908  16.127  14.835  0.5312  0.0775 -0.1685
29324W        W46172  12.998  11.137  11.203  0.3523  0.1130 -0.0440
29325W        W46173   4.449  11.036  15.336  0.2838  0.0792 -0.0384
29326W        W46174  15.022   0.022   3.197  0.1171  0.1698 -0.1336
29327W        W46175   5.513   2.184  15.032  0.4758 -0.3112 -0.2329
29328W        W46176   8.331   9.110  13.206  0.1898  0.0800  0.1671
29329W        W46177  11.210   3.665   2.872  0.0447  0.0867  0.0033
29330W        W46178  11.880   7.087  16.271  0.0272  0.4144  0.1809
29331W        W46179  13.532   9.680   0.890  0.0878  0.1225 -0.4265
29332W        W46180  11.442   5.872   1.711 -0.3347  0.0102  0.0863
29333W        W46181   3.282  11.317  12.714  0.1955  0.2086  0.1959
29334W        W46182   9.308  14.484   2.724  0.2123 -0.1733  0.0623
29335W        W46183   7.183  15.799   4.261  0.0881  0.1365  0.1293
29336W        W46184   4.486   9.070   2.027  0.0928  0.1378 -0.4052
29337W        W46185   0.361   9.842  11.636  0.1291 -0.1570 -0.1807
29338W        W46186  14.545   9.882   3.856 -0.0144 -0.3657 -0.1618
29339W        W46187  17.589  17.894   1.818 -0.3084 -0.1444  0.0967
29340W        W46188  13.446  16.898  12.400 -0.2339 -0.2907  0.0479
29341W        W46189   4.613   1.657   3.606 -0.1093 -0.0100  0.2148
29342W        W46190   8.282  17.081  14.963 -0.1965  0.0438  0.2423
29343W        W46191   3.510  18.037   1.007 -0.1113 -0.0657  0.1847
29344W        W46192  15.529  11.091  11.870  0.1690  0.0264  0.1952
29345W        W46193  12.441  15.569   0.472  0.0378 -0.1270 -0.0319
29346W        W46194  10.347   8.351   0.979  0.1160 -0.2273  0.0592
29347W        W46195  13.164  10.213   0.309  0.2728  0.1600  0.0361
29348W        W46196   4.553  10.052   2.114 -0.0900 -0.1718  0.1786
29349W        W46197   0.977   6.555   4.781  0.2977 -0.1745  0.1838
29350W        W46198   1.794  12.647   4.387 -0.1472  0.1950  0.2949
29351W        W46199  11.974   8.240   1.499  0.0332  0.0577 -0.2666
29352W        W46200  13.926  10.161  14.794 -0.4220 -0.3721 -0.1341
29353W        W46201   0.609  17.206   4.990 -0.3379 -0.1716  0.2031
29354W        W46202  16.616   6.168   2.921 -0.1964 -0.1563 -0.0018
29355W        W46203   9.414   8.653  12.459  0.1676 -0.3972  0.0123
29356W        W46204   9.948   8.582  12.137  0.0134 -0.0742 -0.0977
29357W        W46205   6.545   4.474  10.840 -0.2770  0.4852  0.0597
29358W        W46206   0.985   2.637   1.051 -0.5288 -0.5299 -0.0448
29359W        W46207  10.924   8.501   1.037  0.0576 -0.0504 -0.1705
29360W        W46208   6.170  13.940   0.111  0.0731  0.0027 -0.2418
29361W        W46209   6.109  13.881  14.660  0.1551 -0.1611  0.0040
29362W        W46210   1.771  16.447  11.713 -0.0488 -0.1102  0.1414
29363W        W46211  16.571   9.537  11.351  0.0818  0.2992 -0.0662
29364W        W46212  16.604  11.228   3.780 -0.2423 -0.0932 -0.1777
29365W        W46213   5.293   3.817  13.838  0.1476 -0.2038  0.0344
29366W        W46214   6.534  16.600  13.600 -0.1589  0.0033 -0.0160
29367W        W46215   5.387   8.089   1.333  0.0209  0.1460 -0.1534
29368W        W46216  16.961  15.219  14.313 -0.1290  0.1555  0.1839
29369W        W46217   6.173  16.009  11.079  0.0137  0.2639 -0.1049
29370W        W46218   8.979   3.833  11.252  0.0028 -0.0579 -0.1227
29371W        W46219  10.960   5.548  15.169  0.0295  0.2470  0.0558
29372W        W46220   0.928   4.679   5.343 -0.0798  0.0153  0.3055
29373W        W46221   1.743  14.554  12.397 -0.0221  0.0682 -0.0290
29374W        W46222   4.097  15.187   4.686  0.1636 -0.1011  0.0084
29375W        W46223  10.093   6.776  13.594  0.2489 -0.1987  0.1433
29376W        W46224  16.341  15.050  13.465  0.1415 -0.1109  0.0189
29377W        W46225  12.867   6.395  12.391  0.1185 -0.0699  0.0488
29378W        W46226  15.217   4.039   1.804 -0.0883 -0.2262  0.0236
29379W        W46227   2.124   7.169  15.273 -0.2802 -0.1645  0.1722
29380W        W46228   2.693   6.542   1.373  0.0134 -0.2434  0.1359
29381W        W46229   6.533  11.894  14.091 -0.0283  0.2169 -0.3250
29382W        W46230   8.826   2.472  11.207 -0.0739  0.5285  0.1908
29383W        W46231   5.891   3.595  13.637 -0.0626  0.0665  0.0210
29384W        W46232   3.354  16.972  13.101  0.1395  0.1435  0.0268
29385W        W46233  12.367   0.089  14.251 -0.2516  0.0649 -0.1915
29386W        W46234  11.440  16.423  12.359  0.1244  0.0390  0.1299
29387W        W46235   5.132  15.044   1.951  0.0847 -0.1656 -0.3724
29388W        W46236   7.126   5.570   0.242 -0.1212  0.0255  0.0215
29389W        W46237  12.017   5.890  14.401 -0.3024 -0.2028  0.1557
29390W        W46238   1.202  10.119  16.078  0.1147 -0.3102 -0.5137
29391W        W46239   7.800   9.372   5.055  0.4253 -0.3437 -0.3685
29392W        W46240   9.983  14.124   2.451  0.2954  0.1100  0.0747
29393W        W46241  12.102  12.429  13.708 -0.3238  0.2411 -0.0492
29394W        W46242   5.718   1.745   4.794 -0.1317  0.0423  0.5119
29395W        W46243  15.575  11.962  13.716  0.1299  0.2709  0.0166
29396W        W46244  10.925  10.954   0.412 -0.0677 -0.0095 -0.0609
29397W        W46245  12.185  12.081   3.298 -0.1424  0.0111 -0.0888
29398W        W46246  17.331   7.865   3.932 -0.0058  0.0586 -0.0944
29399W        W46247  14.737  12.181   2.439  0.1339 -0.4509  0.1195
29400W        W46248  10.234   3.642  14.153 -0.2292 -0.2471 -0.2067
29401W        W46249  11.854  10.562  15.707 -0.4561  0.0680 -0.0919
29402W        W46250   6.206   2.566  13.849  0.0974 -0.1270 -0.1298
29403W        W46251   5.160   9.880   4.104  0.0188  0.3567 -0.1687
29404W        W46252   0.105  16.648   6.267 -0.0848 -0.0265 -0.1978
29405W        W46253   4.154   9.155  12.489 -0.2289  0.1583  0.2456
29406W        W46254   5.207   7.276   0.821 -0.0308  0.1426 -0.0111
29407W        W46255  16.411   5.957  14.086  0.5390  0.0235  0.1983
29408W        W46256  11.768   6.965   2.259  0.1954 -0.0930  0.3115
29409W        W46257   6.038   2.931   0.099  0.0102 -0.0730  0.2127
29410W        W46258  14.473   8.090   2.022 -0.1111  0.0004  0.2231
29411W        W46259   8.440   8.904   1.367 -0.2619 -0.1002  0.0120
29412W        W46260  13.055   7.158  15.394  0.4507  0.2085  0.1088
29413W        W46261  10.637   2.056  11.327  0.2932  0.0089  0.0347
29414W        W46262  11.970   9.051   0.992 -0.1820 -0.3050 -0.1694
29415W        W46263  14.462  17.708  15.932  0.0765  0.2505  0.1773
29416W        W46264   4.896   8.034  16.160  0.1183 -0.1938  0.0213
29417W        W46265  11.681  13.345   0.811  0.1393  0.1947  0.1989
29418W        W46266  17.486  10.978   4.330 -0.2264 -0.2281  0.3860
29419W        W46267   4.108  15.149   3.832 -0.2999  0.2295  0.1163
29420W        W46268   6.826   4.473   4.590 -0.4387  0.0616 -0.3371
29421W        W46269  14.466  13.493   2.295 -0.0010  0.3944  0.1508
29422W        W46270  14.960   9.964   5.871  0.5295  0.1324  0.0738
29423W        W46271  15.000  13.287  16.213  0.0620  0.0476  0.2107
29424W        W46272   2.424  12.579   2.514 -0.1573 -0.1463 -0.0711
29425W        W46273  11.806  15.350  12.464 -0.0743  0.2056  0.0271
29426W        W46274   1.625  14.193  12.033  0.1919 -0.1961 -0.1380
29427W        W46275   5.363   3.897   0.612  0.0194  0.0774 -0.0576
29428W        W46276   9.696  15.774   1.227 -0.0952 -0.0116 -0.1244
29429W        W46277   2.125  12.078   1.799  0.1482 -0.1214  0.1731
29430W        W46278  14.659  15.315   0.854 -0.3275  0.5442 -0.3365
29431W        W46279   1.925  15.359   2.372 -0.0070  0.1057  0.0661
29432W        W46280  15.958   8.443  12.361 -0.1114  0.0232  0.0842
29433W        W46281   9.344  11.463  10.228 -0.1357 -0.1752  0.0081
29434W        W46282  14.823  10.313   4.052 -0.0476 -0.2038 -0.1033
29435W        W46283  11.577   4.660  15.601 -0.0938 -0.0225 -0.1330
29436W        W46284   9.833   0.576   0.365 -0.0711  0.0578 -0.0609
29437W        W46285   4.437   3.690   5.355 -0.3481  0.1906 -0.1681
29438W        W46286   6.392  17.917  14.571 -0.0546  0.1407  0.1129
29439W        W46287   6.212  10.671  11.263 -0.0335 -0.0196 -0.0385
29440W        W46288  10.651   1.419   4.172  0.1572  0.3801 -0.0990
29441W        W46289   5.193  10.711  12.338  0.0260 -0.4000 -0.2194
29442W        W46290   2.010   1.403   2.177 -0.0201  0.1774  0.3911
29443W        W46291   8.111   5.902  13.155 -0.0851 -0.2430 -0.1143
29444W        W46292   8.051   5.720   2.942  0.2358  0.1366 -0.2154
29445W        W46293  11.106   6.574  13.258  0.0087  0.2050 -0.0851
29446W        W46294   5.475  14.395  13.897 -0.3019 -0.1536  0.1253
29447W        W46295   6.874  16.234  13.515 -0.1882 -0.0059 -0.2007
29448W        W46296   1.264   0.462  13.880  0.0302 -0.0499  0.0125
29449W        W46297  14.968   9.291  14.999 -0.0650  0.0350  0.0520
29450W        W46298  14.134   1.454  12.621 -0.4929 -0.0737  0.2355
29451W        W46299  14.644  13.971   3.898 -0.0661 -0.0814  0.2408
29452W        W46300  12.585  11.581  15.719 -0.1617 -0.0354  0.2658
29453W        W46301  11.421   9.314  11.052  0.0541  0.3016 -0.1280
29454W        W46302   7.182  11.936   3.428  0.0475  0.1934  0.2497
29455W        W46303   5.556   8.643  15.128  0.0362  0.1445 -0.1130
29456W        W46304   7.361  12.574  13.967 -0.4025 -0.0151 -0.0992
29457W        W46305   2.648  14.854  13.424  0.0331 -0.0778  0.0351
29458W        W46306   5.046   0.634  13.127  0.3097 -0.1104 -0.2920
29459W        W46307  15.512  13.760   1.867 -0.0150 -0.2037  0.0262
29460W        W46308   7.021   6.880   4.522  0.0082  0.1862 -0.2912
29461W        W46309   4.996   4.482   4.287 -0.0355 -0.0291  0.0597
29462W        W46310  16.189   8.864  12.586  0.0626 -0.3106  0.2934
29463W        W46311  13.498  15.785  12.779 -0.0594  0.1029  0.2756
29464W        W46312   7.239  13.229   4.154  0.0093  0.2390  0.2835
29465W        W46313   3.049   3.477  13.765  0.1039  0.0377  0.0689
29466W        W46314  17.268   0.097   2.179  0.0043  0.1137  0.1952
29467W        W46315   6.020   4.582  12.811  0.3014  0.0282  0.1435
29468W        W46316   0.920   4.585  15.371  0.2681 -0.0274 -0.0561
29469W        W46317   5.977   8.421  12.693 -0.0254 -0.1769 -0.1406
29470W        W46318  15.636   2.152   0.517  0.0601  0.2139 -0.0919
29471W        W46319   5.968   0.937   5.053 -0.2238  0.1842  0.0918
29472W        W46320  16.737  10.076  13.727  0.0778  0.2343  0.1607
29473W        W46321  11.511  11.711   4.538  0.0436  0.2551  0.2120
29474W        W46322   6.560   7.491   1.895  0.0451 -0.4328 -0.1018
29475W        W46323  11.953  13.583   4.956  0.0927 -0.1710  0.1366
29476W        W46324  12.509   4.443   2.885  0.0594  0.0704  0.0999
29477W        W46325   4.010  13.233  12.339  0.1294  0.0302 -0.0385
29478W        W46326  10.150  12.850  13.837  0.0294 -0.3619  0.1294
29479W        W46327  11.165  11.463   0.158 -0.1366 -0.0550  0.0403
29480W        W46328  17.000   2.672   5.354  0.0210 -0.0157  0.2293
29481W        W46329   3.292   3.226   1.499  0.0993  0.2651  0.2942
29482W        W46330   5.699   7.325  13.632  0.0432  0.0026 -0.0302
29483W        W46331   1.619  15.452  11.898  0.1527  0.2204  0.3572
29484W        W46332  12.157   7.006  15.876  0.1176  0.0185  0.2430
29485W        W46333   0.889  14.507  12.702 -0.4096  0.0236 -0.3412
29486W        W46334  11.904  12.196  12.607  0.2511 -0.2999  0.0567
29487W        W46335   8.748   7.528   2.334 -0.1048 -0.2758  0.0529
29488W        W46336   0.187  15.307   3.755 -0.0095  0.2857  0.0823
29489W        W46337   9.862   3.575   2.867 -0.5161 -0.0614 -0.0687
29490W        W46338   5.139  14.267  15.245  0.0199 -0.0401 -0.5148
29491W        W46339  14.622   2.817   1.940  0.0148 -0.2754  0.1865
29492W        W46340   4.901  12.848  14.571  0.0809  0.1510 -0.0294
29493W        W46341   2.150  12.263  12.212  0.3143  0.4061 -0.1122
29494W        W46342   7.315   3.102   5.085  0.0679  0.1871 -0.0966
29495W        W46343   9.553   8.435   1.878 -0.2428 -0.3342  0.0496
29496W        W46344   7.615  15.769  13.133 -0.0832  0.0304 -0.0185
29497W        W46345   3.413   5.812   5.776 -0.0538 -0.2663  0.1290
29498W        W46346  13.517  10.055  13.426 -0.1176  0.0241  0.0055
29499W        W46347  15.921   6.776   5.360  0.0877 -0.0551  0.0988
29500W        W46348  17.248   4.941  14.411  0.0056  0.0510  0.1639
29501W        W46349  16.085   9.638   1.064 -0.0335 -0.3437 -0.0927
29502W        W46350   3.096  10.364  14.712  0.0455 -0.1314 -0.1348
29503W        W46351   9.146  18.010   0.455  0.3576  0.0307 -0.1834
29504W        W46352  17.949  10.832   1.879 -0.1405  0.3702 -0.2189
29505W        W46353  13.205   9.872   4.925  0.1426 -0.3592  0.0271
29506W        W46354  13.898   2.610  12.983  0.3166  0.0676 -0.0539
29507W        W46355  10.577   7.115   0.096  0.2814  0.0837 -0.0492
29508W        W46356  12.166  10.541  12.268 -0.2567  0.1250  0.2632
29509W        W46357  13.034  13.798  14.773  0.2147  0.0763  0.2398
29510W        W46358   8.755  12.174  10.545 -0.3401  0.2406  0.0719
29511W        W46359  14.021   6.671  15.009  0.1603 -0.0377  0.2582
29512W        W46360  13.355   5.145  11.084 -0.0546 -0.2674 -0.2323
29513W        W46361  15.149   4.549   4.348  0.0925  0.1871  0.3637
29514W        W46362   2.680   0.543   0.695  0.0347  0.2674 -0.2058
29515W        W46363  10.924  11.654   4.280  0.1422 -0.0933 -0.1510
29516W        W46364   2.821  11.047   1.804 -0.1430  0.0151 -0.2047
29517W        W46365   1.738   2.761   5.924 -0.1730 -0.0461 -0.3464
29518W        W46366   9.237   6.641  13.454 -0.0742 -0.0062 -0.0669
29519W        W46367   6.788   4.007   0.326 -0.0650 -0.4104 -0.1465
29520W        W46368   7.647   8.394  12.599  0.0406 -0.1642  0.0350
29521W        W46369   5.296  15.892  15.541 -0.3312  0.1691 -0.1956
29522W        W46370  16.459  14.499   0.535 -0.0515  0.0679  0.0706
29523W        W46371   5.014  14.863  15.829 -0.3486 -0.2368  0.2072
29524W        W46372  10.009  12.981   1.591  0.0248 -0.2756 -0.3270
29525W        W46373  12.636   7.352  11.371  0.0057 -0.1996  0.0712
29526W        W46374   4.636  17.099   3.793 -0.0620 -0.2158  0.1847
29527W        W46375   0.111   5.851  14.381  0.2831 -0.0835  0.0574
29528W        W46376   5.730   9.462   3.729 -0.0149 -0.0387  0.0726
29529W        W46377  11.009   3.948  12.777  0.1744  0.1694 -0.4056
29530W        W46378   0.972  17.978  15.169  0.0420  0.0330  0.2173
29531W        W46379   6.130  14.380   1.277 -0.3154 -0.0388  0.1054
29532W        W46380   9.000   6.172  14.026  0.1288 -0.0933  0.0280
29533W        W46381  10.579   4.351   5.296  0.3232  0.0545 -0.1726
29534W        W46382  18.047   8.529  13.055 -0.1748  0.2607  0.1262
29535W        W46383   1.074  16.946  11.042 -0.0288 -0.1858 -0.1530
29536W        W46384  10.964   7.394  13.594  0.2750  0.3782 -0.1035
29537W        W46385  10.246  16.561   0.895  0.1108  0.1796 -0.0681
29538W        W46386  15.083  14.130   3.614 -0.1345  0.4519 -0.1662
29539W        W46387  11.744   2.319   0.491  0.3452 -0.2825  0.1073
29540W        W46388  10.812  11.905   3.812 -0.0914  0.2525  0.1803
29541W        W46389   6.540  12.373  10.713 -0.2114  0.0503  0.1635
29542W        W46390  16.911  10.883   2.172  0.0021  0.3304  0.0367
29543W        W46391  12.002   6.651  12.284  0.1376 -0.1609 -0.2436
29544W        W46392   3.027   4.325   0.105  0.0954 -0.2821  0.0011
29545W        W46393   4.467   6.085  12.695 -0.1239 -0.1671 -0.1219
29546W        W46394   0.888  11.596  11.042 -0.2041 -0.1601 -0.1090
29547W        W46395   7.835  15.535   3.207  0.0539 -0.0231  0.0558
29548W        W46396  15.351   0.351   4.770  0.0875  0.3527 -0.1359
29549W        W46397   0.521   7.812  11.989 -0.2570 -0.0187  0.1303
29550W        W46398  13.393  13.504   0.149  0.0529  0.0397  0.0139
29551W        W46399   0.316   2.735   0.063 -0.1551 -0.1438  0.2117
29552W        W46400  18.004  15.989   3.270 -0.0726 -0.1658  0.4807
29553W        W46401   1.518  17.380   4.807 -0.3024 -0.2753 -0.1765
29554W        W46402   6.119  17.516   4.272  0.2211 -0.0357 -0.0376
29555W        W46403  11.793  15.526   2.525  0.0207  0.0720 -0.0893
29556W        W46404  11.975  13.646  12.040 -0.0520 -0.0299  0.0676
29557W        W46405  10.509   8.095   2.742  0.1210  0.2698  0.2642
29558W        W46406   0.876  15.410   2.345 -0.0830  0.6190 -0.0540
29559W        W46407  11.417   2.456   4.119  0.1697 -0.2104 -0.2006
29560W        W46408   3.759   5.335  12.696  0.3930 -0.0053  0.1660
29561W        W46409  14.817  15.583   0.445 -0.0497 -0.2720  0.0291
29562W        W46410   8.508  15.799  16.182  0.0473  0.2014 -0.1392
29563W        W46411   7.578   5.491   5.290  0.1333 -0.0672  0.1897
29564W        W46412  11.567   4.908  14.698  0.0894 -0.2523  0.1091
29565W        W46413   5.442   9.620  11.303  0.1621  0.3854 -0.0848
29566W        W46414   1.677  16.266   1.372  0.2902  0.0892  0.3671
29567W        W46415   1.919  14.446   4.139 -0.3574 -0.3016  0.3545
29568W        W46416   4.488   1.499  15.427 -0.2107  0.0627 -0.2607
29569W        W46417   1.516   4.563   3.845  0.1705  0.3149  0.2259
29570W        W46418   9.704  10.648   3.340 -0.1143  0.1318  0.1085
29571W        W46419  14.286   5.631  13.540 -0.1586 -0.3417 -0.0831
29572W        W46420   6.881  15.092   0.612 -0.0433  0.0922 -0.0555
29573W        W46421  10.000  13.703   5.316  0.0252 -0.1102  0.1468
29574W        W46422  17.154   7.030   0.594 -0.0260  0.2757 -0.0640
29575W        W46423   3.668   3.201  12.067 -0.3049  0.3284  0.0875
29576W        W46424   3.146  16.019  13.021  0.1599 -0.0163  0.3946
29577W        W46425   1.893  11.280  11.229 -0.1459  0.0702 -0.3827
29578W        W46426  15.541  16.977   1.741 -0.0194 -0.2437  0.0650
29579W        W46427   8.160   9.849  12.839 -0.0598  0.0148 -0.1517
29580W        W46428   2.246   5.563  13.668 -0.1683  0.3016 -0.1459
29581W        W46429   0.678   2.477   4.316 -0.1302 -0.1137 -0.1126
29582W        W46430   6.459   5.137  12.770 -0.1459  0.2450 -0.2791
29583W        W46431   7.166   2.567   5.152 -0.2890 -0.1129  0.3942
29584W        W46432   1.115  12.604  11.783  0.1641  0.0395 -0.3110
29585W        W46433   5.884  10.553   5.210  0.3919 -0.2506 -0.0513
29586W        W46434  11.074   4.606   5.225 -0.3659 -0.1458  0.5733
29587W        W46435  11.522   8.441   2.576  0.0598  0.1574 -0.1088
29588W        W46436  11.833   4.622  16.078  0.1746 -0.1288  0.1840
29589W        W46437  17.739  17.919   2.877  0.0132 -0.1578  0.0653
29590W        W46438   2.770   7.016   1.601  0.0561  0.1409 -0.3135
29591W        W46439  11.988  17.759  13.130 -0.0656 -0.1832 -0.1445
29592W        W46440   7.407  11.616  14.778  0.0696  0.3584  0.2920
29593W        W46441  16.766   0.631   1.655  0.0995  0.2309 -0.2592
29594W        W46442   4.757   7.642   4.835  0.2279  0.1272  0.4171
29595W        W46443  15.182   1.667   4.210  0.3422  0.1209  0.3676
29596W        W46444   2.474  16.773   2.400  0.1219 -0.3568  0.4426
29597W        W46445  11.675   2.720  12.842 -0.1193  0.3142  0.1982
29598W        W46446   2.206  10.768  13.550  0.3176 -0.1037 -0.0913
29599W        W46447  12.081  11.363   3.828 -0.0167 -0.3230 -0.0646
29600W        W46448   3.227   6.881  12.538  0.3883 -0.0424 -0.0649
29601W        W46449  12.554   3.729  15.935  0.1800  0.0167  0.2074
29602W        W46450   0.613   6.260   4.259 -0.0334 -0.1616  0.2181
29603W        W46451   1.567   6.240  11.618  0.0349  0.1458  0.0854
29604W        W46452  12.763  13.417  12.626 -0.2590 -0.3206 -0.2864
29605W        W46453   0.799   4.345   4.963  0.0541  0.0101  0.0735
29606W        W46454   4.253  12.800   3.415  0.0055  0.1294  0.0198
29607W        W46455  16.223  15.970   2.962  0.0952 -0.0798 -0.3340
29608W        W46456  12.566   3.156   5.781 -0.0592  0.2047  0.0297
29609W        W46457  16.482  17.883   2.167 -0.2084  0.2788 -0.3155
29610W        W46458  10.125  16.469   4.855 -0.2617  0.0234 -0.1698
29611W        W46459  10.150   7.113   4.627 -0.0390  0.0856  0.0204
29612W        W46460   4.903  13.749  12.962  0.1130  0.0164 -0.1735
29613W        W46461   0.807   1.851   4.002  0.0690 -0.2828 -0.4481
29614W        W46462   6.607   9.122  14.637  0.0062 -0.1304  0.0666
29615W        W46463   6.267  14.130  11.425  0.1148  0.1447 -0.1381
29616W        W46464   2.630  11.680  14.412 -0.0326  0.0661  0.3458
29617W        W46465  13.474   4.694   2.595 -0.1879 -0.3064 -0.0011
29618W        W46466   0.532  13.023  11.539  0.0750 -0.0471  0.2455
29619W        W46467   0.972   8.187  14.217 -0.1512  0.0972 -0.1661
29620W        W46468   9.069   7.653   2.735  0.1006  0.1948  0.4129
29621W        W46469  18.015   4.064  13.444  0.1072 -0.4152  0.0207
29622W        W46470  15.712   3.104   3.883  0.3889 -0.2208  0.3173
29623W        W46471  11.774   1.639  13.676  0.2005  0.0753  0.0178
29624W        W46472   6.374   0.701  11.008 -0.0429 -0.0043  0.2829
29625W        W46473   6.281  12.412   5.114 -0.0706 -0.3109  0.0133
29626W        W46474   5.500   0.433  15.655  0.3519 -0.1812  0.1586
29627W        W46475  14.953   3.009   4.642 -0.0102  0.1047  0.1398
29628W        W46476  17.258   8.934  11.692  0.1724 -0.1980 -0.3217
29629W        W46477  17.581   3.589  15.147  0.0594  0.0430  0.1811
29630W        W46478   8.885   1.019   5.766 -0.0557  0.0030 -0.2092
29631W        W46479   6.757  12.378  14.304 -0.2596  0.0202 -0.1353
29632W        W46480   0.349  17.094   3.703  0.3930 -0.0728  0.1398
29633W        W46481  11.179   2.114   2.347 -0.0859 -0.2441 -0.2225
29634W        W46482  11.981  10.274  13.979 -0.1453  0.0005 -0.0668
29635W        W46483   4.689  14.632   0.776  0.2398  0.1605 -0.3252
29636W        W46484  17.866   6.749  16.192 -0.0706  0.2924  0.1768
29637W        W46485   9.834   5.068  15.271 -0.1518 -0.1035  0.0050
29638W        W46486   1.352  13.809  14.031 -0.1434  0.0648  0.3531
29639W        W46487   6.008  16.280   2.969  0.1597 -0.0335 -0.0533
29640W        W46488   5.356  11.969   0.099 -0.3268  0.1881 -0.0527
29641W        W46489   2.365   7.866  16.128  0.2083  0.2175 -0.0191
29642W        W46490   9.508   7.712  12.837  0.0156 -0.1600 -0.2415
29643W        W46491   1.502  15.050  13.733 -0.0891 -0.0209  0.1052
29644W        W46492   5.313   0.185  11.776 -0.3347 -0.2097 -0.0096
29645W        W46493   1.569  13.048  12.428 -0.0871  0.0677 -0.2070
29646W        W46494   0.512  11.324  11.324  0.4415  0.0513  0.1140
29647W        W46495  13.394   9.894   1.911 -0.0425 -0.0413  0.4392
29648W        W46496   5.986  15.029   2.408  0.3573  0.0203  0.3156
29649W        W46497   2.661   6.208  15.511 -0.1042  0.2423 -0.2626
29650W        W46498  15.437  13.219  15.786 -0.0311  0.2142  0.0957
29651W        W46499  15.925   3.886  15.350 -0.2453 -0.2520  0.0990
29652W        W46500   2.029  17.240   3.271 -0.0149 -0.2134 -0.1481
29653W        W46501  11.178  10.487  11.789  0.2320  0.0575 -0.0357
29654W        W46502   1.144  10.829   0.516  0.2678  0.1059  0.1942
29655W        W46503  11.557   4.021   1.100 -0.1000  0.0375  0.0706
29656W        W46504   8.408  13.626   3.954 -0.1172  0.3183 -0.1971
29657W        W46505  17.275   5.119  13.174 -0.2284 -0.0012 -0.1212
29658W        W46506  14.221   0.072  12.259  0.0870 -0.1433  0.3221
29659W        W46507  10.459  13.470   5.045  0.1793  0.0597 -0.0786
29660W        W46508   5.668  17.823   3.217  0.0758 -0.1698 -0.1274
29661W        W46509  17.315   9.999  11.662  0.0915 -0.0556  0.0218
29662W        W46510  13.506  16.541  13.753  0.0705 -0.1339  0.0794
29663W        W46511  16.141   7.956  11.854 -0.3595  0.2288  0.2914
29664W        W46512   0.706  10.395   4.198  0.2699 -0.1486  0.1300
29665W        W46513   2.850  16.612   2.123  0.0650  0.1532  0.1108
29666W        W46514   9.346  13.729   1.670 -0.1050  0.0950 -0.0205
29667W        W46515  16.071   6.720   2.232 -0.0474  0.0284  0.0764
29668W        W46516  11.131  17.765  15.312  0.0377 -0.0811 -0.1390
29669W        W46517   4.112  14.425  13.815  0.1354 -0.2366  0.0818
29670W        W46518   0.942   9.365   3.138 -0.4552  0.0449 -0.3707
29671W        W46519   4.289   0.803   1.243 -0.2736 -0.0329 -0.1897
29672W        W46520   4.214   0.392   3.603 -0.0288  0.0982  0.3640
29673W        W46521   4.761   3.533  12.955 -0.0286 -0.0993 -0.0384
29674W        W46522  15.577  17.794   5.505  0.0951 -0.1427 -0.0184
29675W        W46523  17.863  14.804  14.123  0.2146 -0.0943 -0.0807
29676W        W46524  13.973   6.825   0.311 -0.0097 -0.1490  0.0899
29677W        W46525   2.757   3.141   1.660 -0.3077  0.0439  0.1980
29678W        W46526   5.031   2.281  13.436 -0.0287  0.1470  0.1110
29679W        W46527   4.292  11.806   1.751 -0.1146 -0.1480  0.0705
29680W        W46528   4.726   9.033   0.646 -0.1010  0.0551 -0.0243
29681W        W46529   0.473   7.405   2.390  0.0755  0.1000 -0.2941
29682W        W46530   1.825   6.781   4.351 -0.2459  0.1980 -0.0390
29683W        W46531   2.999  15.775  14.963  0.0739 -0.1596  0.2312
29684W        W46532  14.962   9.994  11.094  0.0444  0.1344 -0.2819
29685W        W46533   0.491  12.342  13.575 -0.4499  0.0085  0.0982
29686W        W46534  15.834   6.208   3.150  0.0314  0.1449 -0.0423
29687W        W46535   2.069   9.741   3.051  0.0853  0.0970  0.0286
29688W        W46536  14.925  14.205   4.893  0.1031 -0.1352  0.0508
29689W        W46537   2.828  10.982   3.469 -0.2157 -0.1476  0.0313
29690W        W46538   2.998  13.567   2.426 -0.2442 -0.1121  0.0970
29691W        W46539   6.768  16.290  16.208  0.1832 -0.0489  0.1305
29692W        W46540   3.949   7.308  12.969 -0.4963 -0.1434 -0.1679
29693W        W46541  10.772  15.544   4.916  0.2557 -0.3034 -0.1241
29694W        W46542   8.020  14.538  15.621 -0.2070 -0.3520  0.1398
29695W        W46543   3.983  11.179   0.331 -0.0747  0.0872 -0.0653
29696W        W46544   5.399   3.999  15.951  0.0946 -0.4034  0.2317
29697W        W46545   2.893  10.021   2.814 -0.2556  0.0400  0.0475
29698W        W46546   0.708   5.576   2.181 -0.1367 -0.2587  0.0386
29699W        W46547   7.279   7.759  13.297  0.0155 -0.0202  0.0401
29700W        W46548   1.549  16.108  11.255 -0.0960  0.0921  0.0041
29701W        W46549   3.953  12.520  12.764  0.0843  0.1924 -0.4386
29702W        W46550  14.774  13.052   3.693 -0.2438  0.2250 -0.0713
29703W        W46551   2.605   0.349   2.537  0.2544 -0.0398  0.2026
29704W        W46552   8.881  12.240  11.616  0.1314 -0.1324  0.1760
29705W        W46553  11.267   7.862   4.647 -0.1016 -0.3146  0.0126
29706W        W46554   9.612   5.184   3.559 -0.0460 -0.1309 -0.0434
29707W        W46555  16.877   2.592   2.680 -0.1124  0.0982  0.2399
29708W        W46556   0.404  16.836   2.291  0.2339  0.0463 -0.1551
29709W        W46557   2.177   0.515   4.231  0.0586  0.0507 -0.2626
29710W        W46558  14.555  15.711   4.313 -0.1440  0.0376  0.4281
29711W        W46559   6.914   2.540  10.632 -0.3015  0.0344 -0.1444
29712W        W46560   9.614   4.900   0.855  0.0138 -0.3398 -0.1714
29713W        W46561   9.565   7.686   1.891  0.0531 -0.0891  0.1480
29714W        W46562   5.071  14.415   0.565 -0.3025 -0.3555  0.2913
29715W        W46563  11.142  15.257   4.676 -0.1603  0.1104 -0.0677
29716W        W46564  12.078   7.974   3.424  0.1499 -0.0883 -0.2043
29717W        W46565   4.769   8.278   3.140  0.2995 -0.1355 -0.2993
29718W        W46566  10.432  14.313   3.704 -0.0992 -0.0663 -0.0115
29719W        W46567   4.219   2.971   2.397 -0.0740 -0.0609  0.1263
29720W        W46568   3.787  15.106   0.649 -0.0917  0.3263 -0.0102
29721W        W46569  11.673   0.555   2.915 -0.1061  0.2757 -0.1470
29722W        W46570  15.156   1.032  13.536  0.1224  0.1656  0.1898
29723W        W46571  14.451  14.903   0.159  0.1174 -0.1417  0.0706
29724W        W46572  13.666   2.677  11.429  0.2710 -0.2454 -0.2088
29725W        W46573   6.281   0.640   1.638 -0.0385  0.3585  0.2421
29726W        W46574  11.793   9.246   4.468 -0.1072  0.2035 -0.0960
29727W        W46575   3.013  11.510   4.550  0.0955  0.0122  0.3184
29728W        W46576   2.704   7.827  12.472  0.0215 -0.0008 -0.2416
29729W        W46577   3.170   8.177  13.553 -0.0410 -0.0389 -0.0758
29730W        W46578   9.847  16.128  13.153 -0.1845 -0.3180 -0.3124
29731W        W46579  12.430  12.744   0.382 -0.0183  0.0505  0.1432
29732W        W46580   1.757   6.876  12.870 -0.1875 -0.1764 -0.1748
29733W        W46581  12.088   8.587   0.693  0.1906 -0.1555 -0.4428
29734W        W46582   8.106  15.137   6.392 -0.0604 -0.0053  0.1210
29735W        W46583  10.515   9.731   4.360  0.1047 -0.3895 -0.3393
29736W        W46584  16.990  13.295   4.488 -0.1127 -0.2863  0.1112
29737W        W46585   2.745   8.180  14.444  0.1397 -0.3301  0.0677
29738W        W46586  12.556   4.199  14.109 -0.0878  0.0539  0.0881
29739W        W46587   2.906   8.530  13.300  0.1544  0.0244 -0.0084
29740W        W46588  15.413   3.720   4.921 -0.0065  0.1779  0.1660
29741W        W46589   4.024   7.032   5.126 -0.3024 -0.0228 -0.1108
29742W        W46590  10.102  15.323  12.202  0.1319  0.1468 -0.0939
29743W        W46591   7.815   6.527  12.524 -0.1320  0.0481 -0.0362
29744W        W46592  16.035   7.173   0.948 -0.1485  0.1367 -0.0846
29745W        W46593   6.501   3.028  12.107  0.1424 -0.4325 -0.1062
29746W        W46594   0.168  11.530  12.989  0.0775  0.3469  0.2563
29747W        W46595  17.763   4.821   3.837 -0.0888  0.1280  0.3137
29748W        W46596   8.291  10.069   2.463 -0.2761  0.2044  0.0164
29749W        W46597  15.212  12.834  15.452  0.0421 -0.4107 -0.3422
29750W        W46598   5.228   8.275   4.731  0.3669  0.1402  0.0065
29751W        W46599   1.075   9.035   3.574 -0.1681 -0.0217  0.0774
29752W        W46600  10.804  13.829  12.532  0.2457 -0.2484 -0.2325
29753W        W46601  14.107   0.134  11.772 -0.2246 -0.1527 -0.2087
29754W        W46602   1.676   6.533  14.183 -0.0766  0.2730  0.0997
29755W        W46603  14.817  12.046  13.669 -0.0723 -0.0317 -0.0052
29756W        W46604   9.323  12.793   1.702 -0.2101  0.2337  0.2832
29757W        W46605   2.107   7.367  11.809 -0.0649 -0.0194 -0.1446
29758W        W46606  12.557   7.988  12.009 -0.0823  0.0103  0.0412
29759W        W46607  14.678   2.245   4.201  0.3805  0.1650 -0.2556
29760W        W46608  15.128  10.038   2.535 -0.2458  0.2807 -0.0368
29761W        W46609   3.156   0.120   5.357 -0.3420 -0.0771  0.0787
29762W        W46610   9.660  17.290   4.234  0.1564  0.0775 -0.0512
29763W        W46611   8.925  17.371  15.688 -0.1814 -0.0028 -0.0271
29764W        W46612   3.405   2.668  14.892 -0.1908  0.0055 -0.1228
29765W        W46613  11.274   2.990  12.796 -0.4093  0.2792  0.0112
29766W        W46614  10.189  11.391  13.452 -0.2731  0.0025 -0.2084
29767W        W46615   0.680   5.158   5.039 -0.2988  0.0567  0.0616
29768W        W46616  11.396   3.704   3.731 -0.0757 -0.1426  0.0157
29769W        W46617   9.764  17.681  11.222 -0.3050 -0.0272  0.2147
29770W        W46618  15.199  12.427  11.585 -0.0819  0.0663 -0.2524
29771W        W46619  16.041  14.431  15.837 -0.0203 -0.0108  0.1617
29772W        W46620   4.476   1.465   1.480  0.0405 -0.1521 -0.0436
29773W        W46621   7.770   2.742  13.377  0.1067  0.0441  0.4796
29774W        W46622  16.230   3.825   4.572  0.2185 -0.1555 -0.1299
29775W        W46623  17.033  16.150  16.025 -0.3706 -0.0824  0.0237
29776W        W46624   9.362   2.140  13.440 -0.0237  0.0075 -0.1956
29777W        W46625   6.480   8.242  15.375 -0.3479  0.1006 -0.0496
29778W        W46626   5.268   6.655  14.731  0.1640 -0.2185 -0.0942
29779W        W46627   3.331   9.397   1.194  0.0242  0.1016  0.0922
29780W        W46628  13.728  10.283  15.223 -0.0053  0.0724  0.2984
29781W        W46629   6.617  13.429  10.892 -0.1859 -0.1593 -0.0700
29782W        W46630   9.343  12.997  12.675  0.0100  0.0427 -0.0071
29783W        W46631   8.346   6.855   4.676  0.1299  0.0447 -0.4988
29784W        W46632   8.094  14.030  12.732  0.1736  0.0352 -0.1518
29785W        W46633  14.855   9.082  15.884 -0.0281  0.3571 -0.2705
29786W        W46634   1.753  16.362   2.979 -0.1653 -0.1452 -0.0320
29787W        W46635  11.956   7.245   5.127  0.1474 -0.2022  0.1604
29788W        W46636   3.135  11.612   0.432  0.2020  0.1591 -0.4388
29789W        W46637   2.200   6.095  11.598  0.3618  0.2128 -0.1644
29790W        W46638   8.289  11.298  13.787 -0.0606 -0.1427 -0.1868
29791W        W46639  15.970  13.397   0.800  0.0055  0.2643 -0.1396
29792W        W46640   2.436   6.690   0.873  0.3166  0.0006 -0.4244
29793W        W46641   1.596  15.004   2.255 -0.1618 -0.1463 -0.2263
29794W        W46642  15.381   1.465   0.280  0.2112 -0.0716 -0.3269
29795W        W46643   8.456   1.701   5.493  0.0440 -0.1999  0.0456
29796W        W46644   7.352   9.212  12.331 -0.1003 -0.3278  0.0514
29797W        W46645   6.770  10.445  16.121 -0.2584 -0.3159 -0.2608
29798W        W46646  15.354  13.406  13.781 -0.1092 -0.0020  0.0211
29799W        W46647  16.196   3.509  15.760 -0.0792  0.1119  0.0746
29800W        W46648   3.477   3.167  11.236  0.2712  0.2252  0.0911
29801W        W46649  15.615  13.141   4.435  0.1811  0.1472 -0.0188
29802W        W46650   2.291  14.410  13.443  0.1915 -0.2286 -0.2095
29803W        W46651  13.213   1.534   3.482  0.0119 -0.2717  0.2267
29804W        W46652   2.265   0.463  10.795 -0.2506 -0.1895  0.1624
29805W        W46653   5.199   2.483   1.398  0.0579  0.3441 -0.3513
29806W        W46654   9.388   2.056   6.144  0.0491  0.0692  0.2115
29807W        W46655  16.957  15.661   0.700  0.1407  0.1575  0.1703
29808W        W46656  15.964   0.562   5.409 -0.0705  0.1550 -0.0029
29809W        W46657  11.932   7.294   1.351  0.0270 -0.2569  0.0694
29810W        W46658   3.162  15.824   1.061  0.0733 -0.1741  0.1558
29811W        W46659   5.948   4.679   2.328 -0.0499 -0.1753  0.2298
29812W        W46660   0.516  16.255  13.627 -0.0827 -0.1378  0.2070
29813W        W46661   9.889   3.419  12.500 -0.2810 -0.0274 -0.2056
29814W        W46662   6.886   7.999  15.059  0.2159  0.2095  0.0934
29815W        W46663   5.288  11.879   4.390  0.1254 -0.1934 -0.0429
29816W        W46664  10.961   8.848  15.675 -0.0111 -0.2241  0.3617
29817W        W46665   2.489   7.835  11.154 -0.0982 -0.3974 -0.1835
29818W        W46666   0.652  10.879  12.677 -0.3380  0.1406  0.0427
29819W        W46667  15.515  13.975   0.301 -0.1142  0.1057  0.0182
29820W        W46668  11.747  15.675  16.060 -0.0698 -0.0723 -0.0269
29821W        W46669  17.455  15.610   3.764 -0.0562  0.0255 -0.1583
29822W        W46670   6.255   1.424  12.233  0.1031  0.0935 -0.0786
29823W        W46671  10.614  12.358   0.160  0.1459  0.0236  0.0511
29824W        W46672  14.464   4.880  15.303 -0.2988  0.0671  0.2635
29825W        W46673  13.194   4.744   0.382  0.2191 -0.0270 -0.0968
29826W        W46674   8.239   5.605  11.860 -0.0375 -0.0171  0.0926
29827W        W46675   6.714   2.168   2.234 -0.0078  0.0805  0.0944
29828W        W46676   6.438   5.584  12.097 -0.1065 -0.0601  0.0556
29829W        W46677   4.245   8.320   3.220 -0.0669  0.0358 -0.0352
29830W        W46678   9.031   9.371  14.640 -0.0097 -0.4430  0.2151
29831W        W46679   1.255   9.204  11.663  0.2677 -0.1214 -0.0007
29832W        W46680   4.197   8.797   4.146  0.4219 -0.2066  0.0582
29833W        W46681   2.518   7.914  14.814 -0.2177  0.2070  0.1226
29834W        W46682   0.699  10.100  15.916 -0.3100  0.0887 -0.0205
29835W        W46683  15.260   3.307  15.533  0.1524 -0.0535  0.0643
29836W        W46684  11.261   1.921  14.850  0.0724  0.2035  0.1517
29837W        W46685   8.661  16.321  14.621 -0.3532  0.1309  0.1006
29838W        W46686   6.879   4.693   1.936 -0.2473  0.2369 -0.0137
29839W        W46687  15.742   2.921  12.390  0.0091 -0.1648 -0.1562
29840W        W46688  14.360  10.055   3.352 -0.1034  0.0953 -0.1558
29841W        W46689  12.756  16.268   2.066  0.0879  0.2651  0.0045
29842W        W46690   2.871  14.828   2.940  0.0482 -0.1939  0.0811
29843W        W46691   1.648   5.482   4.861  0.1445 -0.0631  0.1541
29844W        W46692  17.445  12.082   1.672  0.3248  0.0462 -0.3293
29845W        W46693  11.960   0.268  12.996 -0.0227  0.0892 -0.1537
29846W        W46694  17.350   1.981  15.070 -0.0511 -0.1704 -0.0232
29847W        W46695   7.707  13.578  15.918 -0.1757  0.0497  0.1349
29848W        W46696   7.944  13.108   4.601  0.0174 -0.1046 -0.0321
29849W        W46697   6.399   4.371  13.409 -0.4188 -0.0930 -0.0782
29850W        W46698   9.924  13.207   1.089  0.1410 -0.2113 -0.0543
29851W        W46699   3.847  13.460   2.957 -0.0674 -0.0364 -0.0748
29852W        W46700  15.888  11.229   4.490  0.2319 -0.0934  0.1218
29853W        W46701   9.694   1.162   4.123 -0.1388 -0.0045 -0.1482
29854W        W46702  14.749   3.105  16.195 -0.3678  0.1261 -0.1649
29855W        W46703   5.002   5.605  14.209 -0.2587  0.0965  0.1967
29856W        W46704  14.935   9.791  13.493  0.2571  0.0664  0.0798
29857W        W46705   9.047   6.270  11.328  0.0091  0.2213  0.0078
29858W        W46706   6.147   3.771  12.536  0.0054  0.0239 -0.1220
29859W        W46707  17.204   9.233   3.041 -0.2955 -0.0653 -0.2616
29860W        W46708   2.330   5.715  15.629 -0.3024  0.2408 -0.0668
29861W        W46709   0.448  13.126   4.561 -0.0204  0.0187 -0.1286
29862W        W46710   3.402   3.902  14.975 -0.0633  0.1629 -0.1043
29863W        W46711  13.988  16.264   0.071  0.1179  0.1084  0.2258
29864W        W46712   1.920  12.583  13.661  0.0230 -0.0147  0.0500
29865W        W46713  10.962  11.128  13.862 -0.0996  0.0587 -0.5704
29866W        W46714   3.695  12.348  13.445  0.0444  0.0989  0.1514
29867W        W46715  10.881  10.117  12.984  0.1923  0.2539 -0.1187
29868W        W46716   2.584   8.851  16.195  0.1246 -0.1808 -0.2270
29869W        W46717  15.178  15.622  11.854 -0.1672  0.0582  0.1251
29870W        W46718   1.516  14.257   4.959  0.1491 -0.1802  0.2371
29871W        W46719   2.666   8.325  11.167  0.1488  0.5486 -0.2036
29872W        W46720  14.784   5.562   2.206  0.0908  0.0229  0.0923
29873W        W46721   0.846   6.033   2.592  0.1344 -0.0893  0.0060
29874W        W46722   4.294  12.015   4.714  0.1534 -0.0696  0.1799
29875W        W46723   1.832  17.532   0.389 -0.3275 -0.2970  0.1884
29876W        W46724   7.126   5.004  13.301 -0.2407 -0.2436 -0.0990
29877W        W46725  12.171   0.007   0.146 -0.1391 -0.0274 -0.0233
29878W        W46726  10.009  11.665   4.556  0.2219 -0.0961 -0.0985
29879W        W46727  13.480  18.023  14.298  0.2650 -0.2474 -0.0338
29880W        W46728   3.686  11.073  12.449 -0.0103  0.3582  0.1203
29881W        W46729   1.940   8.114  12.999 -0.0723 -0.1701 -0.1703
29882W        W46730   0.360  14.520   4.080 -0.1658 -0.1039  0.0400
29883W        W46731  14.248  17.364  12.241 -0.0875  0.3590  0.1505
29884W        W46732  15.299   1.546  13.325  0.1412 -0.2598 -0.1395
29885W        W46733   7.405   1.915  13.908  0.0465 -0.0848 -0.0337
29886W        W46734  17.148   1.700   3.164  0.0368  0.3877  0.0186
29887W        W46735   9.743   1.320   5.788  0.0655  0.2211 -0.0050
29888W        W46736  11.613  16.563  14.049  0.1639  0.0501 -0.0525
29889W        W46737   0.422   7.579   1.039  0.1791  0.0880  0.1040
29890W        W46738   8.157   4.568   0.174  0.1390 -0.0230  0.0783
29891W        W46739   2.560   9.124  12.170  0.2679 -0.0752  0.2168
29892W        W46740  16.721   7.108  11.599  0.1916 -0.0550  0.1524
29893W        W46741   8.400  11.706  15.036  0.0485 -0.0869 -0.0893
29894W        W46742   9.438  10.344  13.816 -0.0907 -0.2891  0.1735
29895W        W46743   0.507  16.040   1.479 -0.1350 -0.0017 -0.1438
29896W        W46744   8.874  16.730  12.472  0.0158  0.0291 -0.1591
29897W        W46745   7.271  14.290   4.411  0.3784  0.0478 -0.2323
29898W        W46746  14.592   8.193   0.053  0.0952  0.0626 -0.1753
29899W        W46747   1.519   4.225   2.551  0.2559  0.0420  0.3973
29900W        W46748   1.308  11.470   3.878  0.0011 -0.0441 -0.1953
29901W        W46749  11.272  15.632  14.698 -0.0891  0.0205 -0.1797
29902W        W46750  11.740   2.828   3.188  0.4359 -0.1945  0.1545
29903W        W46751  16.095   7.179   3.776 -0.0104  0.0489  0.1907
29904W        W46752   6.341   4.160   2.546 -0.2299 -0.3512 -0.1512
29905W        W46753  14.957   1.309   0.835 -0.0698 -0.0086  0.1931
29906W        W46754   7.242   4.152   2.730 -0.0425 -0.1312 -0.1485
29907W        W46755  15.447   6.209   0.467 -0.0453 -0.1330  0.0568
29908W        W46756   3.375   5.209  14.920 -0.0470  0.4072  0.2794
29909W        W46757   9.975   3.704  13.733 -0.1926 -0.2245 -0.2386
29910W        W46758  13.626  17.208   0.376  0.2234 -0.1428  0.0671
29911W        W46759   4.783   6.317   1.116 -0.1396 -0.1156 -0.0086
29912W        W46760  10.344   8.297  13.421  0.0665  0.1177  0.1371
29913W        W46761   6.004  17.341  15.455 -0.1336 -0.0721  0.2134
29914W        W46762  17.970   4.213   4.515 -0.0572  0.0269 -0.3207
29915W        W46763   0.662   9.583  15.639  0.1835 -0.0317 -0.3716
29916W        W46764   2.170   0.846   3.160 -0.0694  0.0887 -0.0509
29917W        W46765   8.004   2.927  15.866  0.0403  0.1064 -0.3119
29918W        W46766   5.797   0.487   0.929 -0.2221 -0.0440 -0.1403
29919W        W46767   3.407   4.244   4.578 -0.1020  0.1543 -0.1325
29920W        W46768   4.031   5.336   6.262  0.2290  0.1839  0.3729
29921W        W46769  13.228   5.872  14.825 -0.1311  0.5597 -0.0462
29922W        W46770   1.606   9.401   2.126  0.1116 -0.2177  0.2323
29923W        W46771   7.551   1.279  14.764  0.4183  0.1982 -0.0691
29924W        W46772  15.915   5.428   5.001 -0.0291 -0.1842  0.1648
29925W        W46773   5.113  17.140   3.848 -0.1848  0.1295  0.1123
29926W        W46774  15.486  17.351  13.761  0.0915  0.3457 -0.2600
29927W        W46775  11.636   2.263  12.102 -0.2187  0.0111  0.1315
29928W        W46776   6.193  15.340  13.970  0.1194 -0.4565 -0.0231
29929W        W46777   0.350   4.327   1.022 -0.3106  0.1276  0.0092
29930W        W46778  15.904   2.758   1.860 -0.0733  0.4307 -0.0752
29931W        W46779   1.589   4.948   3.556  0.0330  0.5700 -0.0741
29932W        W46780   4.872   9.839  11.453 -0.0745  0.2185  0.1302
29933W        W46781   3.212   8.781  11.995  0.0676 -0.2596 -0.0326
29934W        W46782  17.669   8.707   4.026  0.0126  0.0055  0.1154
29935W        W46783  16.814   6.059   4.226  0.2465  0.0946 -0.1869
29936W        W46784   7.363  15.548   2.217 -0.0825  0.2962 -0.2058
29937W        W46785   3.782   6.136   4.060 -0.2057 -0.2390 -0.1963
29938W        W46786  14.877   6.894  12.721 -0.0281  0.1745 -0.1932
29939W        W46787   3.501   6.911   2.158 -0.1741 -0.0755 -0.0256
29940W        W46788   4.417  10.929   0.455 -0.2397 -0.3715 -0.2030
29941W        W46789   4.813  10.820  15.036  0.1090  0.0169  0.0756
29942W        W46790   9.832   3.382   4.784  0.1642  0.1919 -0.2578
29943W        W46791   6.377   6.003  12.651 -0.0565  0.0871 -0.1330
29944W        W46792   2.921   2.061  12.669  0.4098 -0.1262 -0.0152
29945W        W46793   2.255   0.561  15.518 -0.1466 -0.0117  0.0242
29946W        W46794   3.607  12.604  14.128 -0.1057  0.1419  0.1318
29947W        W46795  17.580  15.082  12.966 -0.1686 -0.2283 -0.3281
29948W        W46796  12.707  13.741  13.846 -0.0140 -0.0732  0.0164
29949W        W46797  14.121   0.860   1.032 -0.1060 -0.1772 -0.0431
29950W        W46798   1.191   6.341  16.144 -0.1200  0.1769  0.0181
29951W        W46799  15.625   9.149  11.623 -0.0820  0.1631 -0.0886
29952W        W46800   5.962  13.519   3.896  0.1662 -0.1197 -0.2847
29953W        W46801   1.980   9.823  10.536  0.1628 -0.1254  0.2593
29954W        W46802  11.680   0.242  14.000 -0.1127 -0.1169 -0.0754
29955W        W46803  11.013   1.265   0.056  0.2183  0.1600 -0.3163
29956W        W46804   6.126  13.031  15.932 -0.0503 -0.0832 -0.0710
29957W        W46805   2.016   4.714   4.423  0.0319  0.1880  0.0206
29958W        W46806   7.439   6.309  15.530 -0.1830 -0.2581 -0.1411
29959W        W46807  10.675   0.732   2.088 -0.1755  0.1947 -0.2827
29960W        W46808  11.248   7.248  12.648  0.0516 -0.2172 -0.0612
29961W        W46809  12.960   3.784   2.185  0.0097 -0.0315 -0.1630
29962W        W46810  10.775  12.065   1.320 -0.3015  0.0726  0.1754
29963W        W46811   1.295  17.339   6.215 -0.0342  0.5644  0.0404
29964W        W46812  13.594   8.580  12.871 -0.0866  0.0927  0.0650
29965W        W46813  12.100   0.107   0.635 -0.3374 -0.2764 -0.0111
29966W        W46814   9.467  17.720  15.109  0.1638  0.3228  0.0061
29967W        W46815  14.186   8.474   3.204  0.0703 -0.3636 -0.1228
29968W        W46816   7.000   2.913  15.670 -0.0664  0.1410  0.1780
29969W        W46817  10.914  16.655  13.910 -0.1255 -0.1476 -0.1156
29970W        W46818  12.917  13.882   0.849  0.2242  0.1839  0.0263
29971W        W46819   7.386   0.052   1.112 -0.1466  0.0705 -0.1778
29972W        W46820  17.183   0.825  12.553  0.3890 -0.0791  0.0098
29973W        W46821  17.184  15.999  11.703  0.0240  0.1653  0.1163
29974W        W46822  14.563   8.573  13.793  0.3591 -0.1594 -0.1797
29975W        W46823   5.894   4.095   2.842  0.0615  0.1013 -0.0707
29976W        W46824   8.456   9.741   4.483  0.0426  0.0255 -0.0414
29977W        W46825   1.967   2.127   1.045 -0.0082  0.3506 -0.0199
29978W        W46826  14.007  17.677   1.149  0.2099  0.1473  0.0556
29979W        W46827   8.921  12.025  14.013  0.2917 -0.0802  0.0928
29980W        W46828   6.075   8.484  14.613 -0.2603 -0.0440  0.1384
29981W        W46829   0.212  10.428  15.116  0.0609  0.1200 -0.2229
29982W        W46830  16.044  13.639  12.430 -0.2616 -0.1383 -0.0329
29983W        W46831   2.767   1.610   1.359  0.0681 -0.2268  0.2010
29984W        W46832   4.808   6.658  10.429  0.1370 -0.0252 -0.3753
29985W        W46833  15.530   7.954   4.068  0.0041 -0.2456  0.0295
29986W        W46834   3.135   3.985   1.882 -0.0677  0.2010  0.2912
29987W        W46835   8.388  17.518  13.760 -0.0634 -0.1893 -0.1042
29988W        W46836   6.911  15.764   3.092 -0.1742  0.2812 -0.0534
29989W        W46837  12.608   1.758   0.587  0.3305 -0.0712  0.0650
29990W        W46838  15.476   5.667   2.943 -0.0027 -0.3287  0.1718
29991W        W46839   6.863  14.364   5.197 -0.2285  0.0140 -0.3656
29992W        W46840   2.866  10.590   4.711  0.2958  0.0330 -0.1787
29993W        W46841   9.376   3.852  15.319 -0.0211  0.0977 -0.1412
29994W        W46842   7.535   2.836  15.651 -0.2076 -0.0212  0.0661
29995W        W46843  14.538  11.187  13.479 -0.1651 -0.4262  0.0070
29996W        W46844  13.326  15.055   1.841  0.0481  0.4245  0.1500
29997W        W46845   1.339   0.570   3.710 -0.0565 -0.0078  0.0834
29998W        W46846   7.928  14.891   1.833 -0.1227  0.0338 -0.0720
29999W        W46847  17.123   7.057  15.020  0.2912  0.1651 -0.1225
30000W        W46848   0.018  13.897   2.051  0.0726 -0.0853 -0.2675
30001W        W46849  13.020   7.133   1.454  0.0427 -0.1016  0.2576
30002W        W46850  13.125   3.261   5.862  0.0818  0.3174 -0.0909
30003W        W46851  11.814   0.197   4.187 -0.3606 -0.1270 -0.0001
30004W        W46852   5.773  12.487   5.062 -0.1217 -0.0959  0.1632
30005W        W46853  13.329   2.681  12.422 -0.0121 -0.2643  0.1662
30006W        W46854   5.670   0.397   3.302  0.0957  0.0607 -0.2694
30007W        W46855   3.596  17.483   4.870 -0.0539  0.1137  0.2876
30008W        W46856   2.002   1.983   5.257  0.2025  0.1517 -0.2518
30009W        W46857  12.243  14.994   1.271  0.1480  0.0787  0.1081
30010W        W46858   9.135  10.820   5.066 -0.1666  0.1450 -0.4011
30011W        W46859  12.574   7.558   4.586  0.2784 -0.0099  0.1306
30012W        W46860   4.669   7.573  13.773  0.0608 -0.0532 -0.0248
30013W        W46861  12.885   9.853   2.480 -0.0970 -0.0643  0.1244
30014W        W46862  17.018  16.996  14.909  0.0719  0.1182 -0.0546
30015W        W46863   5.176   2.166  12.950  0.0312 -0.0044  0.4474
30016W        W46864  17.186  13.537  16.217  0.0106  0.1544  0.0298
30017W        W46865  12.586  13.125  14.927  0.0189 -0.1707 -0.2839
30018W        W46866  13.504   7.882  11.090  0.1596  0.0177 -0.4077
30019W        W46867   8.203   9.784   1.413 -0.2807 -0.0757 -0.1384
30020W        W46868  15.470   2.542   3.057 -0.2778  0.0102  0.3045
30021W        W46869  14.464  10.347  12.463 -0.1313  0.2471 -0.1432
30022W        W46870  14.368   9.481   0.492 -0.2863 -0.0506 -0.2395
30023W        W46871  14.775   2.144   0.773 -0.1301  0.0861 -0.1375
30024W        W46872   5.816  15.255  15.972  0.1084 -0.2363  0.0230
30025W        W46873  12.260   6.736   3.978  0.0195  0.3973 -0.0066
30026W        W46874   4.080  15.061  14.515 -0.0133 -0.1171 -0.0329
30027W        W46875   1.200   6.116  12.025  0.0994 -0.0824 -0.2128
30028W        W46876   0.431  16.153   4.301  0.1119 -0.1862 -0.0617
30029W        W46877   8.713  12.009   1.671  0.0854 -0.3471 -0.0495
30030W        W46878  10.175  11.099   5.811  0.1876  0.0651 -0.0383
30031W        W46879  16.019   9.795   2.815  0.2450  0.1364  0.0136
30032W        W46880   4.676   9.868  10.662 -0.0603 -0.1131 -0.4800
30033W        W46881   6.086  11.694   0.813  0.1746  0.0336 -0.0221
30034W        W46882  15.876  17.101  13.145  0.0245  0.2402 -0.1108
30035W        W46883   2.758  15.522  14.601  0.3981 -0.1610  0.0096
30036W        W46884   2.839   3.456  12.302  0.3407  0.1472  0.0224
30037W        W46885  11.909  10.687   2.007  0.0289  0.2122  0.0506
30038W        W46886   8.156   2.176  12.763 -0.1100 -0.0237  0.0684
30039W        W46887  16.876  12.843  11.922  0.1868  0.1940 -0.0066
30040W        W46888   4.107   0.105   5.079 -0.0129 -0.0632 -0.1084
30041W        W46889   3.118   3.488   1.921  0.1932 -0.3129  0.0839
30042W        W46890   6.365   9.914  15.091 -0.2430 -0.1913  0.2721
30043W        W46891   2.712   0.847  14.257 -0.1517  0.3494 -0.1059
30044W        W46892   0.495   0.204   0.919  0.0745  0.0808  0.2018
30045W        W46893   9.003   5.451   3.595 -0.0689 -0.1664  0.3726
30046W        W46894  15.739   3.593  14.841 -0.3961 -0.5191 -0.0431
30047W        W46895  11.789   5.076  11.238 -0.2923  0.1637  0.1066
30048W        W46896   0.182  17.916  12.579  0.1814 -0.0315  0.1779
30049W        W46897   9.346   5.687   4.474  0.0271 -0.0751 -0.2613
30050W        W46898  12.653   2.613  14.064  0.1173  0.1952  0.0879
30051W        W46899  10.238   0.601   5.403  0.0815 -0.0176  0.1466
30052W        W46900   8.802   8.777   0.669  0.1898  0.2091  0.1179
30053W        W46901   4.191   6.395  14.854  0.0074  0.2109  0.0236
30054W        W46902   3.418  17.916  10.427 -0.1332 -0.0218  0.0454
30055W        W46903  16.211   4.738   5.939 -0.2907  0.2453  0.3490
30056W        W46904   6.068   5.864  11.254  0.2575  0.0519  0.0474
30057W        W46905   5.469  15.615   3.875  0.1203  0.0326  0.0147
30058W        W46906   3.059  11.956  14.912  0.1112 -0.0012  0.0891
30059W        W46907  11.519  11.074   0.255  0.3419  0.0915 -0.2518
30060W        W46908  14.500   3.926  15.527  0.2042  0.1892 -0.0668
30061W        W46909  11.674  13.815  15.887  0.2011  0.1407 -0.1872
30062W        W46910   4.478   4.200   0.208  0.2145 -0.2089 -0.1253
30063W        W46911   2.571  12.564  14.298 -0.2763 -0.0536  0.0992
30064W        W46912  10.432   2.758  12.365  0.1079 -0.1121 -0.0940
30065W        W46913  11.710   6.039   4.480  0.1479  0.1157  0.3721
30066W        W46914  16.317   9.446  12.650 -0.0203  0.1751 -0.0884
30067W        W46915  16.250   6.692  13.269  0.2160  0.1647  0.0447
30068W        W46916  15.075   0.588   0.752 -0.1511 -0.1133  0.1990
30069W        W46917  13.133  14.941  13.648 -0.1350 -0.0608 -0.2128
30070W        W46918   4.464  14.006   2.821 -0.1913 -0.1002  0.1759
30071W        W46919  15.158   6.011  13.571 -0.0503  0.0000 -0.4541
30072W        W46920   8.716  17.321   5.125  0.2775  0.0113 -0.0025
30073W        W46921  15.821   9.383   0.489  0.0130 -0.3327  0.0664
30074W        W46922   7.242  11.941  11.979  0.3505 -0.0849  0.1205
30075W        W46923  17.410   1.192   0.106  0.0136 -0.0815  0.1361
30076W        W46924   7.084   5.888   1.073 -0.2774 -0.0001 -0.0681
30077W        W46925  12.066  17.447  13.524 -0.0651 -0.2891 -0.4191
30078W        W46926   1.967   9.011   1.975  0.1953 -0.0997  0.1291
30079W        W46927   2.837   7.948  15.300 -0.2132  0.1112 -0.0752
30080W        W46928  15.065  13.997   1.220 -0.4788 -0.2266 -0.0283
30081W        W46929  15.103   7.923  14.528  0.0680 -0.0287  0.0599
30082W        W46930  15.572  13.231   1.891 -0.1356  0.1593 -0.0439
30083W        W46931   1.054   6.161   5.139 -0.0080  0.1114  0.1698
30084W        W46932   6.575   5.247   1.663  0.0447 -0.0162  0.3086
30085W        W46933   6.116   2.113  11.404  0.1268 -0.0710  0.2613
30086W        W46934  10.100   9.810  13.446  0.1056  0.0592 -0.1505
30087W        W46935   5.417  12.583  12.666 -0.2181 -0.3077  0.1942
30088W        W46936  15.736  15.922   3.250  0.1014 -0.1287 -0.0892
30089W        W46937  16.618   2.954  14.558 -0.0018  0.0771 -0.2325
30090W        W46938   4.441  10.661  11.463  0.1340  0.1577 -0.0461
30091W        W46939   9.195  17.456   5.142 -0.2301 -0.2708 -0.3304
30092W        W46940   7.222   2.294  12.487 -0.0607  0.0232 -0.1723
30093W        W46941   8.309  10.719   1.196  0.0192 -0.1068 -0.3564
30094W        W46942  16.931   9.133   4.054 -0.2355 -0.0311 -0.0599
30095W        W46943   4.854   4.641  10.885 -0.1041  0.1423  0.0394
30096W        W46944  11.812   8.009   4.802  0.1381  0.1240 -0.1248
30097W        W46945   8.210   6.390  11.475  0.3306  0.1731  0.1540
30098W        W46946   5.674   9.054   5.027  0.0186 -0.0019  0.4016
30099W        W46947   9.654  12.037  12.856  0.1146  0.2095 -0.2292
30100W        W46948  16.019  14.315   2.559 -0.1237  0.2517  0.0821
30101W        W46949   3.805  18.037   2.767 -0.0825  0.2759 -0.0139
30102W        W46950   1.347   3.764  14.056 -0.1139 -0.0212 -0.1052
30103W        W46951   4.341  14.906  13.729 -0.1809 -0.1498  0.1019
30104W        W46952  17.359   1.847   5.458 -0.3856  0.3988  0.0815
30105W        W46953  17.719   5.129  14.026 -0.4017 -0.0425 -0.0674
30106W        W46954   8.675   8.939   3.050  0.0199 -0.1291  0.0398
30107W        W46955   9.235  16.617   2.797  0.2949 -0.1761 -0.2295
30108W        W46956  12.920  16.798  12.411 -0.0956  0.4882 -0.0578
30109W        W46957   4.412   7.340  16.092 -0.0773 -0.3797 -0.2038
30110W        W46958   4.623   7.917  11.485 -0.0727  0.2157 -0.0488
30111W        W46959  16.077   4.360   4.590  0.0304 -0.1140 -0.0879
30112W        W46960   3.145  16.203   5.293 -0.3144  0.1251 -0.0934
30113W        W46961  14.436  14.415   3.840 -0.0684 -0.1723  0.2305
30114W        W46962  12.191   9.336  13.484 -0.1250  0.1400  0.2420
30115W        W46963   6.347  16.717  12.833  0.1963  0.1436 -0.0359
30116W        W46964   8.754  10.971  15.601  0.0274 -0.0241 -0.0376
30117W        W46965  13.570   2.951  13.227  0.2823  0.1519 -0.0039
30118W        W46966   6.435  14.519   4.380 -0.2200  0.2223 -0.2405
30119W        W46967   9.796   5.944  15.913  0.1330 -0.0097  0.0199
30120W        W46968   0.287  14.159   2.431 -0.3564  0.0371  0.1372
30121W        W46969   6.899  13.361  11.707  0.2392 -0.1080  0.1760
30122W        W46970   2.785   4.336  14.989 -0.1679 -0.1308  0.2579
30123W        W46971   6.480   4.313   1.269 -0.2298 -0.1211 -0.1692
30124W        W46972  17.519   8.318   4.907 -0.1138  0.4122  0.1674
30125W        W46973  16.797   7.811  12.384  0.1145  0.1198  0.0813
30126W        W46974   7.418  15.371   4.706 -0.3828  0.0798 -0.3243
30127W        W46975   0.072  11.097   3.703  0.0740  0.2104  0.3214
30128W        W46976  17.364   7.857   2.927 -0.0793 -0.1550  0.1506
30129W        W46977  10.007   9.821   1.911 -0.3431 -0.1442  0.4928
30130W        W46978  13.398  16.503  12.739  0.0665  0.1973 -0.2196
30131W        W46979   0.103  17.723  12.116 -0.0500  0.0631  0.0436
30132W        W46980   2.380   0.182   0.445 -0.0741  0.4151 -0.1994
30133W        W46981  12.971   0.266  15.979  0.0359  0.1853  0.2596
30134W        W46982   5.831  15.158  15.219  0.0064  0.0148 -0.4818
30135W        W46983  11.611  13.352   3.242  0.2093  0.0062 -0.2258
30136W        W46984  10.032  10.738  16.157 -0.4440 -0.1049 -0.0860
30137W        W46985  12.938  13.495  15.224 -0.1787 -0.1532  0.0782
30138W        W46986  11.404   7.656  11.631  0.3806  0.0824 -0.1863
30139W        W46987  11.518  12.485  11.663 -0.1843  0.0252  0.1464
30140W        W46988  17.448   3.278  14.717 -0.1061 -0.1118 -0.0502
30141W        W46989   4.356   0.800   4.436  0.1953 -0.1588 -0.1070
30142W        W46990   1.144  13.593  13.023 -0.0619 -0.1703  0.4604
30143W        W46991  17.371   7.182  14.122 -0.0990  0.2028 -0.2231
30144W        W46992   5.646   9.583  13.932 -0.1282  0.1160  0.1152
30145W        W46993   4.280   9.156   0.806 -0.1662 -0.0252 -0.3507
30146W        W46994   2.737  13.534   0.964  0.1958 -0.0044 -0.0007
30147W        W46995  14.580   6.319  11.877  0.0651 -0.0591  0.1121
30148W        W46996  14.980  17.513   3.072 -0.0263  0.1272  0.1720
30149W        W46997   6.094   4.175   3.910 -0.2380 -0.0795 -0.0703
30150W        W46998   2.849   4.948  10.166  0.1809 -0.1066 -0.1760
30151W        W46999   7.653   6.727  14.145  0.0338  0.0643 -0.3602
30152W        W47000  10.598   3.792   5.057 -0.3037  0.3680 -0.3567
30153W        W47001   9.442  13.092   5.363  0.0018  0.1890 -0.3359
30154W        W47002   3.823  13.667   3.872  0.1394  0.0841  0.2153
30155W        W47003  17.969  15.356  11.488 -0.1274  0.0531 -0.0073
30156W        W47004   2.837   8.159  13.982 -0.1142  0.2574  0.0926
30157W        W47005  10.922  11.003   5.112 -0.0510 -0.0403 -0.0231
30158W        W47006  12.040  14.543   1.949  0.1323 -0.1012  0.0049
30159W        W47007  17.449  10.080  14.195 -0.0499 -0.1114  0.3299
30160W        W47008  11.505  16.716  14.541 -0.1070  0.0599 -0.1490
30161W        W47009   5.713  11.169  15.323  0.3658 -0.0906  0.2560
30162W        W47010  16.316  17.483  11.285 -0.0177 -0.0201 -0.4763
30163W        W47011  13.794   1.032  11.426 -0.3223 -0.2021  0.3151
30164W        W47012   8.610   1.180   5.354 -0.1214  0.4156 -0.3126
30165W        W47013   9.347   9.874   1.182 -0.1840  0.1395  0.1136
30166W        W47014   1.753   4.409   4.901 -0.1161 -0.3514  0.0667
30167W        W47015  17.783   8.351  14.909 -0.1814  0.0906  0.0480
30168W        W47016   6.910  12.553  15.737  0.0550 -0.3516 -0.0176
30169W        W47017   3.958   4.616   5.104 -0.2169 -0.2742  0.0380
30170W        W47018   8.075   7.000  11.646  0.0572 -0.0115 -0.1368
30171W        W47019   3.342  11.490  11.289 -0.0730 -0.1455 -0.1101
30172W        W47020  13.008  15.950   4.692  0.1209 -0.0154 -0.0452
30173W        W47021   3.268  14.001   0.227  0.0179  0.0786  0.1814
30174W        W47022   6.647   2.946  15.200 -0.1761 -0.0939  0.0274
30175W        W47023  10.664   5.074  11.825  0.0664  0.1400  0.1690
30176W        W47024  12.625   6.308  15.328 -0.0635 -0.3368 -0.2585
30177W        W47025   0.033   9.038  12.000 -0.3409  0.2250 -0.1014
30178W        W47026  16.991  10.365   2.273  0.1492 -0.0049 -0.2959
30179W        W47027  14.902   2.434   4.670  0.2323 -0.0631  0.1697
30180W        W47028  17.846   2.488  15.934 -0.2421  0.0370 -0.0229
30181W        W47029   7.122  14.123   1.081 -0.3496 -0.1890  0.0346
30182W        W47030  15.176  16.061   3.460 -0.0109  0.0424 -0.3240
30183W        W47031  13.993   5.793  15.023  0.0378 -0.1302  0.1929
30184W        W47032  17.515  14.849   4.055  0.2797  0.2225  0.2855
30185W        W47033  15.265   6.049   5.361  0.0608  0.0065  0.0849
30186W        W47034  13.474   4.759  14.263 -0.0757  0.4090  0.2022
30187W        W47035   1.727  15.450  12.394 -0.0549 -0.0570  0.0401
30188W        W47036   6.524   4.566  14.014 -0.2508 -0.1071 -0.0103
30189W        W47037   0.981   8.507  15.085 -0.2239  0.1258 -0.0881
30190W        W47038   5.210   1.099   2.077 -0.0162  0.0218 -0.0501
30191W        W47039   5.025  14.792  15.331  0.0931  0.2210  0.2772
30192W        W47040   8.535  12.581   0.768  0.2424 -0.0636  0.1106
30193W        W47041   5.143   6.787   3.703  0.0065 -0.0352 -0.1223
30194W        W47042  16.562   3.236  12.768  0.0602  0.2262 -0.1321
30195W        W47043  10.939   4.814  15.208  0.0284 -0.2396 -0.2749
30196W        W47044   6.892   5.692  14.865 -0.2442 -0.0283 -0.3143
30197W        W47045   9.822   0.499  14.291  0.0609  0.1456  0.0045
30198W        W47046  10.681  11.099  10.886  0.1018  0.0406  0.2734
30199W        W47047  10.451   4.223   4.119 -0.0861 -0.0511 -0.1838
30200W        W47048   4.135  12.281  13.181 -0.2313 -0.1716 -0.0826
30201W        W47049  13.573   9.432  12.624 -0.1235 -0.1279 -0.2144
30202W        W47050  10.255  13.046  12.229  0.0368  0.1185  0.2275
30203W        W47051   3.038  15.535   3.884 -0.1382 -0.1305  0.1654
30204W        W47052   7.524  14.739   0.139  0.0606  0.0342 -0.0101
30205W        W47053  11.574  18.021   3.136 -0.0486  0.1638 -0.4066
30206W        W47054  12.763   9.085  11.101 -0.0960 -0.1541 -0.0571
30207W        W47055  13.033   0.879  15.390 -0.1093  0.0537 -0.2077
30208W        W47056  14.155   8.641  11.485  0.0659  0.2236  0.0085
30209W        W47057  11.077   0.909   1.707 -0.2267 -0.0238  0.0153
30210W        W47058   5.913  15.308  13.049  0.1734  0.0643 -0.1047
30211W        W47059   7.928   3.332   0.771 -0.0558 -0.1429 -0.0987
30212W        W47060  13.786  12.115  14.681  0.0466  0.2439  0.0791
30213W        W47061  12.293  11.473  12.326 -0.1787 -0.1335  0.0421
30214W        W47062  17.698   6.881   4.950 -0.2255  0.1993 -0.2458
30215W        W47063  12.545   6.744   2.596 -0.0536 -0.1392 -0.1644
30216W        W47064  10.116  13.335  13.685  0.0589  0.0151 -0.1859
30217W        W47065  11.763  13.945  11.186  0.1484 -0.1564 -0.0132
30218W        W47066   2.724  14.380  11.342  0.2122  0.3085  0.1001
30219W        W47067  12.821   1.065  14.096  0.1664 -0.1091  0.3523
30220W        W47068   3.452  13.504  13.878 -0.3233 -0.1400  0.0781
30221W        W47069   0.849  14.454   4.238  0.1534  0.1158  0.0045
30222W        W47070   9.684   2.433  15.659  0.0662  0.3924 -0.1826
30223W        W47071   6.444  15.475   3.175 -0.1157  0.0686  0.0106
30224W        W47072  11.512  13.626  15.370  0.1235  0.1302  0.0449
30225W        W47073  13.338  15.651   0.070 -0.0659  0.1239  0.3044
30226W        W47074   9.632  15.387  12.376 -0.1297  0.0786 -0.0463
30227W        W47075   1.687  10.653  10.517  0.4016 -0.1931 -0.0271
30228W        W47076   1.835  13.102  13.179  0.0073  0.1285  0.2592
30229W        W47077  11.245  11.230  15.667  0.2538 -0.1505  0.3547
30230W        W47078  11.742  17.458   1.709  0.2281  0.0775  0.0360
30231W        W47079   2.060   8.173   1.644  0.2536  0.1560  0.2815
30232W        W47080  10.878   6.280   3.986  0.3062 -0.0759 -0.0104
30233W        W47081   0.647   7.228   2.878 -0.2299  0.0706  0.0712
30234W        W47082  12.681   8.471  14.612  0.1005 -0.1910  0.1226
30235W        W47083  12.506  15.904   1.730  0.1862 -0.0147 -0.1571
30236W        W47084   3.630   5.448  11.798  0.0250 -0.1983  0.2808
30237W        W47085  15.281   8.752   4.912  0.2658 -0.4231  0.1276
30238W        W47086   7.951  11.625  13.638 -0.2329 -0.3965 -0.0227
30239W        W47087  10.346   1.967   0.623 -0.2747  0.0326  0.0347
30240W        W47088   5.589  11.751   0.509  0.2095 -0.1686  0.0911
30241W        W47089   5.146  14.464   1.310 -0.0862 -0.1945 -0.2978
30242W        W47090   0.400  12.683  14.510 -0.0475 -0.0318  0.1436
30243W        W47091  11.587  13.825   2.445  0.0603 -0.3671  0.2577
30244W        W47092   1.826   0.057  14.599 -0.0619 -0.2929  0.0002
30245W        W47093   1.787  14.004   2.128 -0.1951  0.3940 -0.0721
30246W        W47094   9.462  16.895   4.621 -0.0058 -0.3359  0.1483
30247W        W47095  17.339   9.543   3.468  0.0713  0.0265 -0.1820
30248W        W47096  11.075  12.975   3.995 -0.2041 -0.2090 -0.0349
30249W        W47097  16.645  13.566   0.109 -0.5871  0.1085 -0.3631
30250W        W47098   7.124   4.156   3.721  0.0019 -0.3066 -0.0194
30251W        W47099  14.825   4.401   4.035  0.1477 -0.0580  0.6627
30252W        W47100  11.539   1.139   3.773  0.1988  0.0952 -0.0370
30253W        W47101   9.736  17.373   0.342  0.0922 -0.1385  0.2772
30254W        W47102  14.693   5.694  15.812  0.1488  0.3324  0.0324
30255W        W47103  11.985  16.686   1.129 -0.1473  0.0362  0.2268
30256W        W47104  14.144  16.790  15.107  0.1643  0.0114 -0.0231
30257W        W47105  12.184  15.430   1.023  0.1564  0.2905  0.1340
30258W        W47106  17.917  11.847   4.831  0.2921  0.1997  0.0718
30259W        W47107   6.777   9.148   3.108 -0.1432 -0.0321 -0.3224
30260W        W47108  17.232   0.631  11.676 -0.0442  0.1918 -0.1187
30261W        W47109   8.624  11.242   0.501  0.1201 -0.0751  0.0938
30262W        W47110  12.273   1.822   2.337 -0.2288 -0.1145 -0.0592
30263W        W47111  17.577   4.767  13.047 -0.0276 -0.3582  0.2472
30264W        W47112   8.720  16.245   1.214 -0.4656 -0.3413  0.0499
30265W        W47113  10.489  10.459  13.031  0.0651  0.1685 -0.1687
30266W        W47114  10.045   4.452   2.616  0.3953 -0.1595  0.0096
30267W        W47115   5.115   2.263  15.827 -0.2070 -0.0606 -0.0231
30268W        W47116   0.345   3.658  13.456  0.2565 -0.0476  0.2532
30269W        W47117  13.620   5.216   0.182  0.0399 -0.0992  0.0128
30270W        W47118  16.526  10.835   0.087 -0.0914  0.0681  0.0502
30271W        W47119   3.928   2.435   0.398  0.2551  0.1013  0.0003
30272W        W47120  13.728  12.793  13.466  0.3885 -0.0039 -0.0073
30273W        W47121  18.001  11.952   3.761  0.0490  0.0073 -0.3112
30274W        W47122  13.335   2.581  15.505  0.2506  0.0741  0.0604
30275W        W47123   3.745   5.198   4.945 -0.2953  0.0001  0.0673
30276W        W47124   3.445  14.105  11.982 -0.0792 -0.1209  0.0846
30277W        W47125  11.774  13.852  14.594  0.1442  0.1703  0.1665
30278W        W47126   3.812   6.327   0.739 -0.0205  0.3106  0.0600
30279W        W47127   5.202  13.144   1.324  0.1894  0.0872  0.1667
30280W        W47128  14.462  10.823  12.694  0.1402  0.1302 -0.1827
30281W        W47129  10.561   2.197   3.946  0.2453  0.0689 -0.1561
30282W        W47130  13.907  13.492  15.173  0.0891  0.1178  0.0186
30283W        W47131  12.870   3.086  11.958 -0.1809 -0.2918  0.1094
30284W        W47132   2.427  12.625  11.090 -0.3287  0.3095  0.4003
30285W        W47133  17.306  11.860  13.882  0.0607 -0.1671 -0.1807
30286W        W47134  14.171   5.675   2.769 -0.0583 -0.2820 -0.0045
30287W        W47135   1.976  11.235   0.196  0.1571 -0.3210 -0.0363
30288W        W47136  14.318  13.347   5.643 -0.3139  0.0357  0.0592
30289W        W47137   1.214   0.804   4.713 -0.2938  0.0722  0.1083
30290W        W47138  15.755   5.412  12.930 -0.1981  0.0991  0.0347
30291W        W47139   4.497   4.299  11.649 -0.1458 -0.1378  0.1099
30292W        W47140   2.569   6.252   6.134 -0.2896 -0.0757 -0.2399
30293W        W47141   9.944  16.027  13.651 -0.2074  0.0354 -0.1647
30294W        W47142  12.604  16.573   4.269  0.2016 -0.1161  0.2613
30295W        W47143  13.909   0.537   2.719 -0.1923  0.1992  0.2322
30296W        W47144  10.302  15.960  15.108  0.0937 -0.2688  0.0406
30297W        W47145   9.688  13.543  16.198 -0.1389  0.2148  0.1285
30298W        W47146   9.874   3.796   3.480 -0.1894  0.0377 -0.1042
30299W        W47147   8.405   1.205  14.145 -0.2692  0.6083 -0.0853
30300W        W47148   5.400  13.658  14.930  0.0439 -0.1276 -0.0601
30301W        W47149   2.469  17.108  13.769 -0.0356 -0.0914  0.2440
30302W        W47150   8.923  17.247  13.627 -0.0722  0.0164 -0.0840
30303W        W47151  17.354   6.092  12.903 -0.1634  0.1049 -0.1477
30304W        W47152  17.168  10.277  10.943 -0.0889 -0.1231  0.2218
30305W        W47153   5.685  15.055   0.110 -0.0155 -0.0505  0.2301
30306W        W47154   7.614  10.537  15.927  0.0364 -0.0396  0.1011
30307W        W47155   4.115  16.654   6.057 -0.2004  0.2122 -0.0407
30308W        W47156   9.167   9.513   1.522  0.0090 -0.0358  0.0152
30309W        W47157   6.038  15.397   5.605  0.2135  0.4547  0.0558
30310W        W47158  13.735   5.496  11.242 -0.2904  0.0756  0.1932
30311W        W47159  14.163  16.347   6.073 -0.3028 -0.0746 -0.2331
30312W        W47160   6.536   1.183  12.635 -0.1063  0.3318 -0.1321
30313W        W47161  11.170   5.264  14.773  0.1879 -0.1364  0.0297
30314W        W47162  10.560   9.741   3.190  0.2772  0.1112  0.3065
30315W        W47163  16.723  17.912  13.352  0.0234  0.2843 -0.0329
30316W        W47164  16.301   6.471  14.198 -0.1796 -0.1040  0.0973
30317W        W47165  17.983  16.307   4.253 -0.0220 -0.2798 -0.3621
30318W        W47166   1.077  10.326  14.357 -0.1101 -0.0307 -0.0111
30319W        W47167   4.937   7.158   4.744  0.2459 -0.1193 -0.1298
30320W        W47168  10.809  16.898   3.154 -0.1145  0.1157  0.3040
30321W        W47169   1.481   6.538  11.994 -0.2345 -0.0252 -0.1631
30322W        W47170   2.219   7.001  12.335 -0.0748 -0.1705  0.0427
30323W        W47171   8.229  11.238   2.460  0.4537  0.0804 -0.1549
30324W        W47172   2.774  11.053  14.435 -0.0459  0.1342 -0.1390
30325W        W47173  10.014   0.003   3.604 -0.1923 -0.3585  0.0898
30326W        W47174   4.145  12.000  15.761  0.0220  0.2656  0.2944
30327W        W47175   0.189   0.075   3.019  0.1357  0.0131  0.1257
30328W        W47176  10.898  11.809  12.635  0.1759 -0.0035  0.0148
30329W        W47177   1.936  11.991  13.589 -0.2591 -0.2142  0.2596
30330W        W47178   9.785   6.582   0.611 -0.1012  0.2555 -0.4886
30331W        W47179   6.915  15.484   1.743 -0.1218  0.1037 -0.1539
30332W        W47180   4.150  14.577   3.748 -0.3728 -0.1437  0.0438
30333W        W47181  13.155  16.957   0.979 -0.1016 -0.2692 -0.1679
30334W        W47182   1.649  16.675  12.240  0.1051  0.1091 -0.1967
30335W        W47183  14.821   4.237   1.016 -0.0676  0.3292  0.0167
30336W        W47184   4.000   6.743   0.594  0.3215  0.2873 -0.3108
30337W        W47185   1.348  13.673   3.133  0.0609 -0.1293  0.2115
30338W        W47186  12.709  14.642   5.048 -0.3512  0.0370  0.0187
30339W        W47187  14.098   5.127   2.055 -0.3912 -0.0339  0.0325
30340W        W47188  17.368  12.155  16.230  0.0115 -0.1135  0.0691
30341W        W47189  11.370   2.132  14.405  0.2106  0.0742 -0.0699
30342W        W47190  11.368   8.873   4.400 -0.1254 -0.1003  0.1824
30343W        W47191   4.525   4.678  12.660  0.2927 -0.0709  0.3558
30344W        W47192   5.725  11.605   0.046 -0.1127  0.3336 -0.1716
30345W        W47193  14.270  15.699  12.734 -0.0028 -0.0952  0.2363
30346W        W47194   6.002   2.010   4.428 -0.5536  0.0331  0.0024
30347W        W47195   4.560   3.220  13.269  0.0352 -0.2474 -0.1601
30348W        W47196  13.872   6.421   3.191  0.0292 -0.1167 -0.1803
30349W        W47197   6.336  13.373   4.374  0.1290 -0.0197  0.2739
30350W        W47198  15.268   4.668  10.461  0.0648  0.0420  0.1182
30351W        W47199   9.519   9.248  11.390 -0.0671  0.0524 -0.0365
30352W        W47200   2.301   5.314   3.090  0.1211 -0.1077 -0.1611
30353W        W47201   2.479  16.349   1.257  0.1130  0.0290  0.2761
30354W        W47202  16.598   7.827   3.619 -0.2771 -0.0036  0.1708
30355W        W47203   4.782  12.461  14.160  0.2357  0.1805 -0.0192
30356W        W47204   9.109   2.570   4.063 -0.3704 -0.3188  0.1111
30357W        W47205   6.355  17.926  13.309  0.2401 -0.1151 -0.2700
30358W        W47206  10.840   6.503   1.530 -0.3710  0.0518  0.0663
30359W        W47207  15.975   8.950   5.050 -0.0354 -0.1279  0.2127
30360W        W47208   6.347   2.867   3.731  0.4012 -0.1218 -0.0481
30361W        W47209   7.504  16.463  12.054  0.2515  0.0100 -0.0973
30362W        W47210   3.982  13.709   4.397  0.1068 -0.1532  0.3948
30363W        W47211   4.935   8.632  12.912 -0.0727 -0.0655 -0.2607
30364W        W47212  12.099   6.962  11.365  0.1531  0.1418 -0.0927
30365W        W47213   1.254   2.148  15.332  0.0620 -0.0860 -0.1164
30366W        W47214   6.595  13.825   0.614  0.0902  0.0383 -0.1442
30367W        W47215   6.483   9.231   3.808  0.0516 -0.1970 -0.3117
30368W        W47216  14.547  17.802   1.793  0.1225  0.2353  0.0609
30369W        W47217  13.804  10.460  14.322  0.0319 -0.0737 -0.0109
30370W        W47218   7.050   8.496  15.050 -0.2311  0.1683  0.3691
30371W        W47219   0.287  17.563   5.195 -0.1171 -0.1506 -0.2361
30372W        W47220  14.811   0.840  14.165 -0.2585  0.2672  0.1671
30373W        W47221  16.782  13.848  10.511 -0.1788 -0.0645 -0.1524
30374W        W47222  15.004   2.241  15.248 -0.1754  0.3437  0.1494
30375W        W47223  10.749  17.579  14.706  0.0436 -0.1124  0.1049
30376W        W47224   4.929  17.661  14.427 -0.4273  0.0938  0.0392
30377W        W47225   9.454  10.403  12.279  0.4129  0.3462 -0.1799
30378W        W47226  12.782   7.365  12.641 -0.1808 -0.4081 -0.2008
30379W        W47227   3.083   8.314   4.973 -0.0379 -0.2725  0.3964
30380W        W47228   3.708  13.388  15.339  0.0232  0.1100 -0.3001
30381W        W47229   4.927   1.789  15.562  0.1065  0.1132  0.0497
30382W        W47230  15.430   5.595  15.515 -0.2256 -0.2049 -0.1122
30383W        W47231  18.020   6.316  14.605  0.0622  0.2026  0.1447
30384W        W47232  17.428  14.065  13.837 -0.1635 -0.0835 -0.0805
30385W        W47233  15.755  11.129  16.000  0.0802 -0.2152 -0.1388
30386W        W47234   7.300  15.417   3.153 -0.1834 -0.0561 -0.1450
30387W        W47235   6.296   0.935   2.419 -0.1266 -0.1365 -0.1701
30388W        W47236  12.064  14.080   4.890 -0.2879 -0.1659 -0.0235
30389W        W47237  16.886   6.735   4.994 -0.0497 -0.0533  0.1069
30390W        W47238   7.606  10.482  12.875 -0.1330 -0.0060  0.3879
30391W        W47239  16.597   0.358   3.439 -0.0906  0.2795  0.4615
30392W        W47240   2.930  14.351   3.031  0.1333  0.1457  0.3678
30393W        W47241   1.532  10.066  14.342  0.1604 -0.1104 -0.1867
30394W        W47242  13.748   9.352  15.567 -0.2535  0.0295  0.1400
30395W        W47243  10.740   9.283   4.391 -0.1794  0.2906  0.2700
30396W        W47244   2.256   7.402   0.933 -0.2385 -0.1097  0.2200
30397W        W47245   1.459   5.420   1.580 -0.1247  0.2176 -0.0516
30398W        W47246   3.371  12.760   1.184  0.1215  0.1501 -0.1186
30399W        W47247   9.262   9.180   0.594  0.0118  0.2346 -0.0233
30400W        W47248  10.799  13.959   3.925  0.3507 -0.4645 -0.1194
30401W        W47249  10.350   3.058  13.080 -0.0209 -0.0196  0.0759
30402W        W47250   3.222  16.237   1.838 -0.2439 -0.4840 -0.0256
30403W        W47251  10.570  15.334   3.978  0.0015 -0.1057  0.2187
30404W        W47252   3.960   1.448   2.838 -0.0458 -0.1408 -0.1396
30405W        W47253   0.044  12.224  13.799 -0.0510 -0.2191  0.0512
30406W        W47254  13.200   5.996   1.773 -0.1640 -0.0943 -0.0516
30407W        W47255   6.320  15.245   4.417  0.2250  0.0205 -0.4825
30408W        W47256  10.676  17.875   1.015 -0.0076  0.0995  0.3090
30409W        W47257   0.865  14.904   3.452  0.0261  0.3244  0.1634
30410W        W47258  16.380   6.063   0.569 -0.0133  0.0867  0.0093
30411W        W47259   0.738  16.209  14.501  0.1446 -0.0085 -0.2160
30412W        W47260  16.178  14.988  12.889  0.1885  0.2623  0.0984
30413W        W47261   9.772   9.130   4.323 -0.1077  0.0238 -0.2642
30414W        W47262   0.626  15.225  15.346 -0.0329  0.1338 -0.1100
30415W        W47263   7.117  14.821   5.038  0.1025 -0.2405  0.0542
30416W        W47264  12.778   0.971  15.824  0.1552  0.4773 -0.0816
30417W        W47265  10.282   6.430   2.958  0.2727 -0.0352 -0.0351
30418W        W47266   8.474   7.327  10.491  0.1599 -0.2102 -0.0679
30419W        W47267   2.167  10.533   4.622 -0.0346 -0.2621 -0.0359
30420W        W47268  11.347   9.788   4.996 -0.3650  0.3761  0.2195
30421W        W47269   3.993  11.530   2.841  0.3698 -0.2979 -0.4240
30422W        W47270   3.135  14.723  13.468 -0.1091  0.4969 -0.0009
30423W        W47271   0.018   4.287  13.953 -0.0377  0.1230 -0.0132
30424W        W47272  10.179   6.843  16.036  0.0741  0.0191 -0.2392
30425W        W47273  11.702   1.222  14.600  0.3160 -0.0583 -0.0950
30426W        W47274   9.170  17.591   4.281  0.1020 -0.3197 -0.2417
30427W        W47275   8.612  16.679   0.001 -0.2505  0.5073 -0.1464
30428W        W47276   6.231  15.849   2.455 -0.1413 -0.0332 -0.0756
30429W        W47277  14.745  14.345  13.114  0.0850  0.1223  0.2133
30430W        W47278  16.861  15.710  14.446 -0.1405  0.3986 -0.1846
30431W        W47279   9.772  16.202   3.640 -0.1864  0.0549  0.1511
30432W        W47280  16.884  16.302  10.978  0.0383 -0.3515  0.2145
30433W        W47281   2.824  15.594  15.419 -0.3360  0.0152 -0.0316
30434W        W47282  14.466   9.659  11.108  0.2696  0.0163  0.1137
30435W        W47283   3.016  17.834   3.189 -0.0942  0.0037  0.0515
30436W        W47284   0.897  10.111   1.286 -0.0674 -0.0725  0.2985
30437W        W47285   4.361   4.876  14.410 -0.2357  0.2833 -0.0835
30438W        W47286   7.967   8.810   3.015 -0.0599  0.0819  0.1037
30439W        W47287   2.259  12.188  11.207 -0.3175  0.0037  0.2407
30440W        W47288  10.212  11.046  15.558 -0.2696 -0.1737  0.0399
30441W        W47289  11.019   4.439  11.252  0.0201  0.0678  0.3435
30442W        W47290  10.846  16.887  10.986 -0.1826 -0.2040 -0.0463
30443W        W47291  11.310  13.350  13.739  0.0131 -0.1564 -0.1908
30444W        W47292  10.349   7.181  14.167 -0.0076  0.1039 -0.1907
30445W        W47293  11.538  13.143   0.328 -0.3730  0.2619  0.2757
30446W        W47294  14.185  11.189   4.234  0.0821 -0.3549 -0.0721
30447W        W47295  14.722  13.277   0.338  0.0148  0.1262 -0.0812
30448W        W47296   5.758   9.277   0.049  0.1917  0.2018 -0.0336
30449W        W47297   7.158   9.391   2.914 -0.0019  0.4230  0.0222
30450W        W47298  12.515   4.229   3.362  0.0879  0.0366 -0.0768
30451W        W47299  15.566  17.286   1.281 -0.2353  0.3934 -0.0262
30452W        W47300  17.135   6.884  12.518 -0.1423 -0.2164 -0.2137
30453W        W47301  16.322  11.575  11.698  0.3027  0.2701  0.2531
30454W        W47302   5.275  15.939   4.271  0.2973 -0.0770 -0.0873
30455W        W47303  11.904   4.724   2.756  0.0561  0.3468 -0.1356
30456W        W47304   4.087   4.161   2.180  0.2441  0.0456  0.2522
30457W        W47305   7.103  15.055  11.583  0.0071  0.0099  0.0656
30458W        W47306   5.462  15.524  15.005  0.1150 -0.0213 -0.2824
30459W        W47307   8.578   9.612   4.025 -0.0635 -0.0905  0.0700
30460W        W47308  14.960   5.431  11.810  0.1007 -0.2653  0.1013
30461W        W47309   5.817   5.763  12.705 -0.1912 -0.3612 -0.2140
30462W        W47310   2.451  13.315   3.696  0.0790  0.1100  0.1890
30463W        W47311  13.975  12.093   2.013 -0.3112  0.1081  0.1736
30464W        W47312  16.980  10.730   4.895  0.1813 -0.1011 -0.0795
30465W        W47313   5.782  17.731  15.199 -0.0390  0.0179  0.1408
30466W        W47314   2.788   5.159   4.060 -0.3412 -0.2405  0.0058
30467W        W47315  17.810   3.518  16.063  0.0868  0.0176  0.1151
30468W        W47316  15.096   6.295  13.188  0.0143  0.2014  0.1308
30469W        W47317  10.170   8.986   3.717  0.1136  0.1747 -0.3339
30470W        W47318   9.971   0.462  13.717  0.0413 -0.0330  0.1202
30471W        W47319   5.375  15.035  15.057 -0.1091  0.0228  0.0171
30472W        W47320  11.683   4.427  13.800 -0.0386 -0.2440  0.0291
30473W        W47321   4.300  10.699   1.409 -0.0411 -0.3061 -0.3138
30474W        W47322  10.728  10.218   3.320  0.0228  0.0803 -0.2709
30475W        W47323   7.858   8.435  13.039  0.1282  0.2412 -0.0007
30476W        W47324  10.562   6.061   1.264  0.0487  0.2089 -0.0696
30477W        W47325  10.333   1.514  13.312 -0.1922 -0.0552 -0.0777
30478W        W47326   5.870   6.822  12.643  0.0335 -0.0112  0.0945
30479W        W47327   1.355  17.540  15.177 -0.3482  0.1304 -0.0807
30480W        W47328  10.710  14.389  11.850 -0.0115 -0.2258  0.2156
30481W        W47329  10.207  16.776   1.984  0.0102 -0.0397  0.2669
30482W        W47330   3.819   2.883   0.628  0.0845  0.1703 -0.1889
30483W        W47331   8.373   4.526   3.318 -0.0253 -0.2721  0.1312
30484W        W47332   8.292   3.320  16.225  0.1257  0.0618 -0.2865
30485W        W47333   7.515  13.640   4.017  0.0009  0.2084 -0.3081
30486W        W47334  16.727  11.362   5.596 -0.0575  0.2292 -0.0466
30487W        W47335  10.655   8.166   0.559  0.3923 -0.0952  0.3472
30488W        W47336  10.215   5.380  11.997  0.0937 -0.2099 -0.0707
30489W        W47337   8.133   0.692   4.717 -0.2516 -0.4814 -0.2459
30490W        W47338   8.024   2.856  13.955  0.0010 -0.1274  0.0025
30491W        W47339  15.494   7.748  12.099  0.2721 -0.0186 -0.0831
30492W        W47340  17.867   2.001  16.150  0.1351  0.0929  0.0642
30493W        W47341   4.330   1.292   5.288 -0.2984  0.0339 -0.1860
30494W        W47342  12.659  14.574  10.227 -0.5142  0.0850  0.1492
30495W        W47343   5.553   1.410  14.706 -0.1839  0.0429  0.1630
30496W        W47344   4.593  10.451  15.192 -0.1492 -0.2643  0.0693
30497W        W47345  10.768   2.778   1.152 -0.0045  0.0010 -0.0260
30498W        W47346  14.547   8.649   0.294  0.0230 -0.0349  0.3848
30499W        W47347  17.564  17.567   2.157 -0.4680  0.1719 -0.2064
30500W        W47348  11.088  15.636   3.698 -0.0100 -0.1868  0.0264
30501W        W47349  13.026  17.324   3.909 -0.0946  0.0014 -0.1216
30502W        W47350   4.815  15.187  15.554  0.0092 -0.1353  0.1542
30503W        W47351   8.511   5.249  11.466 -0.4746 -0.3639 -0.0828
30504W        W47352   8.707   4.769  12.231  0.0673 -0.0340 -0.2679
30505W        W47353   9.590   6.934   3.943  0.1975  0.1981 -0.3348
30506W        W47354  11.256  11.224   2.427 -0.2362 -0.1756  0.2288
30507W        W47355   2.858   5.654   0.507 -0.1880 -0.0801  0.0758
30508W        W47356   0.982   3.468   4.609  0.0012  0.0535 -0.0906
30509W        W47357   0.003  12.902   0.870  0.2236 -0.0746  0.1106
30510W        W47358  16.154  17.287  14.538  0.0479 -0.0443 -0.2184
30511W        W47359  16.413  10.454   3.179  0.0267 -0.0601 -0.3308
30512W        W47360   6.685   7.629  15.861  0.4070  0.1781  0.0800
30513W        W47361   8.560   6.889  10.247 -0.1441  0.3719 -0.0921
30514W        W47362  12.885   4.049  12.072 -0.1175 -0.0482 -0.1506
30515W        W47363  10.928   4.193   4.909 -0.0279 -0.0391 -0.1649
30516W        W47364   5.921   8.223   2.143  0.2612 -0.1418  0.1326
30517W        W47365   7.925  12.488   2.701 -0.1846 -0.1602  0.0857
30518W        W47366  16.207  12.081   3.905  0.0370 -0.2517  0.1428
30519W        W47367   7.067  11.318  14.498 -0.1952 -0.0508  0.1368
30520W        W47368   9.691  14.439  13.644 -0.0185 -0.0130 -0.1132
30521W        W47369   2.365  16.941  12.743  0.2164 -0.1645  0.1226
30522W        W47370  17.504   3.347  11.413 -0.0287  0.0575 -0.0416
30523W        W47371   3.595   4.316  13.005 -0.2555  0.0977  0.0469
30524W        W47372  17.360   6.451   2.345 -0.2173 -0.1056  0.1428
30525W        W47373  10.991  17.745  11.602 -0.1577 -0.2402 -0.1139
30526W        W47374   6.732   0.858  11.372 -0.0443 -0.3575  0.0783
30527W        W47375  13.643   6.814  13.517 -0.3429  0.1594  0.1364
30528W        W47376  14.790  11.471  11.661 -0.0649  0.1235 -0.3386
30529W        W47377   6.627   3.074  13.888 -0.1458  0.1455  0.1177
30530W        W47378   4.179   2.684   4.061 -0.0025  0.2166 -0.3094
30531W        W47379   8.168  13.465  15.085 -0.0953 -0.2597 -0.3081
30532W        W47380  15.943  15.924  10.945  0.1367  0.1046  0.1918
30533W        W47381   6.824   0.130   5.846  0.3570 -0.0617  0.3113
30534W        W47382   6.169   4.165   3.379 -0.0363 -0.0258 -0.3526
30535W        W47383   8.970   1.423  12.122  0.0947 -0.0540  0.1708
30536W        W47384   5.924  11.827  12.384  0.4192  0.0550 -0.1001
30537W        W47385  12.960   8.739  13.342 -0.0720 -0.0763  0.2017
30538W        W47386   3.566   7.123   0.762 -0.1205 -0.3774  0.1711
30539W        W47387   0.774   1.148   0.460 -0.3451 -0.4430 -0.1328
30540W        W47388   7.739   9.083   0.389 -0.0595  0.0237 -0.0088
30541W        W47389  17.887  17.180  12.218  0.0359  0.1207  0.0866
30542W        W47390  16.935  10.070  10.189 -0.1260  0.2708  0.3583
30543W        W47391  14.536   0.371  13.295 -0.0052  0.0566  0.2605
30544W        W47392   7.492   7.263   3.614 -0.2018  0.0863 -0.4079
30545W        W47393  14.498  13.570  11.612  0.0091  0.4681 -0.0374
30546W        W47394   9.626   7.096   0.277  0.0156 -0.0299 -0.0606
30547W        W47395   0.321   8.102   3.155  0.0452 -0.0624 -0.0758
30548W        W47396  17.147   7.088  12.980 -0.1483  0.2462 -0.2498
30549W        W47397  10.650   9.177  13.235 -0.2053 -0.2979  0.0102
30550W        W47398   9.027   1.641   3.066  0.1339 -0.1345 -0.4058
30551W        W47399   8.472  14.614  11.921  0.1345 -0.0767 -0.0199
30552W        W47400   3.404  14.135   3.218 -0.5056 -0.0127  0.1902
30553W        W47401   2.033   8.201   0.031 -0.0123  0.0047 -0.0123
30554W        W47402   1.784   3.218  13.669  0.1295 -0.0200  0.1658
30555W        W47403  17.983  16.058   0.803  0.0124 -0.1503 -0.2270
30556W        W47404   4.979   7.391  14.323  0.1370  0.0373 -0.0041
30557W        W47405   9.525   9.556  12.588 -0.1156 -0.0236 -0.2108
30558W        W47406  12.573   0.152   0.409  0.2053  0.1187  0.1156
30559W        W47407   1.271  15.519   1.615 -0.1082 -0.2218 -0.1611
30560W        W47408   0.318   0.487   5.058  0.1749 -0.0948 -0.2353
30561W        W47409  10.900  16.981   5.030 -0.0292 -0.0007  0.4274
30562W        W47410  12.894   9.640  15.284  0.1516  0.4493 -0.0480
30563W        W47411   3.426   3.735   1.317  0.2610  0.0603 -0.0185
30564W        W47412  11.826   6.388  15.187  0.1333 -0.3174 -0.2812
30565W        W47413  11.372   6.038   3.899  0.0942 -0.1438 -0.2706
30566W        W47414   8.472   2.208  13.280  0.3241 -0.0096  0.0159
30567W        W47415   9.401   4.301  15.017  0.1316 -0.0796  0.2043
30568W        W47416   7.450  16.773  16.036  0.1164 -0.1265 -0.1553
30569W        W47417  12.314  12.716   0.896  0.4158 -0.2630 -0.1446
30570W        W47418   8.386   2.707   3.188 -0.0982 -0.0765 -0.2494
30571W        W47419  17.095   0.253   3.426 -0.0725  0.0023 -0.1655
30572W        W47420  11.384   7.780  12.929  0.1496 -0.1368 -0.1096
30573W        W47421   7.267   3.083   3.568 -0.1200 -0.0258  0.2981
30574W        W47422   3.867   7.859   5.017  0.0521  0.1851  0.1157
30575W        W47423  12.094   7.148   3.688 -0.3151 -0.2566  0.2150
30576W        W47424   4.221   5.917   3.879  0.0514  0.0799  0.0341
30577W        W47425   8.268  12.362  11.195 -0.0518  0.2947  0.1079
30578W        W47426   6.394  14.487   5.183  0.3780 -0.1988 -0.0423
30579W        W47427   2.807  14.755  12.257 -0.1717  0.0236  0.2529
30580W        W47428   6.337  13.710  15.567 -0.0922 -0.1009 -0.4103
30581W        W47429   4.104   8.169  16.261 -0.2511 -0.1178 -0.1362
30582W        W47430   6.602   3.808  14.671  0.3499  0.3511 -0.2066
30583W        W47431  14.032   5.240  14.629  0.1961 -0.0351 -0.0627
30584W        W47432   9.626   1.924  11.921 -0.0112 -0.2322 -0.1734
30585W        W47433   7.015   2.283  12.938  0.2616 -0.1470 -0.0192
30586W        W47434   2.427   0.435  13.353  0.2074  0.0177 -0.3504
30587W        W47435   2.484  14.471   0.033  0.1766  0.0378 -0.1817
30588W        W47436   6.397   7.851   1.533  0.0472  0.1942  0.1344
30589W        W47437   0.627  11.448  12.681  0.1859  0.0190 -0.0696
30590W        W47438   5.465   1.816  14.308 -0.0255  0.3301  0.0939
30591W        W47439  14.844   5.719  12.904 -0.1874  0.2663  0.1633
30592W        W47440   3.025   3.799   2.743 -0.0680  0.4032  0.0196
30593W        W47441   4.013   8.526  14.980  0.0012 -0.0260  0.2466
30594W        W47442   5.856   7.705  12.418 -0.0235  0.2352  0.4025
30595W        W47443  12.551  10.440  11.764 -0.1179  0.1554  0.0795
30596W        W47444  11.676   8.921  10.008 -0.0609  0.1934 -0.1378
30597W        W47445   1.307  11.355  11.894 -0.1228 -0.0495  0.0811
30598W        W47446   4.960  17.862  13.503  0.2730  0.1972  0.3205
30599W        W47447  13.964  11.261   1.502  0.0645 -0.0636  0.0674
30600W        W47448  15.911  16.304  11.749 -0.3798  0.0625  0.0366
30601W        W47449  15.312   8.567  14.258  0.4484  0.0857  0.2748
30602W        W47450   5.548   6.898  15.047  0.1258  0.0894  0.4480
30603W        W47451   2.138  11.665   3.975  0.0713  0.1355  0.1761
30604W        W47452   5.581   4.889   1.650 -0.0074  0.1679  0.0386
30605W        W47453  12.457   0.386   2.995  0.0179  0.0762 -0.1269
30606W        W47454   1.850   2.834  14.168  0.0297  0.0850 -0.1837
30607W        W47455   6.029   5.763   3.461  0.1627  0.0068  0.0486
30608W        W47456  10.604   6.973  13.744 -0.0856 -0.1288  0.0671
30609W        W47457  12.536   5.608  15.241 -0.2699  0.2827  0.1494
30610W        W47458  14.964   8.823   0.064  0.0230 -0.2712 -0.0648
30611W        W47459  14.457   0.548  14.451 -0.2532 -0.0498  0.0258
30612W        W47460  10.067   8.737   0.822  0.0411 -0.3604  0.0476
30613W        W47461   8.886  17.474  12.079  0.0488 -0.2738  0.1793
30614W        W47462   9.186  10.182  11.427 -0.0408 -0.2858  0.0164
30615W        W47463   3.181   8.224  11.992 -0.4161  0.3090 -0.0348
30616W        W47464   9.909  10.833   3.750 -0.1577 -0.2484 -0.0055
30617W        W47465   0.450  15.895   2.523 -0.0755  0.1558 -0.0208
30618W        W47466  10.875   9.642   4.706  0.2618 -0.0488 -0.0990
30619W        W47467   7.973   4.700   3.897  0.1900 -0.3144 -0.1116
30620W        W47468   4.083  16.228  11.303  0.0686 -0.1386 -0.2411
30621W        W47469   8.133   3.868  11.785  0.0575  0.0706  0.0301
30622W        W47470   9.010  15.690  12.542  0.1948  0.5558 -0.1055
30623W        W47471  11.133  17.183   3.490 -0.1684  0.0520  0.2366
30624W        W47472   2.151  13.180   0.353  0.0662 -0.0486 -0.2379
30625W        W47473  12.587   4.806  15.620  0.0101  0.4343 -0.0152
30626W        W47474  12.210   7.503  12.980 -0.0208  0.1077 -0.2180
30627W        W47475  16.641  13.218  13.256  0.0104 -0.2393 -0.1325
30628W        W47476   4.576   1.672  16.021 -0.0719  0.2104  0.2342
30629W        W47477  15.874   6.752  14.354 -0.1526 -0.1285 -0.2571
30630W        W47478   4.060  17.173   3.156 -0.0404 -0.4801 -0.0788
30631W        W47479   2.053   1.289   1.146  0.0025  0.0944 -0.2943
30632W        W47480  16.766  15.453  12.723  0.1852 -0.0519 -0.0564
30633W        W47481   2.849   5.335  15.879 -0.0806  0.0056  0.1900
30634W        W47482  11.469   6.656   3.029  0.0431 -0.4586 -0.0108
30635W        W47483  10.827  10.885  15.635  0.2927 -0.1128  0.0580
30636W        W47484  17.991  13.435   3.233 -0.1416 -0.3142  0.0721
30637W        W47485  13.414  16.940  16.198 -0.0708 -0.1422 -0.3122
30638W        W47486  13.969   0.987  12.731 -0.2140  0.0619  0.1476
30639W        W47487   6.746  10.775   5.333 -0.2076  0.0485  0.1935
30640W        W47488   5.596   4.399   0.970  0.3249  0.5105  0.3781
30641W        W47489  11.080  10.208   4.950  0.2116  0.1753  0.0421
30642W        W47490  14.497   4.879   4.026  0.0614 -0.1663 -0.1466
30643W        W47491   2.174  15.397  12.951 -0.1308 -0.0696 -0.1388
30644W        W47492   4.463  12.185  16.126  0.1452 -0.1792  0.1979
30645W        W47493  11.917  14.997  11.132 -0.0834 -0.2599 -0.2148
30646W        W47494  10.006  14.021   3.794 -0.2763  0.0504  0.5304
30647W        W47495   3.546   2.934   1.114 -0.1023  0.4782 -0.0132
30648W        W47496  16.830   3.608   0.152  0.0116 -0.4618 -0.0783
30649W        W47497  10.632   3.239  14.418 -0.1250 -0.0123 -0.0053
30650W        W47498   0.739   7.949   5.614  0.0213  0.2357 -0.0580
30651W        W47499   0.490  14.917  15.893 -0.1715  0.0206 -0.2805
30652W        W47500  10.510  17.182   4.268  0.1857 -0.1264  0.1320
30653W        W47501   6.207   9.961  12.833 -0.0359  0.0307  0.3484
30654W        W47502  10.665  12.412  15.697 -0.1328  0.1152 -0.0001
30655W        W47503   7.978   9.506   0.791  0.3086  0.0262 -0.2795
30656W        W47504  16.269   5.549  14.804 -0.0645 -0.2639  0.1271
30657W        W47505  16.319   7.570   5.950  0.1154 -0.1419  0.1477
30658W        W47506   3.907   6.737   1.107  0.2079 -0.2338 -0.1776
30659W        W47507  11.175   7.991   1.038  0.1982 -0.0231 -0.1889
30660W        W47508   5.299   8.025   4.256 -0.0734 -0.1051 -0.0789
30661W        W47509  16.068   4.654   1.775  0.4346  0.1851  0.1277
30662W        W47510  10.198   1.169  11.454  0.1472  0.0754 -0.0255
30663W        W47511  15.000   8.991  12.658 -0.0984  0.3641 -0.0943
30664W        W47512  14.385   8.924   1.808 -0.1983  0.2091  0.2302
30665W        W47513   3.184   7.187   3.029 -0.0410 -0.0301  0.3279
30666W        W47514   0.392  13.236  13.012 -0.5629 -0.0172  0.0110
30667W        W47515  14.725  11.874  15.383 -0.1030  0.4069 -0.1270
30668W        W47516   7.345  11.973   4.343 -0.1977  0.1279 -0.0303
30669W        W47517   0.409   5.194   1.243  0.2619  0.0769  0.1347
30670W        W47518  15.634   5.343   2.632  0.0975 -0.0615  0.0728
30671W        W47519   4.348  15.380  14.160 -0.0239 -0.1071 -0.1429
30672W        W47520   1.546  17.624   1.732  0.0466 -0.1912  0.1606
30673W        W47521   3.460   4.176   1.477 -0.3448  0.2225 -0.0108
30674W        W47522  11.703   6.317  14.323 -0.0007 -0.0523  0.2809
30675W        W47523  10.338   6.538   4.548  0.0230 -0.0820  0.0230
30676W        W47524  11.105   1.159   4.017  0.0534 -0.2320 -0.2642
30677W        W47525   7.962   1.724  12.984  0.4699 -0.0152 -0.4690
30678W        W47526  15.327   8.124   4.857 -0.1091  0.1003  0.0465
30679W        W47527  12.932   6.050   2.363 -0.0104  0.0713  0.0505
30680W        W47528   3.374  14.912  15.788  0.2771  0.4078  0.1651
30681W        W47529   6.663   4.317  14.988  0.0505 -0.2419  0.2769
30682W        W47530  13.167  17.977  13.849 -0.0430  0.0357 -0.0017
30683W        W47531  11.771  17.127  14.835  0.0167 -0.2668  0.1186
30684W        W47532   0.631  12.659   4.124  0.1387  0.0345 -0.1873
30685W        W47533  14.341  14.070  12.414 -0.0921 -0.0216 -0.0835
30686W        W47534  10.677  16.612  12.858  0.1399  0.0538  0.1624
30687W        W47535   0.382   2.779   4.598 -0.0912  0.2291  0.1765
30688W        W47536  14.927   6.106   2.868 -0.1489 -0.5377  0.1985
30689W        W47537   9.000   6.371   1.715  0.1626  0.1396 -0.0299
30690W        W47538   2.590   5.470   2.660 -0.1929 -0.0989 -0.2035
30691W        W47539  17.289  10.963   0.667 -0.0642 -0.1474  0.3308
30692W        W47540   5.498   7.152  11.800  0.6629  0.0692  0.3274
30693W        W47541  14.182   4.076   4.298 -0.2319  0.0408 -0.2140
30694W        W47542   5.609   8.756  13.686 -0.1674 -0.1548  0.2086
30695W        W47543  12.822  16.402  14.392  0.2099  0.2723 -0.2670
30696W        W47544  17.872   9.551  15.012 -0.0758 -0.1828 -0.2497
30697W        W47545  11.654   5.489  12.321 -0.3864 -0.0033  0.0533
30698W        W47546  10.127  12.759   0.997  0.2850  0.1198  0.1095
30699W        W47547   5.319   8.769  16.023 -0.0845  0.0465 -0.2571
30700W        W47548   2.265  13.593  11.554 -0.0222  0.2123 -0.1477
30701W        W47549  11.432  15.327   5.186 -0.2796 -0.2970 -0.0506
30702W        W47550   7.425  10.369   4.789  0.4005  0.2175 -0.0808
30703W        W47551   1.480  13.739   1.181 -0.2251 -0.0328 -0.1426
30704W        W47552   0.590   1.401  14.478  0.1963 -0.0285 -0.0543
30705W        W47553  10.283   0.618  13.395 -0.1586 -0.4383  0.0287
30706W        W47554  10.256  15.569  15.748  0.0547 -0.0326 -0.2163
30707W        W47555   8.561   1.184  12.067 -0.3818  0.3713  0.0489
30708W        W47556  12.112  16.142  15.896 -0.0970 -0.0157  0.0490
30709ION     NA47557   9.799   6.787  10.097 -0.2317  0.1605  0.1052
30710ION     NA47558   0.065   2.882  10.370  0.0807 -0.1743  0.2246
30711ION     NA47559  17.271   6.614  10.774 -0.1169 -0.0271 -0.3062
30712ION     NA47560   6.391   3.688  10.551 -0.0410  0.1626  0.0419
30713ION     NA47561   4.714  12.542   5.991 -0.1505  0.0810  0.1851
30714ION     NA47562  16.702   2.557   5.711  0.2125  0.3246  0.2575
30715ION     NA47563  18.000   7.162   4.031  0.0425 -0.0065 -0.3655
30716ION     NA47564  17.449  13.879  13.373  0.1261 -0.2098  0.1753
30717ION     NA47565   4.768   1.815   6.127  0.0488  0.3269 -0.3068
30718ION     NA47566  10.280   6.514   1.468  0.0155 -0.4483  0.2958
30719ION     NA47567   1.327  17.754  13.062  0.0674  0.4775 -0.0344
30720ION     NA47568   3.247   7.813  10.473 -0.2822 -0.0404 -0.1203
30721ION     NA47569   3.414  12.218   0.984  0.3610  0.0224  0.0503
30722ION     NA47570   7.211  14.320  15.653 -0.0535 -0.2255  0.1168
30723ION     NA47571   5.032   8.262   5.920  0.0493  0.1253 -0.1681
30724ION     NA47572   3.680   7.617   1.046 -0.2637  0.1924 -0.0712
30725ION     NA47573   1.283  10.780   4.674 -0.0890 -0.0095 -0.0797
30726ION     NA47574   7.788  10.085   2.615 -0.0192 -0.0001 -0.1977
30727ION     NA47575  10.745  10.577   0.151  0.1183  0.0007  0.0107
30728ION     NA47576   9.119   9.268  10.247 -0.1036  0.0397  0.1739
30729ION     NA47577  10.966  11.025  11.807  0.1516 -0.0480  0.0570
30730ION     NA47578  12.675   7.134   2.920 -0.1853  0.0531  0.1707
30731ION     NA47579   2.995   9.968   5.786 -0.0200  0.2290 -0.1652
30732ION     NA47580   9.812   0.459   5.637  0.4082 -0.1958 -0.1391
30733ION     NA47581  12.463   4.522  10.298 -0.3320  0.3562 -0.3149
30734ION     NA47582   4.156   8.005  10.285  0.1483  0.3386  0.1115
30735ION     NA47583   8.166   3.744   0.903  0.0718 -0.0524  0.0814
30736ION     NA47584   5.416  10.365  15.674 -0.2493  0.2573  0.2585
30737ION     NA47585   6.972  12.136  10.555  0.1187 -0.4085  0.0387
30738ION     NA47586  11.156   5.606   5.655  0.0360 -0.0281  0.1184
30739ION     NA47587   8.005  14.651   0.940 -0.1259 -0.2894  0.2343
30740ION     NA47588  15.202  13.314   3.552  0.0742 -0.0683  0.3819
30741ION     NA47589   0.029   3.891  14.325 -0.2358 -0.2700  0.1521
30742ION     NA47590  10.670   3.180  10.331 -0.2096 -0.1101 -0.1538
30743ION     NA47591  16.341   1.664  14.203 -0.0517 -0.1556 -0.4409
30744ION     NA47592   1.394  15.516   5.652  0.0624  0.0114 -0.0295
30745ION     NA47593   2.610   5.257  15.471  0.0504  0.0215  0.0783
30746ION     NA47594   4.850   3.674   0.557  0.2361 -0.3481  0.1095
30747ION     NA47595   8.377   7.872   2.290  0.2476 -0.2227  0.0357
30748ION     NA47596   0.331   0.480   6.166 -0.0326 -0.1541  0.0925
30749ION     NA47597   5.206  13.646   6.181 -0.0943  0.2305  0.3217
30750ION     NA47598   0.303  15.625  10.558 -0.4851 -0.0733  0.0349
30751ION     NA47599   4.202   9.697  10.692  0.2345 -0.1439 -0.0386
30752ION     NA47600   2.274  16.812  15.688 -0.1200 -0.0172  0.1520
30753ION     NA47601   8.166  10.803   6.092 -0.1861 -0.1694 -0.2392
30754ION     NA47602  13.635  15.469   5.918  0.0662  0.3618 -0.1567
30755ION     NA47603  16.202   5.206  15.346 -0.1728 -0.0540 -0.1551
30756ION     NA47604  13.588   9.199   1.387 -0.1020  0.2982  0.0204
30757ION     NA47605   3.405   7.839   5.405 -0.0953  0.6051 -0.0146
30758ION     NA47606  13.447  15.986  10.366  0.0125 -0.4748  0.0317
30759ION     NA47607   0.789   8.914   5.547  0.0659 -0.1354  0.0011
30760ION     NA47608  17.338   8.794  10.430 -0.1440 -0.3101 -0.1459
30761ION     NA47609   3.814  15.746   3.904  0.1075  0.1808  0.0272
30762ION     NA47610  14.456  17.589  10.460  0.0849  0.1485 -0.0772
30763ION     NA47611  16.420  17.698   4.237  0.0604  0.4848  0.0564
30764ION     NA47612   9.461   7.948   1.003 -0.1272 -0.0422  0.5315
30765ION     NA47613   7.772   5.510  14.475 -0.2253  0.1128  0.1627
30766ION     NA47614   8.942   1.323  10.533  0.1505 -0.3327 -0.2880
30767ION     NA47615  15.818  12.115  12.732 -0.4022  0.1722 -0.0991
30768ION     NA47616   0.020   5.004   6.076  0.1144 -0.0744  0.0547
30769ION     NA47617   9.392   8.775  10.187  0.1840  0.2604 -0.1327
30770ION     NA47618   6.034   5.896  13.142 -0.2947 -0.1982 -0.1416
30771ION     NA47619   4.708   7.793   4.001  0.2616  0.0299  0.1553
30772ION     NA47620   6.342   0.830  13.046 -0.3046 -0.0277 -0.0585
30773ION     NA47621  13.581  11.546   5.637  0.0251  0.0156 -0.1706
30774ION     NA47622  11.070   8.321  12.264 -0.2579  0.1473  0.1302
30775ION     NA47623   0.089   2.763   3.348 -0.1930 -0.2322  0.2167
30776ION     NA47624   2.231   2.545  10.675  0.0119  0.4113  0.0491
30777ION     NA47625  14.454   4.104  12.769 -0.0849 -0.1294  0.3029
30778ION     NA47626   1.275  10.402  12.162  0.4374  0.2067 -0.0651
30779ION     NA47627   1.985   0.862  10.935  0.2801  0.4492 -0.0440
30780ION     NA47628   2.821  13.500  15.164  0.1932  0.0878  0.0912
30781ION     NA47629   8.094   1.399  15.964 -0.0232 -0.0801 -0.0605
30782ION     NA47630  17.306   5.101   1.334  0.1217 -0.0180  0.0375
30783ION     NA47631   7.045  15.869  16.205  0.3774 -0.3795  0.0036
30784ION     NA47632   2.014   2.950  14.640  0.1635  0.0163  0.0187
30785ION     NA47633   5.741  11.919   5.141 -0.1269 -0.4326 -0.1363
30786ION     NA47634   9.073   1.918  14.308  0.2875 -0.2987  0.1349
30787ION     NA47635   3.080   2.149  10.834 -0.0257  0.2011 -0.2349
30788ION     NA47636   0.242   5.882   3.910  0.2427 -0.1870  0.0983
30789ION     NA47637  10.079  14.475   5.975  0.0916 -0.0457  0.1280
30790ION     NA47638  11.879  17.982   5.446 -0.0786 -0.1070  0.0387
30791ION     NA47639  16.191   0.231   5.836 -0.2459  0.1375  0.0168
30792ION     NA47640  16.397   2.556  10.429  0.2316 -0.3936  0.0743
30793ION     NA47641  10.983  16.584   2.255  0.0646  0.0165  0.3091
30794ION     NA47642  12.760  12.867  11.208  0.0477 -0.2954  0.0923
30795ION     NA47643  16.517  12.043  10.178  0.1092  0.0201 -0.2071
30796ION     NA47644   9.480   1.797   5.735 -0.1457  0.2554  0.0285
30797ION     NA47645  11.107  12.248   4.909  0.0119 -0.2572  0.2939
30798ION     NA47646   6.793   2.135  10.944 -0.0918  0.1054 -0.2102
30799ION     NA47647  10.037   5.957  10.134  0.0373  0.1213  0.1431
30800ION     NA47648   2.783   8.733  10.189  0.1246  0.0228 -0.1927
30801ION     NA47649   8.925   5.970   2.014 -0.3075 -0.2156  0.1475
30802ION     NA47650   9.451   6.789  15.616  0.1172 -0.1585  0.0717
30803ION     NA47651  14.045   4.267   5.703  0.1481  0.0797  0.1859
30804ION     NA47652   2.245  12.544  11.728 -0.0172  0.0138 -0.0216
30805ION     NA47653  16.934  17.760  13.872 -0.1789 -0.1540 -0.3208
30806ION     NA47654  15.808  10.983  11.018 -0.3061 -0.0490  0.0815
30807ION     NA47655  13.749   1.350   0.961 -0.1744  0.0233 -0.2506
30808ION     NA47656  17.486  11.880  15.824 -0.1882  0.1246  0.1660
30809ION     NA47657   2.014   0.155  14.159  0.1871 -0.0612 -0.1513
30810ION     NA47658   6.255   9.045   5.915  0.0869  0.0471  0.0971
30811ION     NA47659   9.361   4.017  10.285  0.2339 -0.0878 -0.1489
30812ION     NA47660   6.121  15.233   6.634  0.1211 -0.0343 -0.2049
30813ION     NA47661   3.161   9.500  10.776  0.2229 -0.1646 -0.0990
30814ION     NA47662   0.549   1.148  10.556 -0.0775 -0.0125 -0.0723
30815ION     NA47663   7.068   9.363   0.020 -0.0239  0.2315 -0.2113
30816ION     NA47664  16.445   7.576  10.375 -0.0717 -0.0038  0.1012
30817ION     NA47665   2.354   9.797  10.210  0.0671 -0.0135  0.0365
30818ION     NA47666  12.114   3.290  16.044  0.5477  0.3495 -0.1580
30819ION     NA47667  14.050  17.601   2.853 -0.2947 -0.4167 -0.1780
30820ION     NA47668  14.374  16.744  10.704 -0.2758 -0.0947 -0.2268
30821ION     NA47669  17.709  17.985   6.094 -0.1054 -0.1592  0.0457
30822ION     NA47670  11.108  10.076  10.328  0.0355  0.5576 -0.0102
30823ION     NA47671  15.930  15.073  10.732 -0.1732  0.0322 -0.3312
30824ION     NA47672  16.509  14.659  15.941 -0.0357 -0.1505 -0.0079
30825ION     NA47673   6.840   4.681   5.451 -0.2067 -0.2142  0.2495
30826ION     NA47674   8.280  14.374   6.012 -0.0258 -0.2343 -0.4052
30827ION     NA47675   5.714  17.824   1.489  0.0356  0.1847 -0.2011
30828ION     NA47676  11.196   7.610  14.241  0.1966  0.1212  0.3965
30829ION     NA47677   4.509   7.098  10.608  0.3809 -0.1113  0.0511
30830ION     NA47678   4.126   4.553  10.914  0.0165 -0.0717 -0.0195
30831ION     NA47679  13.774  10.139  10.444 -0.0454 -0.0438  0.1009
30832ION     NA47680  13.181   4.373   5.947  0.1024 -0.1220 -0.0178
30833ION     NA47681   7.662  11.317  15.201 -0.0733 -0.1810 -0.1048
30834ION     NA47682  10.160  11.740  10.423 -0.1144 -0.1887  0.1244
30835ION     NA47683   4.136   0.779   6.101  0.0263 -0.1359 -0.1335
30836ION     NA47684  16.541   4.303   5.919 -0.1454  0.1168  0.2495
30837ION     NA47685   8.979   6.324   3.416 -0.0317  0.2870  0.1550
30838ION     NA47686   7.047   2.004  15.845  0.0499 -0.1049 -0.1238
30839ION     NA47687   4.583   9.613   5.785 -0.0146  0.0044  0.4050
30840ION     NA47688   7.458  14.149   6.080  0.0784  0.0561  0.2310
30841ION     NA47689  10.117   9.563   0.462  0.0642  0.0360 -0.2358
30842ION     NA47690   5.219   7.287   5.648  0.0054  0.0575  0.3058
30843ION     NA47691   4.531  13.973  15.311 -0.2321  0.3153 -0.3736
30844ION     NA47692   1.412  16.772  10.665 -0.3502  0.3237 -0.1742
30845ION     NA47693   8.267  12.249  10.628  0.0314  0.0997  0.1613
30846ION     NA47694  14.918   2.182  16.085  0.2906  0.0166 -0.1801
30847ION     NA47695  14.190   2.353  10.575  0.0804  0.1315  0.3340
30848ION     NA47696   6.732  17.177  14.099  0.0729 -0.0526 -0.0125
30849ION     NA47697   1.815  14.614  15.028  0.0264 -0.2765 -0.3211
30850ION     NA47698   3.128   4.422  12.745 -0.1155 -0.0612 -0.1078
30851ION     NA47699   7.120   9.940  13.389  0.1478 -0.0476  0.1830
30852ION     NA47700   3.143  16.218   5.874  0.1053  0.0492  0.0229
30853ION     NA47701  16.026   6.289  15.529 -0.3203 -0.0320  0.1913
30854ION     NA47702  17.035  18.041   5.981  0.0437 -0.1063  0.0500
30855ION     NA47703   9.790  17.558  13.756 -0.0643 -0.0878 -0.3634
30856ION     NA47704  15.664   6.639  10.763 -0.1656 -0.3368  0.0473
30857ION     NA47705   1.934  10.316  14.408 -0.1230 -0.0427 -0.1107
30858ION     NA47706  11.404   2.483   5.207 -0.3507  0.2812 -0.0089
30859ION     NA47707   8.443  15.458   6.184  0.0910  0.0068 -0.0313
30860ION     NA47708  17.907   6.376   5.914  0.3228 -0.0021 -0.0839
30861ION     NA47709   6.830  11.069   1.131 -0.2584 -0.1207 -0.2412
30862ION     NA47710   5.452   2.845  10.811  0.2069  0.1133  0.1897
30863ION     NA47711   5.542  12.144   6.132 -0.0159 -0.0980 -0.1360
30864ION     NA47712   8.773  14.591   6.036  0.1713 -0.1274 -0.0609
30865ION     NA47713  11.324  14.014  11.351 -0.0002  0.2732  0.2824
30866ION     NA47714   3.362   9.960  10.553 -0.0425  0.0744 -0.0905
30867ION     NA47715   8.875  11.747  15.261 -0.3719 -0.1157 -0.1895
30868ION     NA47716   2.830  17.379  10.654 -0.2821 -0.1552  0.0423
30869ION     NA47717  12.324  10.590   5.639 -0.0557 -0.2468 -0.1458
30870ION     NA47718  12.408  16.805   2.094 -0.1064  0.2299 -0.1679
30871ION     NA47719   8.803   2.602   5.587 -0.0370 -0.1237  0.1321
30872ION     NA47720   5.214  13.504  10.834  0.0745  0.0062  0.2487
30873ION     NA47721   2.827   5.654   5.822 -0.4395 -0.0751  0.0504
30874ION     NA47722   1.338   1.541  10.617 -0.2262 -0.2748  0.0281
30875ION     NA47723  10.967   8.601  15.130 -0.1803 -0.0672  0.1455
30876ION     NA47724  15.850  14.392   0.338  0.0421 -0.0069 -0.3760
30877ION     NA47725  10.939   3.483  14.958 -0.3314 -0.0192 -0.3355
30878ION     NA47726   0.874   3.836   6.030  0.2791 -0.1058  0.2916
30879ION     NA47727   6.753   8.408  12.397  0.1265 -0.2636  0.1136
30880ION     NA47728   5.926  10.331   5.672  0.0771 -0.0601  0.0421
30881ION     NA47729   5.642   0.653   4.677 -0.0362  0.2165 -0.0838
30882ION     NA47730   2.350  16.539  10.748  0.3860 -0.0221 -0.0216
30883ION     NA47731   6.128  17.143  13.004  0.0770 -0.2122 -0.1328
30884ION     NA47732  13.919   3.828   2.454 -0.0261 -0.1747 -0.1726
30885ION     NA47733   5.241   0.994  14.519  0.0265 -0.0333 -0.2847
30886ION     NA47734  17.742  17.249  15.824  0.1399 -0.0673  0.2906
30887ION     NA47735  14.386  12.896  10.668  0.0887 -0.0254 -0.2631
30888ION     NA47736   9.507  17.445   2.961  0.1697 -0.2269 -0.3192
30889ION     NA47737   7.687   3.679   1.760  0.0624 -0.2239 -0.0551
30890ION     NA47738   1.434  12.300  14.228 -0.0414  0.2563  0.1047
30891ION     NA47739   9.123   9.579  15.372  0.1671  0.0724 -0.1414
30892ION     NA47740  11.581   2.272  14.900  0.2676  0.3689  0.3488
30893ION     NA47741   0.876  11.108  10.135 -0.2522  0.1757 -0.1522
30894ION     NA47742   9.168  10.995   3.769  0.3596  0.2510  0.1790
30895ION     NA47743  14.105   4.942   1.288  0.1401 -0.0978  0.4182
30896ION     NA47744  13.497  15.324  10.361  0.0265  0.1265 -0.0952
30897ION     NA47745  17.260  17.092   6.013  0.0184  0.0677 -0.1066
30898ION     NA47746  15.375   0.879   2.466  0.3024 -0.0354  0.1737
30899ION     NA47747   8.116  13.734  10.950  0.0738 -0.1014  0.2947
30900ION     NA47748   6.609   5.182  14.037 -0.1352  0.0825 -0.1410
30901ION     NA47749  12.936  17.673   5.796 -0.0945  0.1387  0.2555
30902ION     NA47750  11.342  14.203  14.629 -0.1137  0.2348  0.0324
30903ION     NA47751   7.256  13.997  10.727  0.0463 -0.0018  0.2890
30904ION     NA47752   3.043  12.749  15.885  0.2483  0.3391 -0.3964
30905ION     NA47753   4.932   8.114  10.258  0.1342 -0.1345 -0.1037
30906ION     NA47754   6.714  17.680   6.013 -0.1305 -0.3247  0.1377
30907ION     NA47755  16.492   6.461  10.769  0.1631 -0.0205 -0.1247
30908ION     NA47756   5.895   0.066   2.351 -0.0698  0.2554 -0.0989
30909ION     NA47757   5.441  13.005  11.562 -0.0558 -0.0365  0.0492
30910ION     NA47758  15.497  12.789   5.626  0.1848  0.3778 -0.0507
30911ION     NA47759  16.296  15.727   5.305 -0.2997 -0.2748  0.2497
30912ION     NA47760  15.682  12.285   0.357  0.2212  0.1214  0.2978
30913ION     NA47761  11.120  11.774  10.474 -0.1210 -0.4481 -0.4021
30914ION     NA47762  15.249  14.680   2.801 -0.0607 -0.2356 -0.0547
30915ION     NA47763   5.918   8.285  15.328  0.2133 -0.0976  0.1295
30916ION     NA47764  11.595  11.140  10.136 -0.1887  0.0338 -0.1585
30917ION     NA47765   9.644  17.329  10.459  0.2180  0.0760 -0.0834
30918ION     NA47766  14.956   6.712  16.157 -0.0211  0.0799  0.2685
30919ION     NA47767   8.562   2.936  13.970  0.1524  0.2127  0.2702
30920ION     NA47768   4.638  11.972  14.327  0.0690 -0.2158 -0.0457
30921ION     NA47769   3.669   6.990   5.883 -0.1326  0.3178 -0.0489
30922ION     NA47770   3.819  15.533   5.917 -0.1168 -0.0657 -0.0316
30923ION     NA47771  10.687   9.463  11.811  0.5968  0.0346  0.5325
30924ION     NA47772  13.809  18.002   3.713  0.1282  0.3722  0.1135
30925ION     NA47773  15.048  10.811   5.408 -0.3250  0.2202  0.2803
30926ION     NA47774  15.529  16.345   3.125  0.2220 -0.0297 -0.0622
30927ION     NA47775  12.330   0.164  10.507 -0.1762 -0.1155  0.0456
30928ION     NA47776   9.576   5.865   5.743  0.0900  0.2960  0.0153
30929ION     NA47777   8.674   8.834  13.425 -0.1071  0.0537 -0.1510
30930ION     NA47778   7.661  15.443   0.672  0.4503 -0.1185 -0.3372
30931ION     NA47779   7.282  11.381  10.379 -0.2882 -0.0528 -0.1425
30932ION     NA47780   0.095  11.146   5.456  0.0287  0.0784 -0.1158
30933ION     NA47781   8.771  14.307  10.878  0.1169 -0.3515 -0.0620
30934ION     NA47782  13.746   8.477  10.396  0.3729  0.1628  0.0710
30935ION     NA47783   3.618   1.470  15.752  0.0500 -0.0720  0.0014
30936ION     NA47784   4.877  11.702   4.103  0.2299  0.0953  0.1648
30937ION     NA47785  15.084   7.195   5.890 -0.1530 -0.3240  0.0480
30938ION     NA47786   7.090  10.501  15.704  0.1036 -0.3170 -0.1318
30939ION     NA47787  14.442  14.847  15.574 -0.0550  0.1752  0.0475
30940ION     NA47788   9.934   3.102  10.318  0.0406  0.0207  0.1524
30941ION     NA47789   3.507   1.749  14.012  0.3237 -0.1601  0.1410
30942ION     NA47790  17.544  11.135   1.615 -0.0571 -0.0666 -0.2161
30943ION     NA47791  18.036   7.126  10.730 -0.0112 -0.0127  0.1692
30944ION     NA47792  14.331  15.703   1.502 -0.1377  0.0765 -0.0933
30945ION     NA47793  10.247  16.129   5.739  0.0406 -0.2372 -0.0266
30946ION     NA47794   3.782   3.574   5.900  0.1255 -0.0317 -0.1301
30947ION     NA47795  15.466   8.589   5.845 -0.2073  0.0392  0.1507
30948ION     NA47796   1.633   9.244   5.828 -0.1423 -0.0933 -0.1682
30949ION     NA47797  16.833   3.996   5.649 -0.0978 -0.1999  0.1463
30950ION     NA47798   2.898  12.988   1.011  0.0721 -0.0260  0.1684
30951ION     NA47799   4.740  17.301  12.884 -0.0504 -0.1663 -0.1691
30952ION     NA47800   3.381   9.312   0.315  0.1725 -0.1689  0.0946
30953ION     NA47801  16.059  12.085   5.578 -0.0289 -0.0562  0.3388
30954ION     NA47802   9.580   2.236  10.606 -0.0563 -0.0622 -0.0099
30955ION     NA47803   6.818   7.483   0.359 -0.0266  0.0971  0.3213
30956ION     NA47804   1.232   9.000   0.336 -0.0815 -0.0107  0.0000
30957ION     NA47805   9.550  12.802  14.161  0.0772 -0.0894 -0.1861
30958ION     NA47806   4.486  15.480   4.728 -0.0959 -0.2257  0.2146
30959ION     NA47807   3.284  15.063   5.920  0.3079  0.0884 -0.0488
30960ION     NA47808  10.416  14.172   6.273 -0.2019  0.0015  0.2406
30961ION     NA47809   3.486   3.243  15.625 -0.0666  0.3215  0.0585
30962ION     NA47810   0.782   6.720   1.322 -0.1099 -0.0511 -0.0578
30963ION     NA47811  12.280   7.369   3.096  0.1224 -0.2638  0.0692
30964ION     NA47812  17.668  17.099  10.420 -0.0893 -0.1723 -0.0434
30965ION     NA47813   3.013   0.799   6.329 -0.0181 -0.0144 -0.1389
30966ION     NA47814  16.106  14.410   5.639 -0.0018  0.0645  0.0852
30967ION     NA47815   8.866   9.148   1.637  0.1566  0.0190 -0.1560
30968ION     NA47816   0.339  11.929  12.635 -0.0235 -0.0380  0.0872
30969ION     NA47817  10.125  10.411   2.428 -0.0800  0.0136 -0.1732
30970ION     NA47818   6.028  14.232   4.507 -0.0819 -0.3382 -0.2012
30971ION     NA47819  13.441  11.093  10.425  0.2099 -0.0213 -0.0228
30972ION     NA47820  13.756  13.505  10.854 -0.4232  0.3221 -0.0609
30973ION     NA47821  11.163  15.543   2.440 -0.1429 -0.0985  0.0283
30974ION     NA47822   2.730   1.055   1.719 -0.2849 -0.0522  0.1094
30975ION     NA47823  16.704   1.723  10.775 -0.4247  0.2649 -0.2050
30976ION     NA47824  16.380   3.303   4.611  0.0638  0.0052 -0.1463
30977ION     NA47825   9.974   1.646  10.481 -0.2074  0.1163 -0.2080
30978ION     NA47826  11.070   9.049  10.083  0.0060 -0.2187  0.0193
30979ION     NA47827  17.468   0.991  10.416  0.0163 -0.2739  0.1660
30980ION     NA47828   7.155  11.847   1.639  0.0330 -0.1510  0.1141
30981ION     NA47829   1.699  10.787   1.638  0.2341 -0.2477  0.1566
30982ION     NA47830   7.597   8.393   2.515  0.0820  0.4001  0.0127
30983ION     NA47831  12.845   5.884  13.329  0.1516 -0.4552  0.1464
30984ION     NA47832   6.415   6.305   1.460  0.1452  0.3251 -0.0352
30985ION     NA47833   8.032   0.538  11.118  0.0013  0.1973 -0.2489
30986ION     NA47834   5.939  12.980   6.108 -0.0781 -0.0877  0.0244
30987ION     NA47835  14.553   4.814   5.973 -0.0405  0.0059  0.0385
30988ION     NA47836  11.255  15.965  10.862 -0.1521 -0.2250 -0.1083
30989ION     NA47837   6.911   3.922  16.046  0.2490  0.0611 -0.1627
30990ION     NA47838  17.433   7.041  12.064 -0.0231 -0.0854  0.1107
30991ION     NA47839   7.915   9.003  15.499 -0.2069  0.2081  0.1225
30992ION     NA47840  15.540   1.379  13.790  0.0805 -0.0359 -0.3878
30993ION     NA47841   2.205   4.962   6.004  0.1483 -0.1355  0.1690
30994ION     NA47842  12.521  12.928   5.582 -0.1163 -0.0840 -0.0390
30995ION     NA47843   1.758   6.944  10.344 -0.0861 -0.0026  0.1131
30996ION     NA47844   0.366   4.057   6.058 -0.0600 -0.1661  0.1074
30997ION     NA47845   2.322  17.430   0.128  0.0600 -0.1038 -0.0596
30998ION     NA47846   9.657   4.898   5.994  0.3739  0.1278 -0.0236
30999ION     NA47847   5.508   6.666  10.678  0.0402  0.0793  0.2307
31000ION     NA47848   2.223   7.371  13.983 -0.1961  0.3565 -0.0058
31001ION     NA47849  14.302  12.003  15.060  0.0903 -0.3262  0.3707
31002ION     NA47850  14.960   9.576  10.751  0.0965 -0.1339  0.0660
31003ION     NA47851  15.269   9.376   1.022 -0.2732 -0.0774  0.3741
31004ION     NA47852  12.262  14.954  15.190  0.1561  0.1853  0.2374
31005ION     NA47853  12.777   1.810   5.628 -0.1640  0.0605  0.0710
31006ION     NA47854  13.905  16.679   0.393  0.0952  0.1055  0.0594
31007ION     NA47855   7.882   7.771  14.839  0.1016  0.0551 -0.0571
31008ION     NA47856   4.114   5.429  15.580 -0.1401  0.1775  0.1736
31009ION     NA47857  17.448  16.843   1.706 -0.1033 -0.1995  0.0509
31010ION     NA47858   9.610   5.438  14.321 -0.0087 -0.3008 -0.1128
31011ION     NA47859  14.658   1.704   5.454 -0.4545 -0.2530 -0.2214
31012ION     NA47860   8.886  12.656   6.164  0.0149  0.1378  0.2642
31013ION     NA47861   2.417  15.576   5.730 -0.0879  0.2308 -0.0169
31014ION     NA47862   3.282  13.310  10.397 -0.0018  0.1419 -0.1056
31015ION     NA47863   4.540   5.875   5.544  0.0033  0.0377 -0.3130
31016ION     NA47864   7.072  12.425  12.588 -0.0135 -0.1297  0.1451
31017ION     NA47865  15.150  14.798  16.069 -0.2128 -0.2121 -0.0725
31018ION     NA47866   4.053  10.510  10.568 -0.0971  0.3437 -0.1926
31019ION     NA47867   8.549   8.374  15.429  0.1629  0.1793 -0.1299
31020ION     NA47868  13.837  12.936   4.740 -0.1079 -0.0741  0.0208
31021ION     NA47869   3.760   4.605  10.470 -0.1068 -0.0119  0.0879
31022ION     NA47870  16.602   3.405   5.866  0.3259  0.3741 -0.0959
31023ION     NA47871   5.955   3.312   3.682 -0.0719  0.0308  0.1594
31024ION     NA47872   1.152  12.375   3.697 -0.1842 -0.0694  0.0827
31025ION     NA47873  13.251   4.210   1.412  0.0859 -0.1320 -0.0948
31026ION     NA47874  18.042   0.776  12.394  0.3416  0.4194 -0.2256
31027ION     NA47875  16.025   7.746   5.599 -0.0572  0.1257  0.1235
31028ION     NA47876  11.505  14.460   3.377  0.2797  0.1828 -0.0210
31029ION     NA47877  14.153  16.145  12.355  0.1550  0.2133 -0.0791
31030ION     NA47878  13.950   3.944   3.530  0.1160 -0.1720 -0.1327
31031ION     NA47879   1.364  13.286  10.476  0.0283 -0.3430 -0.1203
31032ION     NA47880   1.523  11.921  10.256 -0.1071  0.0412 -0.0790
31033ION     NA47881   6.346   1.158  15.129 -0.1239  0.3141 -0.0025
31034ION     NA47882   0.035   7.694  14.128 -0.0667 -0.0971  0.0452
31035ION     NA47883  13.312   2.295   3.202  0.0295 -0.0749  0.1755
31036ION     NA47884   0.462   5.983  10.800 -0.0869  0.2212 -0.1061
31037ION     NA47885  16.022  10.185   4.103  0.0655  0.2870  0.0122
31038ION     NA47886  15.874  10.890  10.190  0.1579 -0.0909 -0.0828
31039ION     NA47887  12.241  17.399  10.493  0.1416 -0.1680 -0.2690
31040ION     NA47888  12.715   7.614  10.291 -0.1528 -0.2215 -0.1107
31041ION     NA47889   1.560  15.973   1.744 -0.0657  0.3979 -0.0633
31042ION     NA47890  14.261   6.681   5.501 -0.1641 -0.1375 -0.0325
31043ION     NA47891   3.963  14.049  10.296 -0.2043 -0.0481 -0.0972
31044ION     NA47892  14.732   9.036   4.087 -0.0016 -0.2286 -0.1280
31045ION     NA47893   7.186  15.033   1.925 -0.1191  0.0030  0.0815
31046ION     NA47894   1.336   4.183   3.552  0.0835  0.0259  0.2275
31047ION     NA47895   2.743   6.663   5.837  0.3774  0.2741  0.1285
31048ION     NA47896   5.675   8.198  12.370  0.5462 -0.1228  0.0573
31049ION     NA47897   9.442  15.553   5.840  0.1778 -0.1196 -0.1237
31050ION     NA47898   5.624   5.033  10.719 -0.3504  0.1084 -0.1055
31051ION     NA47899   2.386  13.325  10.249  0.0241 -0.3174 -0.1015
31052ION     NA47900   2.845  12.266   5.109 -0.3301  0.4221 -0.2334
31053ION     NA47901  10.767   9.981   5.655  0.1186 -0.0442  0.0764
31054ION     NA47902   2.173  14.677  10.540 -0.1685  0.1163 -0.2137
31055ION     NA47903   7.331   7.080  10.491 -0.0915  0.0677  0.1129
31056ION     NA47904  11.859   1.515   3.716 -0.0929  0.0514  0.1793
31057ION     NA47905   8.518  11.949  16.212 -0.0608 -0.0032 -0.0057
31058ION     NA47906  13.723   7.643  10.407 -0.0811 -0.0408 -0.2480
31059ION     NA47907   6.671   9.811  14.036 -0.1463 -0.2157 -0.0557
31060ION     NA47908   6.902  14.046   2.043  0.2619  0.0754 -0.2078
31061ION     NA47909   9.636  14.063  10.967 -0.0022  0.1652  0.1494
31062ION     NA47910   0.470   5.064  13.706  0.2628  0.1388 -0.2283
31063ION     NA47911  14.501   8.027  10.208 -0.0846 -0.1231  0.1139
31064ION     NA47912   7.994  17.933   5.003 -0.0819 -0.0508 -0.2085
31065ION     NA47913   9.728   9.967  10.081  0.1668 -0.3980 -0.2458
31066ION     NA47914   0.472  16.411   5.193  0.1494 -0.1868  0.0093
31067ION     NA47915   3.502   4.486   0.080 -0.0069  0.2558  0.1272
31068ION     NA47916  17.424   3.939   6.099 -0.3689  0.0353  0.0726
31069ION     NA47917  11.929   8.517   5.649  0.0682 -0.0633 -0.2892
31070ION     NA47918   8.887   6.161  10.736 -0.0061  0.0342 -0.4346
31071ION     NA47919   1.109   0.694   2.363 -0.2346  0.1443  0.0351
31072ION     NA47920   3.653   6.955   3.178 -0.2039  0.2509  0.3633
31073ION     NA47921   8.037   9.369   5.997 -0.0227  0.1348 -0.4547
31074ION     NA47922   3.379   4.287  12.034  0.0751 -0.0298  0.3927
31075ION     NA47923   4.193   3.562  11.318  0.1899  0.0399 -0.2392
31076ION     NA47924   0.207  12.847  10.158 -0.1894  0.1449  0.1820
31077ION     NA47925   8.140   5.446   5.351 -0.0446 -0.0223 -0.1532
31078ION     NA47926   0.008   1.746  15.095 -0.0541  0.3212  0.0152
31079ION     NA47927   9.458   1.579   1.376  0.1197  0.0574  0.2601
31080ION     NA47928  12.783   7.324   0.551 -0.6232  0.2078  0.3768
31081ION     NA47929  17.225   8.031   5.660 -0.0068  0.2690  0.0142
31082ION     NA47930   4.332  12.696   1.661  0.0141 -0.0664  0.0160
31083ION     NA47931  10.915  12.061   0.837  0.1563 -0.0146 -0.2087
31084ION     NA47932   0.727   1.245   0.995  0.0662  0.0588  0.1035
31085ION     NA47933  15.657   1.697  15.112  0.1798  0.2662 -0.2345
31086ION     NA47934   6.757  17.912   3.546  0.3784  0.1800  0.1972
31087ION     NA47935  15.140  10.684  11.979  0.2272  0.0964  0.1054
31088ION     NA47936  14.829  11.256  10.435  0.0759 -0.3491  0.0044
31089ION     NA47937   5.064  10.209   0.708 -0.2240  0.2042 -0.0883
31090ION     NA47938  13.413   5.358   0.631  0.0070 -0.0270 -0.0515
31091ION     NA47939  16.889   0.968   5.617 -0.0236 -0.0117 -0.0442
31092ION     NA47940  10.392   0.843  10.565  0.3318  0.3050 -0.2253
31093ION     NA47941   9.826  12.947  12.419 -0.2475 -0.0300  0.0428
31094ION     NA47942  11.080   3.829  13.807  0.1373 -0.0263  0.0518
31095ION     NA47943  10.808  12.307   5.658 -0.1822 -0.0273 -0.1458
31096ION     NA47944  12.935  14.451   0.160 -0.1083 -0.3655  0.1245
31097ION     NA47945  16.275   2.404   4.162  0.1871 -0.0533 -0.1225
31098ION     NA47946   6.006   9.745   5.761  0.0726 -0.3992  0.0322
31099ION     NA47947   1.252   2.389  10.844  0.1458  0.0561  0.1765
31100ION     NA47948   7.102  14.823  10.783  0.3615 -0.1548  0.2184
31101ION     NA47949  14.128  16.777   5.785  0.1700  0.1120  0.0028
31102ION     NA47950  11.297   4.169   5.975  0.2468 -0.1570  0.2424
31103ION     NA47951  14.857   8.836   1.611 -0.0804  0.1289  0.1479
31104ION     NA47952  11.584  15.157   5.995 -0.0261  0.1332  0.5723
31105ION     NA47953  14.109   1.162  10.288 -0.1285 -0.1569 -0.1574
31106ION     NA47954  13.513  11.872   3.273 -0.3274 -0.1610 -0.0302
31107ION     NA47955  15.977   2.049   5.707 -0.4133 -0.4036  0.3367
31108ION     NA47956  11.011   0.344   5.960  0.0793  0.2570  0.1146
31109ION     NA47957  15.345  15.231  13.920 -0.0498  0.0625  0.2487
31110ION     NA47958  15.800   5.873  10.513  0.0259  0.0921  0.4279
31111ION     NA47959   0.257   4.703  10.774 -0.1994 -0.0719 -0.0084
31112ION     NA47960  17.967   7.526   5.782  0.3271 -0.0033  0.2309
31113ION     NA47961  10.620   0.294  14.706 -0.1385 -0.2699  0.3150
31114ION     NA47962   4.124   8.560  15.499 -0.2673  0.0723  0.1876
31115ION     NA47963   4.901  12.707  12.948 -0.1351  0.0510 -0.0648
31116ION     NA47964  10.456  14.692  10.937 -0.4753 -0.0957  0.1555
31117ION     NA47965   2.632  12.630  10.593 -0.1334 -0.1585 -0.1551
31118ION     NA47966  11.652   8.261  12.981 -0.3218  0.1297 -0.0338
31119ION     NA47967   9.978  12.584   5.220  0.2238 -0.1143 -0.1269
31120ION     NA47968  11.658   4.662  10.539  0.1048  0.1556 -0.0967
31121ION     NA47969   3.858   5.603   3.037 -0.0766 -0.2764 -0.3113
31122ION     NA47970   2.916  14.075  11.925 -0.2079  0.0265 -0.2649
31123ION     NA47971   3.002   8.284   5.947  0.3579 -0.0649 -0.0221
31124ION     NA47972   1.539  16.296  14.042 -0.2804  0.4107  0.0096
31125ION     NA47973   9.251  12.253  11.997  0.0517 -0.0507  0.0734
31126ION     NA47974   8.308  12.433  12.004  0.0340 -0.3212 -0.1324
31127ION     NA47975  15.807  11.276   5.555  0.0587 -0.1111 -0.0442
31128ION     NA47976   8.021   7.823  10.558  0.2492  0.1541  0.1539
31129ION     NA47977   2.945   6.549   0.941  0.1052 -0.0651  0.0736
31130ION     NA47978   4.398  16.868   2.883 -0.3989  0.0049  0.2671
31131ION     NA47979   4.262  18.004   6.046  0.1613  0.0732  0.1335
31132ION     NA47980  10.919  17.110  10.530 -0.0276 -0.2328  0.4175
31133ION     NA47981   1.062   1.565   6.006  0.3629  0.1825  0.2048
31134ION     NA47982  14.485  10.731  13.721 -0.2025  0.1892  0.1262
31135ION     NA47983  16.679  12.351  12.071  0.2347 -0.1491 -0.0434
31136ION     NA47984  10.931   4.893  12.754 -0.1213 -0.1011  0.3141
31137ION     NA47985   8.078  15.072  10.769 -0.1922  0.2491  0.1122
31138ION     NA47986  17.229  17.594   1.476  0.2045  0.1009 -0.1143
31139ION     NA47987  10.693  17.735  12.943 -0.1419  0.0447 -0.0850
31140ION     NA47988   8.291  17.694   6.326 -0.2522  0.3164  0.0980
31141ION     NA47989  16.884  16.447  10.525  0.0208 -0.0092 -0.3422
31142ION     NA47990  14.705  12.127   5.533  0.2330 -0.3400  0.1894
31143ION     NA47991   6.874   1.941   6.267  0.0648  0.1060  0.0886
31144ION     NA47992   4.848  17.999   0.229 -0.0396 -0.0120 -0.0850
31145ION     NA47993   0.058  11.394  10.149 -0.1410  0.0403  0.1794
31146ION     NA47994   8.257  11.858   6.173 -0.0777  0.1885 -0.1337
31147ION     NA47995  12.667   8.837   5.751 -0.4399 -0.0215  0.2996
31148ION     NA47996  13.586   1.848  13.380 -0.1799 -0.1430 -0.2123
31149ION     NA47997   8.950  14.628  11.284 -0.1723 -0.1971 -0.2944
31150ION     NA47998  12.718   7.986   5.492 -0.0148  0.3010 -0.0320
31151ION     NA47999  11.030   4.177   5.505 -0.0777 -0.1912 -0.0660
31152ION     NA48000   8.332   5.556  10.699 -0.0083 -0.1276 -0.0852
31153ION     NA48001   0.744  14.821  10.376  0.1444 -0.0913  0.0307
31154ION     NA48002  13.008   2.911  15.857  0.0139 -0.0718 -0.2657
31155ION     NA48003   9.682   8.194   5.439  0.1751  0.1512  0.0876
31156ION     NA48004   0.171  12.815  11.127 -0.1789 -0.2638 -0.0459
31157ION     NA48005   2.955   1.649   5.391  0.1343  0.2643 -0.2406
31158ION     NA48006   1.709   5.026   0.637 -0.2119 -0.0934 -0.0550
31159ION     NA48007   9.042   2.110  13.005  0.0433  0.0598  0.1642
31160ION     NA48008  10.157   2.836  15.052  0.3478  0.2103  0.3733
31161ION     NA48009   3.409  12.614   2.833 -0.0444  0.2448 -0.0703
31162ION     NA48010   8.129   6.804  10.517  0.0088 -0.3525  0.1391
31163ION     NA48011  14.638  12.499   0.503 -0.4511 -0.0455 -0.3395
31164ION     NA48012   2.216   2.855   5.743 -0.0687  0.1852  0.0578
31165ION     NA48013  10.744   7.618  10.312 -0.1170  0.0837 -0.2169
31166ION     NA48014  11.306   7.207  10.098  0.0140  0.1996 -0.2466
31167ION     NA48015  17.703   0.907   3.406  0.0750 -0.2001  0.2598
31168ION     NA48016  14.897   3.271   2.812  0.0172 -0.0327  0.3295
31169ION     NA48017  11.594  16.323   5.740  0.1251 -0.0116 -0.0677
31170ION     NA48018   1.314  13.411   4.674  0.0597 -0.0659  0.2284
31171ION     NA48019   9.416   2.795   0.206 -0.2424 -0.1323 -0.1997
31172ION     NA48020  14.751   8.916  10.101 -0.0311  0.3226 -0.1122
31173ION     NA48021  11.187  10.768  13.588  0.3797 -0.0969  0.1661
31174ION     NA48022   4.611  17.383  15.311  0.2694 -0.2803 -0.1486
31175ION     NA48023  13.030   4.897  11.473 -0.0090  0.0282 -0.2704
31176ION     NA48024   8.095   0.941  10.843  0.0605  0.1106  0.0694
31177ION     NA48025  16.979   5.617  10.727 -0.0003  0.1509 -0.3061
31178ION     NA48026  10.267   3.081  15.890 -0.2198  0.1025 -0.0689
31179ION     NA48027  16.513  11.736   3.094  0.3024  0.1920 -0.0559
31180ION     NA48028  17.475  15.008  10.607 -0.1632  0.0804 -0.2784
31181ION     NA48029   5.160   1.376  10.705  0.0619 -0.2055  0.1030
31182ION     NA48030   9.775   9.994   5.804 -0.2197 -0.1742 -0.1711
31183ION     NA48031  16.445  10.373   0.446  0.0392  0.2713 -0.3113
31184ION     NA48032  12.366   9.547  10.227 -0.1332  0.2586 -0.0058
31185ION     NA48033   0.357  15.810   4.724  0.0957 -0.4533  0.3046
31186ION     NA48034  10.382   6.871  10.080  0.0725  0.0583  0.0546
31187ION     NA48035   7.361   4.508  10.817 -0.2133  0.0622  0.0704
31188ION     NA48036  10.530  15.566  11.253  0.2030  0.0626  0.1109
31189ION     NA48037  14.890   2.943  10.369  0.0345  0.0096 -0.1802
31190ION     NA48038   5.417  11.151   5.950 -0.0190 -0.0713 -0.0744
31191ION     NA48039   1.146   3.342  13.112  0.0188  0.2781 -0.0709
31192ION     NA48040  13.524   7.032  15.641  0.1719  0.0856 -0.2004
31193ION     NA48041   5.388   3.291   6.062  0.0697 -0.3364 -0.0837
31194ION     NA48042   4.089   1.921   2.866  0.0807  0.0005 -0.0014
31195ION     NA48043  16.273  10.774   2.696  0.1961 -0.1349 -0.3333
31196ION     NA48044  11.789  11.220   5.710 -0.0952 -0.2632 -0.0065
31197ION     NA48045   0.898  16.857  11.625  0.0134  0.0721 -0.0519
31198ION     NA48046   4.693   9.144  12.936 -0.1053 -0.0255 -0.3296
31199ION     NA48047   9.121  10.416   5.927 -0.0384 -0.1554  0.1420
31200ION     NA48048   1.302  11.692   5.890 -0.0476 -0.4484 -0.1285
31201ION     NA48049   5.284  10.678  14.216  0.2832 -0.1949 -0.2827
31202ION     NA48050  10.006   6.326  16.258  0.2262  0.0223  0.1918
31203ION     NA48051  16.880  13.859  16.007 -0.1622  0.0848  0.1156
31204ION     NA48052  15.852  12.142  10.252 -0.2567 -0.1669  0.1855
31205ION     NA48053  10.772   1.272   5.932 -0.4872  0.0625 -0.0345
31206ION     NA48054  13.278  14.147  13.063 -0.3321  0.1187  0.0469
31207ION     NA48055  16.044  17.391   5.434 -0.0357  0.1176 -0.2735
31208ION     NA48056   8.692  11.519   2.201 -0.1111  0.1821 -0.2246
31209ION     NA48057   9.490  11.788   5.660 -0.2859  0.2798  0.0900
31210ION     NA48058  16.203  13.269  12.084 -0.0989  0.0693  0.0318
31211ION     NA48059  17.421   0.021  10.558 -0.3093 -0.0212 -0.2231
31212ION     NA48060  11.855  17.959  16.059 -0.1393  0.0597 -0.2941
31213ION     NA48061   1.117  17.813  10.685 -0.1632  0.0480  0.0902
31214ION     NA48062  12.068  17.560   2.089 -0.0056 -0.1448 -0.0044
31215ION     NA48063  10.228  13.179  10.944  0.1368  0.2293 -0.0872
31216ION     NA48064  10.119   2.341   1.308  0.3054 -0.5268  0.2974
31217ION     NA48065   9.321  16.254  10.809  0.1151 -0.2973 -0.1915
31218ION     NA48066   8.064   6.078   1.978 -0.0084 -0.1844  0.0215
31219ION     NA48067  11.737   4.325  13.131 -0.0490 -0.1675 -0.1204
31220ION     NA48068  13.345   4.152  13.477 -0.2567 -0.0305 -0.0737
31221ION     NA48069  16.728   1.027   3.682 -0.0984  0.1712 -0.1546
31222ION     NA48070  13.501   1.848  14.954 -0.3930  0.1172  0.1240
31223ION     NA48071  10.514   1.972   5.788  0.3265 -0.1108  0.1557
31224ION     NA48072  13.183   3.384  10.791 -0.1905 -0.0550  0.0659
31225ION     NA48073  10.823  10.869  10.296 -0.2704  0.1307  0.1528
31226ION     NA48074  16.001  12.033  15.572 -0.0152  0.0529 -0.1934
31227ION     NA48075   6.626  17.313   4.301 -0.1086 -0.2601  0.2282
31228ION     NA48076  12.870   6.190   0.826  0.1089 -0.1130  0.0762
31229ION     NA48077  14.567  16.377  13.882  0.2268  0.2809 -0.1194
31230ION     NA48078  15.632  15.933  11.441 -0.0981 -0.3027  0.1564
31231ION     NA48079   6.408  16.798   6.207 -0.2106  0.0551  0.1099
31232ION     NA48080   4.185   8.386   5.753 -0.4341 -0.3222 -0.1194
31233ION     NA48081  16.087   3.092  12.840  0.0261 -0.1797 -0.0611
31234ION     NA48082  12.042   0.670  11.247  0.0689  0.1512  0.0655
31235ION     NA48083  17.665   3.983  10.695 -0.1506  0.0496  0.1308
31236ION     NA48084  11.731  13.518   5.422  0.0626 -0.0287  0.1012
31237ION     NA48085  10.228   7.668  12.097 -0.2605 -0.2123  0.2997
31238ION     NA48086  14.892   1.137  10.510  0.0222  0.0713  0.0567
31239ION     NA48087   0.143  14.752   1.397  0.0536  0.2366  0.2774
31240ION     NA48088  12.804   8.407   1.232 -0.0616 -0.3586 -0.2200
31241ION     NA48089  14.835   7.379  12.845 -0.0244  0.1785 -0.0525
31242ION     NA48090  10.703   0.798  15.501  0.0962 -0.1754  0.2548
31243ION     NA48091   3.808  13.378   1.623  0.1149 -0.2357 -0.1877
31244ION     NA48092   7.771  13.342  13.939 -0.1062  0.1583 -0.0155
31245ION     NA48093   5.861   9.863  10.589  0.0765 -0.2797 -0.0290
31246ION     NA48094   8.151   2.959   3.579 -0.1502 -0.0596 -0.1940
31247ION     NA48095  10.567   2.225  10.446 -0.2539 -0.1173 -0.2489
31248ION     NA48096   8.584   5.341  16.111  0.0092 -0.0108 -0.0374
31249ION     NA48097  10.070   0.812   1.510  0.1276 -0.1183  0.2303
31250ION     NA48098   5.685   9.189   2.615  0.1238 -0.2563 -0.2110
31251ION     NA48099  14.593  13.631   1.822 -0.1008 -0.0737 -0.0878
31252ION     NA48100   4.976  17.430   6.075  0.1125  0.0724 -0.2202
31253ION     NA48101   2.142   3.233   2.003 -0.0811  0.1425 -0.0492
31254ION     NA48102   3.235   6.818  10.509 -0.1471 -0.2716  0.0285
31255ION     NA48103   3.112   2.871   5.952 -0.1830 -0.2231  0.0772
31256ION     NA48104  15.455   9.425   9.895 -0.2102  0.0896  0.0547
31257ION     NA48105   6.457  15.832  10.659 -0.0525 -0.4206  0.0682
31258ION     NA48106  16.193   3.897  10.944  0.1035 -0.0619  0.0340
31259ION     NA48107  14.281  17.965   5.727  0.0957  0.0501 -0.0513
31260ION     NA48108  12.110   7.945   1.921 -0.1921 -0.1094  0.0214
31261ION     NA48109  10.399   4.480   6.054  0.1787  0.1293  0.1961
31262ION     NA48110   6.620   0.280   6.319  0.5369  0.1933 -0.1064
31263ION     NA48111   8.446   8.520  10.557 -0.1134  0.2316 -0.1276
31264ION     NA48112   0.969   7.139   5.940  0.0377 -0.0638 -0.2299
31265ION     NA48113   6.448   5.345   4.570 -0.0708 -0.1460 -0.1472
31266ION     NA48114   6.628  10.051   3.220 -0.1855  0.0153 -0.1486
31267ION     NA48115   1.417  17.583   2.807  0.3618  0.1094  0.0707
31268ION     NA48116  13.654  14.454  15.332  0.1282 -0.0759  0.1387
31269ION     NA48117   1.834  10.692   2.582 -0.0513  0.2989  0.2219
31270ION     NA48118  11.986   5.352  13.296  0.0515 -0.0280  0.4098
31271ION     NA48119  12.095   1.623  10.789  0.0465 -0.1160 -0.0561
31272ION     NA48120   8.349  17.667   0.285 -0.2362 -0.2807  0.1085
31273ION     NA48121  12.792  12.295   5.676  0.0871 -0.1761 -0.1151
31274ION     NA48122   0.331  15.375  15.797 -0.0643 -0.1404  0.0133
31275ION     NA48123  14.760   9.489  14.097 -0.0781 -0.1798 -0.1200
31276ION     NA48124  10.384   7.782   5.407 -0.0128  0.0955 -0.0315
31277ION     NA48125   2.504  10.152  15.913  0.3427 -0.1023  0.2098
31278ION     NA48126   0.907  10.219  14.864  0.1489 -0.1597  0.2745
31279ION     NA48127   8.503   3.848   2.177 -0.3062 -0.0383 -0.0040
31280ION     NA48128  13.960   6.119  15.599 -0.0231 -0.1965  0.0193
31281ION     NA48129  17.795  13.736  10.331 -0.0274 -0.0244  0.3142
31282ION     NA48130   0.560  12.091   5.643  0.0877 -0.3956  0.2977
31283ION     NA48131  13.167   2.490  10.561 -0.0603  0.0609 -0.0931
31284ION     NA48132  10.469  12.721   4.420 -0.2012  0.0150  0.0565
31285ION     NA48133   6.476  12.494   1.757  0.0504 -0.0918 -0.1289
31286ION     NA48134  16.456  12.899   5.602  0.0350 -0.1223 -0.0180
31287ION     NA48135  15.950   5.012   2.774 -0.2229  0.1320  0.0608
31288ION     NA48136   0.104  10.405   1.643 -0.3576 -0.1221  0.0863
31289ION     NA48137   6.106   5.338   5.812 -0.1901 -0.0204  0.2399
31290ION     NA48138  12.546   9.246   3.152  0.1149 -0.1839  0.1840
31291ION     NA48139  17.985   9.941  11.235 -0.2637  0.1439 -0.0212
31292ION     NA48140  15.316   3.571  10.501 -0.3176 -0.0659 -0.0686
31293ION     NA48141  12.111   2.840   1.254 -0.1419  0.1051 -0.3130
31294ION     NA48142  11.948   1.745  16.106 -0.1893 -0.0871  0.0172
31295ION     NA48143  12.137   5.764   5.719  0.1100 -0.0616 -0.3240
31296ION     NA48144   1.359  11.060  13.633  0.3057  0.0618 -0.1406
31297ION     NA48145   0.347   4.595  15.786  0.0214  0.0429 -0.2020
31298ION     NA48146  14.549  10.129   5.080 -0.0406 -0.0648  0.0279
31299ION     NA48147   5.640  14.627   1.177  0.0220 -0.2098  0.0754
31300ION     NA48148   7.691   9.218  10.477 -0.0301 -0.2480  0.1565
31301ION     NA48149  10.741  15.394   6.188 -0.0043  0.0108  0.1727
31302ION     NA48150   1.734   8.533   1.967  0.2872  0.0841  0.0660
31303ION     NA48151   5.383  11.112  12.050  0.1639 -0.1075 -0.1634
31304ION     NA48152  12.816   8.586  10.231 -0.1414 -0.2628 -0.1715
31305ION     NA48153   7.416   6.550   5.108 -0.0814  0.1117  0.3981
31306ION     NA48154   8.522  16.456   5.859 -0.0853  0.0615  0.3274
31307ION     NA48155  11.695  13.782   5.877 -0.0328 -0.2120  0.2210
31308ION     NA48156  13.881  14.703   5.895 -0.0998  0.1934 -0.1316
31309ION     NA48157  12.596   6.671  10.295  0.2337 -0.0732 -0.0957
31310ION     NA48158   8.756  16.944  10.776  0.1010 -0.1474 -0.0836
31311ION     NA48159   4.418   9.748   4.420 -0.3818  0.0055 -0.0139
31312ION     NA48160  15.140  13.639   0.304  0.1423  0.1693 -0.0855
31313ION     NA48161   7.313   3.626  10.340 -0.0565  0.0187 -0.4527
31314ION     NA48162  16.728  15.531   1.379  0.1786  0.0197 -0.1963
31315ION     NA48163  12.346   1.098  13.229  0.3563 -0.2834  0.0302
31316ION     NA48164   7.832   4.484   4.436 -0.1526 -0.0203 -0.3483
31317ION     NA48165   0.119   9.526   5.375 -0.0409 -0.2820  0.2741
31318ION     NA48166   9.975  14.039  13.953  0.0263  0.0744 -0.1386
31319ION     NA48167  16.005   0.300  10.480  0.0046 -0.0372  0.1576
31320ION     NA48168  15.120  17.836   5.866 -0.2221  0.0570 -0.0866
31321ION     NA48169  11.979   0.505   1.604 -0.1885  0.1912 -0.2193
31322ION     NA48170   6.439   5.723  11.601  0.1517  0.1856 -0.1097
31323ION     NA48171   2.542   1.448  10.736 -0.1833  0.0549 -0.0405
31324ION     NA48172  12.478   3.587  10.774 -0.1024  0.1136  0.1737
31325ION     NA48173  10.409  11.012  14.317  0.0525 -0.1532  0.1390
31326ION     NA48174  12.545  13.934  10.570 -0.0964  0.0988  0.0465
31327ION     NA48175  14.835  16.037   5.664  0.0435 -0.0883 -0.0764
31328ION     NA48176   7.710  16.066   6.369  0.0794  0.0184  0.1019
31329ION     NA48177   5.861  12.233  11.131  0.0213 -0.2852  0.0668
31330ION     NA48178   5.774   0.076   6.080  0.0199 -0.2866 -0.0425
31331ION     NA48179  16.496  17.115   2.071 -0.0649 -0.0220  0.1986
31332ION     NA48180   4.066   5.827  12.544  0.0585  0.0324 -0.0912
31333ION     NA48181  13.581  12.620  10.642 -0.0106  0.0435  0.2060
31334ION     NA48182   4.398   1.892  10.556 -0.1367  0.1110 -0.0630
31335ION     NA48183   4.889  11.244  16.113  0.0393 -0.3618  0.2610
31336ION     NA48184  13.500   7.306   5.476  0.0809  0.1234  0.1420
31337ION     NA48185   9.117   5.410  10.249  0.2612 -0.2688 -0.2948
31338ION     NA48186  11.535  12.324  15.317 -0.1997  0.1853 -0.2442
31339ION     NA48187  13.320  13.358   5.725 -0.0349  0.0978 -0.1508
31340ION     NA48188   2.455  16.498   2.859 -0.2143  0.1961 -0.0126
31341ION     NA48189   1.676   1.006   5.878 -0.0312  0.0693  0.2417
31342ION     NA48190   5.991   4.938  15.617  0.1868  0.3680 -0.1794
31343ION     NA48191   6.209  13.818   6.088  0.2127 -0.0120 -0.0682
31344ION     NA48192   3.641   2.930  10.793 -0.3302 -0.3800 -0.2797
31345ION     NA48193   1.041   9.783   5.552 -0.0232  0.0748 -0.0241
31346ION     NA48194  11.119  10.651   2.496 -0.0862  0.0635  0.1205
31347ION     NA48195  15.071  16.219  10.548 -0.4065 -0.1031  0.2954
31348ION     NA48196  13.636  12.310  15.978  0.1795  0.0285 -0.0012
31349ION     NA48197   1.214  15.019  10.579 -0.2317 -0.1330 -0.0488
31350ION     NA48198   9.370   7.920   5.186  0.0520 -0.0871  0.1300
31351ION     NA48199   1.478   5.742  15.107 -0.0258  0.0351 -0.2279
31352ION     NA48200   2.224  14.642   0.852 -0.0655  0.1383 -0.1876
31353ION     NA48201  10.386  17.101   5.714  0.0067  0.1331  0.2223
31354ION     NA48202  16.712   3.560  10.367 -0.0727  0.1585  0.1786
31355ION     NA48203  10.721   6.315  15.830 -0.0927  0.0984 -0.1791
31356ION     NA48204   7.640   8.583   5.584 -0.1361  0.2411 -0.2382
31357ION     NA48205   0.006  14.732   5.757  0.0734 -0.2430  0.0551
31358ION     NA48206  15.114  17.356   2.617  0.0683 -0.0992  0.0115
31359ION     NA48207   3.706  15.678  13.553 -0.0826  0.3618  0.0913
31360ION     NA48208  15.668   1.876  12.645 -0.2274  0.1518  0.1020
31361ION     NA48209   6.180   1.549  10.716  0.2620  0.1161  0.0878
31362ION     NA48210   6.723   0.105   5.229 -0.2199  0.0060  0.0609
31363ION     NA48211  12.917   1.396   0.547  0.1582 -0.4385 -0.3778
31364ION     NA48212   7.332   9.594   5.922 -0.1052 -0.2281 -0.0280
31365ION     NA48213   4.308  16.029  10.893  0.2697  0.1780  0.0677
31366ION     NA48214  17.908   5.152   4.353  0.0104  0.4963  0.1572
31367ION     NA48215   3.305  10.998  10.052 -0.0848  0.2624 -0.2470
31368ION     NA48216  11.665  17.974  12.777  0.0167  0.1585 -0.2059
31369ION     NA48217  10.216  11.683   0.308  0.0950 -0.0520 -0.0961
31370ION     NA48218  10.950   1.160  11.546 -0.3552  0.2198 -0.2317
31371ION     NA48219  13.144   1.698  10.520  0.0482  0.2228  0.1550
31372ION     NA48220  17.338   1.736   5.943 -0.0718  0.1058  0.1535
31373ION     NA48221   2.252   3.602  10.830 -0.0748  0.1498  0.1428
31374ION     NA48222   5.085   6.905   2.500 -0.1482  0.2741  0.2415
31375ION     NA48223  12.033   5.024  15.826 -0.0275 -0.1812  0.1711
31376ION     NA48224   2.887   9.605   3.151 -0.0899 -0.0896  0.0918
31377ION     NA48225   8.523   1.128  14.672  0.2197  0.1177 -0.2558
31378ION     NA48226   6.747   2.646   0.359 -0.1517 -0.1675 -0.1991
31379ION     NA48227   4.814  14.306  10.791  0.0506  0.0242  0.1125
31380ION     NA48228  10.570   6.321   5.482 -0.1883 -0.0043 -0.2166
31381ION     NA48229   1.252   2.884   6.060  0.2868 -0.2036  0.0088
31382ION     NA48230   4.597  10.459   6.112  0.2258 -0.2044 -0.0779
31383ION     NA48231   0.139  13.128  14.753 -0.0591 -0.3128  0.0579
31384ION     NA48232   8.198  10.955   0.226  0.1363  0.0309  0.1031
31385ION     NA48233  13.408   8.076   0.667  0.1875 -0.3251  0.0210
31386ION     NA48234  17.433   1.169   2.975 -0.3009  0.1006 -0.0152
31387ION     NA48235  12.099   7.442   4.094 -0.1732 -0.0843  0.1257
31388ION     NA48236   1.586   8.461  16.175  0.0968 -0.2045  0.0036
31389ION     NA48237   5.514   4.094   5.918 -0.0237 -0.0205 -0.1719
31390ION     NA48238  16.024   3.450  11.151  0.2558 -0.1281 -0.0022
31391ION     NA48239   1.744   6.581   5.865  0.0742  0.0714  0.1235
31392ION     NA48240   9.291  17.115  14.858  0.0253 -0.1280  0.2303
31393ION     NA48241   3.106  16.767  12.022 -0.1060  0.0470  0.1743
31394ION     NA48242   2.022  10.512   0.826  0.1993 -0.1279 -0.4186
31395ION     NA48243  13.279  10.963  15.772  0.1159 -0.4413  0.1040
31396ION     NA48244  17.960   5.787   2.526  0.1508 -0.0284  0.1510
31397ION     NA48245  14.930  13.196  13.506 -0.0300  0.2083 -0.0826
31398ION     NA48246  11.884  12.226   5.776  0.0110  0.0900 -0.1022
31399ION     NA48247   3.224   4.098  15.529 -0.1473  0.2027 -0.0585
31400ION     NA48248   0.564   5.754   5.762 -0.0804  0.0509 -0.0992
31401ION     NA48249   4.665  16.560   5.764 -0.2162 -0.0002  0.1951
31402ION     NA48250   7.994   4.351  10.212  0.0042 -0.0038 -0.0515
31403ION     NA48251   1.426   5.456  10.554 -0.1253  0.0689 -0.1121
31404ION     NA48252  11.450  16.672   3.466 -0.1176 -0.2513  0.1444
31405ION     NA48253   4.066  12.206  10.503 -0.0422  0.2990  0.1344
31406ION     NA48254  14.186   9.351  12.304  0.1839  0.0873 -0.1891
31407ION     NA48255  15.609  15.668  14.780  0.2421 -0.1316  0.3038
31408ION     NA48256  11.793  16.589  10.669  0.0670  0.1404 -0.0024
31409ION     NA48257  14.483   7.154   1.734  0.1448  0.2788  0.0143
31410ION     NA48258  11.366   4.539  15.076  0.2887 -0.0817 -0.3037
31411ION     NA48259   4.666   3.565   6.144  0.0683  0.1734  0.0820
31412ION     NA48260  13.850   0.625   5.669 -0.0158  0.0362  0.0111
31413ION     NA48261   3.917  12.804   5.459  0.3183 -0.0296 -0.0995
31414ION     NA48262  11.933   1.071  11.979  0.4066  0.1807  0.2176
31415ION     NA48263   5.194   9.298  16.172  0.0786 -0.0027 -0.0345
31416ION     NA48264  12.470   2.695   5.517 -0.0650  0.4217 -0.1465
31417ION     NA48265   8.981   7.774  10.542  0.0857 -0.0946  0.1714
31418ION     NA48266   3.291  15.549  10.697 -0.0073 -0.0630  0.1466
31419ION     NA48267   5.994  10.992  10.430  0.0542  0.3235  0.0989
31420ION     NA48268   1.775   6.351  12.803  0.1117 -0.1550  0.2106
31421ION     NA48269   9.026  17.241   6.067  0.1675 -0.2873  0.1866
31422ION     NA48270   4.800   0.087  14.033 -0.1277 -0.0088  0.0127
31423ION     NA48271  17.511  10.431   5.273 -0.4548 -0.0588 -0.0352
31424ION     NA48272  10.461  13.835  10.844 -0.1995 -0.0788 -0.1248
31425ION     NA48273   7.214  12.895  14.510 -0.0246 -0.1253  0.2234
31426ION     NA48274   3.699  11.854  10.372  0.0926  0.3260  0.0409
31427ION     NA48275  13.153  17.598  10.516  0.1194 -0.2234  0.2636
31428ION     NA48276   8.193   4.968   3.485  0.2195 -0.1797 -0.1511
31429ION     NA48277   1.785   0.247   6.155  0.1047  0.0957  0.0298
31430ION     NA48278   4.895  12.551  10.569 -0.2317 -0.0791  0.2270
31431ION     NA48279  10.857  10.057   4.168  0.2160 -0.2035  0.1855
31432ION     NA48280   1.640   4.405  10.763 -0.0797 -0.3013 -0.0953
31433ION     NA48281  14.669   4.429  15.530  0.0529 -0.1093 -0.4578
31434ION     NA48282  15.710   8.372   3.817 -0.0907  0.0761 -0.0936
31435ION     NA48283   8.039   7.029   0.906  0.1265  0.1134 -0.1420
31436ION     NA48284   8.264  10.507  10.201  0.3260  0.0262 -0.1128
31437ION     NA48285   2.014  10.001   5.386 -0.0212  0.2468 -0.0678
31438ION     NA48286  16.333   0.518  14.924 -0.0315 -0.0293  0.2983
31439ION     NA48287  14.783   3.464   5.638  0.0998 -0.1800  0.0232
31440ION     NA48288  15.571   8.065  10.566 -0.2847  0.2414  0.0785
31441ION     NA48289   8.093  11.777   3.682 -0.0868 -0.1260 -0.0859
31442ION     NA48290   3.709   9.564   6.108 -0.0101  0.1300 -0.3409
31443ION     NA48291   5.853  17.044   5.943 -0.0363  0.2801 -0.0415
31444ION     NA48292  10.626   5.121   2.704  0.0570  0.3837 -0.4026
31445ION     NA48293   1.731  10.568  10.037  0.1922 -0.1726  0.0384
31446ION     NA48294  16.702  10.031   5.470  0.1374  0.2612 -0.0273
31447ION     NA48295  14.020  13.752   5.607  0.1950  0.1940 -0.1544
31448ION     NA48296   1.266  16.420   5.824  0.0010 -0.1584 -0.0649
31449ION     NA48297  11.368  16.329  10.491  0.2009  0.1234 -0.1581
31450ION     NA48298   8.351   8.905  14.733 -0.0038 -0.0915  0.0822
31451ION     NA48299   6.080   4.477   5.591 -0.0630  0.0226  0.0591
31452ION     NA48300  10.792  12.544  10.544 -0.0710  0.0768 -0.2869
31453ION     NA48301   3.356   2.527   1.349 -0.2903  0.2077  0.0446
31454ION     NA48302  14.254  15.376  12.219 -0.0982 -0.3116  0.2293
31455ION     NA48303   8.192   7.387  13.884  0.0276  0.3788 -0.1628
31456ION     NA48304   7.409   6.147  10.640  0.0472  0.0631  0.0982
31457ION     NA48305  15.208   8.337   5.370  0.0896 -0.0684  0.2408
31458ION     NA48306  17.477   8.261   0.171 -0.0597 -0.0170  0.0516
31459ION     NA48307   2.279   6.432   0.172 -0.1776  0.3269  0.1265
31460ION     NA48308   8.272  14.600   2.640  0.1227 -0.1150  0.0650
31461ION     NA48309   0.850  17.246  10.646  0.1410  0.2671 -0.0477
31462ION     NA48310  11.486   0.626  16.264  0.1326 -0.3143  0.0345
31463ION     NA48311   7.011  17.757  10.808 -0.1212 -0.0915  0.1360
31464ION     NA48312   8.071  10.255   6.094  0.3646  0.1965  0.0833
31465ION     NA48313  16.809  15.486  10.528  0.0009  0.0483 -0.1012
31466ION     NA48314  16.346  13.040  10.118 -0.1173 -0.3207  0.0707
31467ION     NA48315  13.307   6.671  10.425  0.0384  0.1335 -0.1450
31468ION     NA48316  17.624  10.529  10.099 -0.0801  0.0846 -0.0109
31469ION     NA48317   0.930  14.892   5.670 -0.0814  0.3230 -0.0680
31470ION     NA48318   0.425  13.893   5.821 -0.0866  0.3878 -0.0644
31471ION     NA48319  15.435   5.118   5.928  0.1125 -0.1849  0.0955
31472ION     NA48320   5.327  16.426   0.263  0.0265 -0.1227  0.0224
31473ION     NA48321   3.128  16.902   3.216 -0.1727  0.0165  0.3035
31474ION     NA48322   3.775  10.081   1.296 -0.1109  0.1465  0.1717
31475ION     NA48323   2.557   5.762  10.491  0.2066 -0.0010 -0.1469
31476ION     NA48324  16.128  15.873  15.654 -0.1874 -0.0865  0.0191
31477ION     NA48325  11.523  17.966  10.366 -0.1392  0.0900 -0.0536
31478ION     NA48326   3.971  15.024  10.670 -0.0182  0.1931 -0.0548
31479ION     NA48327   5.299   2.472   0.462  0.1535  0.1629  0.0436
31480ION     NA48328   0.994  11.895  10.225 -0.0361  0.0019 -0.4137
31481ION     NA48329  14.130  11.436   2.320 -0.0636  0.0677 -0.0800
31482ION     NA48330  12.226  15.917   6.065 -0.1103  0.0825 -0.0425
31483ION     NA48331   6.139  11.609   0.320 -0.0717 -0.2076 -0.2891
31484ION     NA48332   5.024  17.725   5.093  0.0817 -0.1700  0.0622
31485ION     NA48333  17.026   6.288  14.851 -0.3007  0.4857 -0.0225
31486ION     NA48334   1.444  11.832   0.635  0.1975  0.0140  0.0120
31487ION     NA48335  12.881   3.561   0.607  0.3257  0.2864  0.2306
31488ION     NA48336   6.464   7.835  10.757  0.2078  0.2129 -0.1572
31489ION     NA48337   2.378   1.924   5.881  0.0553 -0.0537 -0.1338
31490ION     NA48338  13.353  16.024   1.805 -0.0432  0.1839  0.0974
31491ION     NA48339   0.828   0.622   5.925  0.0055 -0.0415 -0.2024
31492ION     NA48340   6.275  14.975  10.787  0.1143 -0.1905  0.1331
31493ION     NA48341   6.943   0.642  10.947  0.0783  0.1821  0.0628
31494ION     NA48342  14.294  15.621  10.346 -0.3125  0.0906 -0.0262
31495ION     NA48343  12.183  14.698  10.289  0.0685  0.1338 -0.4228
31496ION     NA48344   3.061   9.393  14.779 -0.0289 -0.0771 -0.0823
31497ION     NA48345   1.134  15.866  10.942  0.1356  0.2327 -0.1945
31498ION     NA48346   2.135  14.253   3.248  0.1494 -0.0965 -0.1043
31499ION     NA48347   6.616  14.912  14.002 -0.0424  0.0310  0.1259
31500ION     NA48348   2.657   4.120   5.834 -0.1365  0.3131  0.1142
31501ION     NA48349   9.074  10.596  10.138  0.2156  0.4311 -0.1724
31502ION     NA48350  13.202   4.844   6.167 -0.0484  0.5770  0.0356
31503ION     NA48351  17.786   0.642  14.579 -0.0609 -0.1000 -0.0069
31504ION     NA48352   1.714   7.809  10.243  0.2345 -0.2282  0.4407
31505ION     NA48353   5.074   2.329   3.954 -0.2260 -0.2208 -0.1408
31506ION     NA48354   1.728   6.336  10.772 -0.1518 -0.2578  0.1356
31507ION     NA48355  13.672   8.994   5.188 -0.0070  0.1690 -0.4049
31508ION     NA48356   0.024   0.150   1.148  0.1841 -0.1639 -0.3667
31509ION     NA48357   6.047  16.775  10.553 -0.1925 -0.2899  0.3167
31510ION     NA48358   2.102  12.137   5.663  0.0533  0.2077 -0.0776
31511ION     NA48359   5.616  10.035  11.127 -0.0216 -0.2318  0.1441
31512ION     NA48360  16.267  13.390  13.566  0.0452 -0.1455 -0.0349
31513ION     NA48361  15.102  11.859   5.319  0.2727 -0.2701  0.1329
31514ION     NA48362  10.838   6.966  15.944  0.1563  0.2237  0.1697
31515ION     NA48363  12.421   0.990   5.681 -0.2322 -0.2834 -0.3214
31516ION     NA48364  15.035   8.454   0.430  0.4272 -0.1054  0.0577
31517ION     NA48365   8.159  16.566   4.677 -0.0052  0.1275  0.0876
31518ION     NA48366   1.761  11.068  15.119  0.1349  0.0784  0.1434
31519ION     NA48367   9.813  14.556  10.952  0.0312  0.1435 -0.0479
31520ION     NA48368  16.472   4.391   1.583  0.0023  0.1174 -0.0651
31521ION     NA48369  14.593   3.994  10.614 -0.0618  0.0039  0.1739
31522ION     NA48370  10.968  14.542   6.067 -0.2098 -0.2084  0.0265
31523ION     NA48371   6.482  12.194  15.658  0.0397  0.4117  0.3287
31524ION     NA48372   4.362   8.186  12.445  0.0916 -0.0127 -0.2678
31525ION     NA48373  14.911   0.170  10.448 -0.0001  0.0985 -0.0417
31526ION     NA48374  13.559  17.728   0.273 -0.2467  0.0796  0.2949
31527ION     NA48375  17.199  13.222   5.659  0.1845 -0.1778 -0.0078
31528ION     NA48376  12.029  17.041   5.956 -0.1319 -0.3099  0.2441
31529ION     NA48377   4.321   6.242  10.442 -0.2234  0.3099 -0.1489
31530ION     NA48378   9.978  13.478   6.088 -0.0100 -0.1106  0.2358
31531ION     NA48379  14.354   5.716   5.541  0.1848 -0.0440  0.0259
31532ION     NA48380  12.856  16.048  10.635 -0.0599 -0.1827  0.3101
31533ION     NA48381  15.745  15.398   5.867 -0.1273 -0.0939 -0.1421
31534ION     NA48382   9.751  12.532   5.992 -0.2497  0.3164  0.0271
31535ION     NA48383   6.843   2.067  14.732 -0.1339  0.2209  0.2005
31536ION     NA48384  15.251   0.026  13.921  0.0253 -0.2309  0.0223
31537ION     NA48385  13.871   5.491  10.348  0.2285 -0.4114  0.0135
31538ION     NA48386   1.754  10.983   5.603  0.2037 -0.3493 -0.0688
31539ION     NA48387  13.079  11.772  10.517 -0.1038 -0.0251 -0.0472
31540ION     NA48388  17.904  12.741   5.692 -0.3458 -0.0247  0.2630
31541ION     NA48389   8.632  11.262  10.463  0.2155  0.2418  0.2512
31542ION     NA48390   0.577  15.032   2.598  0.3428  0.0776 -0.0923
31543ION     NA48391   7.269   5.876  14.020  0.0435  0.0889  0.1088
31544ION     NA48392   9.251   0.408  10.678  0.0020 -0.1028  0.1393
31545ION     NA48393  15.010   2.906  14.022 -0.3990  0.1587 -0.1747
31546ION     NA48394  11.794   8.861  11.162 -0.1006 -0.1098 -0.1591
31547ION     NA48395   2.751  10.740   5.766  0.1358  0.1389 -0.1982
31548ION     NA48396  15.317  12.942  10.420  0.1291 -0.1189 -0.0155
31549ION     NA48397  15.900  17.228  15.895 -0.0625  0.1593  0.1041
31550ION     NA48398   8.609  10.644  12.362 -0.0904 -0.1271  0.0539
31551ION     NA48399  10.491   8.144  10.234 -0.4793 -0.0970  0.0351
31552ION     NA48400   0.339   3.054   5.637 -0.0561 -0.2730 -0.0314
31553ION     NA48401  13.826  16.460  15.288  0.0395  0.0441 -0.3388
31554ION     NA48402  17.527  17.160  13.438  0.0374 -0.4006  0.1018
31555ION     NA48403   9.748   2.745  13.073 -0.2059 -0.1109  0.0758
31556ION     NA48404   4.837   5.888   0.586 -0.1851  0.2355  0.0978
31557ION     NA48405  12.987  12.670  14.048  0.0211 -0.2068  0.0424
31558ION     NA48406  14.923  14.742   5.711  0.0545  0.1990  0.1797
31559ION     NA48407  10.640  16.559   4.893  0.4431  0.0374  0.0692
31560ION     NA48408   3.302  16.980  10.601  0.0619  0.0193 -0.1247
31561ION     NA48409   5.611  14.474   6.296 -0.0714 -0.1463 -0.0036
31562ION     NA48410  12.761   5.528  16.183  0.1737  0.1914 -0.0214
31563ION     NA48411  16.325  10.916  13.529 -0.2021  0.0163  0.2314
31564ION     NA48412  17.849  10.686  12.996 -0.4045  0.0649 -0.3982
31565ION     NA48413  15.581  14.918  12.812 -0.2141  0.1745  0.3600
31566ION     NA48414  14.583  15.460   5.769 -0.1370 -0.0990  0.3365
31567ION     NA48415  10.552  16.314  13.754 -0.1003 -0.3145  0.0417
31568ION     NA48416   4.496   2.862  10.607  0.2848 -0.1184  0.2569
31569ION     NA48417   9.734  10.116  11.157 -0.0206  0.0101  0.0683
31570ION     NA48418   4.123   1.852   6.058  0.1096 -0.2760 -0.1625
31571ION     NA48419   4.009  13.938  12.737 -0.2888 -0.3294  0.0712
31572ION     NA48420  14.033  10.760   0.635  0.0715 -0.0483 -0.0440
31573ION     NA48421  14.054   2.352  11.673 -0.0590  0.1886  0.2726
31574ION     NA48422   7.938  11.576   2.887 -0.2312 -0.1747 -0.3967
31575ION     NA48423  16.935  17.222  12.190 -0.2248 -0.1303  0.1693
31576ION     NA48424   2.376   1.653  15.099  0.1700 -0.0032 -0.1011
31577ION     NA48425  11.284  11.061   4.240 -0.0201  0.1657  0.0683
31578ION     NA48426  10.416  11.466   5.466 -0.4651  0.2168 -0.1367
31579ION     NA48427   3.052  12.437  14.202  0.1512  0.0897  0.0706
31580ION     NA48428  14.235  13.799   1.134 -0.0566  0.1233  0.1850
31581ION     NA48429   0.464  10.306   5.085 -0.1231  0.2850  0.3806
31582ION     NA48430   7.260   1.588   5.935 -0.0830 -0.5229 -0.0067
31583ION     NA48431   0.793   1.509  15.223 -0.1774 -0.0632 -0.0504
31584ION     NA48432   8.064   7.270   5.475  0.1266 -0.0239 -0.1506
31585ION     NA48433   2.793   1.740  16.142  0.1055 -0.0178  0.0878
31586ION     NA48434  13.716   1.727   5.584 -0.3678  0.0415 -0.0131
31587ION     NA48435   5.970   7.590   5.487  0.0911 -0.1515 -0.1559
31588ION     NA48436  17.210  14.196   5.502 -0.0469  0.3360 -0.0229
31589ION     NA48437   8.950   9.613   6.002  0.0565  0.1210  0.0363
31590ION     NA48438  14.381   4.094   1.200  0.2343  0.0049 -0.0525
31591ION     NA48439   5.200   1.345  12.386 -0.2544 -0.2846  0.0295
31592ION     NA48440  15.714  17.011  10.320  0.1339 -0.1780 -0.1907
31593ION     NA48441   4.307  13.570   5.875  0.0674 -0.2552 -0.1335
31594ION     NA48442   0.568  14.767  13.657 -0.0585 -0.0479  0.0621
31595ION     NA48443   6.592  12.267   6.168  0.1613  0.0161 -0.0514
31596ION     NA48444  13.742   3.440  15.906  0.0037 -0.0215  0.0993
31597ION     NA48445  17.204   8.319   5.289  0.0995  0.0599 -0.0650
31598ION     NA48446   9.564  12.506  10.692 -0.1008 -0.0705  0.2149
31599ION     NA48447  13.783   7.898  14.730  0.1614 -0.0247 -0.0286
31600ION     NA48448   5.551   4.265  10.473  0.0888 -0.0416  0.0014
31601ION     NA48449   8.761  17.973   1.842  0.1297  0.2352 -0.2164
31602ION     NA48450  11.125  13.382  10.726 -0.0318  0.2452  0.0574
31603ION     NA48451  15.432   9.601   5.628  0.0180  0.0280 -0.0538
31604ION     NA48452   2.307   0.306   6.187  0.1511  0.2030  0.0051
31605ION     NA48453   5.558   2.353   3.295  0.1290 -0.0699  0.1001
31606ION     NA48454   0.205  16.585  10.664 -0.0512  0.0241  0.3608
31607ION     NA48455  10.021  16.152   4.415  0.2476 -0.1745 -0.0549
31608ION     NA48456  17.488   3.383   1.540 -0.2638  0.1644  0.1232
31609ION     NA48457   4.012  16.675   0.804  0.0588  0.0007  0.4575
31610ION     NA48458   1.002  14.525  14.410  0.0514 -0.0680  0.1062
31611ION     NA48459   4.102   9.269  13.561  0.2152  0.1145 -0.3401
31612ION     NA48460  12.522   2.750   0.539 -0.1137 -0.3042  0.0146
31613ION     NA48461   6.515  13.600  16.010 -0.1265  0.0608  0.0653
31614ION     NA48462   7.190   7.004   3.965 -0.0418  0.1201 -0.0152
31615ION     NA48463   1.799  16.399   5.924 -0.1924 -0.3082 -0.0463
31616ION     NA48464  12.528  11.547   4.170 -0.0318 -0.0994  0.0361
31617ION     NA48465   6.917   7.893   5.682 -0.0717 -0.1233 -0.0390
31618ION     NA48466   1.058   5.951   2.155  0.0285 -0.0889  0.2491
31619ION     NA48467   6.213   1.111  14.558 -0.1518  0.2742  0.1575
31620ION     NA48468  15.139   7.896  10.284 -0.1655 -0.1421 -0.0034
31621ION     NA48469  12.726   0.994  10.638  0.0263  0.0655 -0.2710
31622ION     NA48470   7.998   4.528   5.693 -0.0987 -0.0752  0.0609
31623ION     NA48471   8.643   0.362  15.184 -0.0534  0.0300 -0.2471
31624ION     NA48472  17.958   1.885  10.346 -0.1611 -0.0687  0.1810
31625ION     NA48473   6.800  13.326   6.114 -0.1344  0.1563  0.0812
31626ION     NA48474   5.610   9.146   0.746 -0.2008 -0.1543 -0.2524
31627ION     NA48475   4.741  15.717   6.326  0.1685  0.1075 -0.0013
31628ION     NA48476   1.124   2.523   2.868  0.1801 -0.1873 -0.2380
31629ION     NA48477   5.536  11.862  11.416  0.2410 -0.3718 -0.3245
31630ION     NA48478  10.006   0.667   0.886  0.1551 -0.2841  0.2598
31631ION     NA48479  15.249   7.127   2.780  0.2222  0.3632  0.1716
31632ION     NA48480   3.618   6.601   4.757  0.1890  0.4427  0.0887
31633ION     NA48481   8.448   7.967   0.461  0.0629 -0.1729  0.2899
31634ION     NA48482   8.548   3.423  10.245  0.3409 -0.3959 -0.2243
31635ION     NA48483  17.865  16.399   3.683 -0.0987  0.0084 -0.1422
31636ION     NA48484  15.364   8.090   2.478 -0.0924 -0.0312 -0.1077
31637ION     NA48485  15.139   6.530  14.975 -0.0995  0.0326  0.1289
31638ION     NA48486  15.358   6.651   0.751  0.1109 -0.0214  0.0226
31639ION     NA48487   4.552   0.022   3.455 -0.1932 -0.0488  0.0645
31640ION     NA48488  14.222   5.071  13.707  0.0116 -0.1086  0.2684
31641ION     NA48489   9.526  10.603   0.784  0.1475 -0.1325 -0.0421
31642ION     NA48490   3.573  11.006   5.888 -0.1365 -0.0805  0.0241
31643ION     NA48491  17.539   0.715   5.172  0.0703  0.2862 -0.2096
31644ION     NA48492   4.423  10.395  12.667 -0.0905 -0.1398 -0.2486
31645ION     NA48493  10.354   8.926  10.340  0.2255  0.1305 -0.1960
31646ION     NA48494  15.903   9.959   9.970  0.2294 -0.0737  0.0396
31647ION     NA48495   5.298  15.045  10.739 -0.0925 -0.1968 -0.2502
31648ION     NA48496   4.426   6.245   5.844 -0.1059  0.0124  0.0532
31649ION     NA48497  10.534  17.579  10.430 -0.1249 -0.1620  0.2580
31650ION     NA48498   0.191   1.341   5.964  0.0154  0.0637 -0.2927
31651ION     NA48499   6.352   3.580   6.080 -0.0376  0.1759  0.0338
31652ION     NA48500   2.288  13.171  15.988 -0.1107 -0.2038 -0.0807
31653ION     NA48501   5.572   7.977  10.487 -0.1742 -0.0609 -0.2970
31654ION     NA48502  14.470   2.487   5.711  0.1039 -0.0913 -0.1082
31655ION     NA48503  15.505  13.899   5.787 -0.3132 -0.1905  0.1685
31656ION     NA48504   7.652  17.040  10.550 -0.0771 -0.2181 -0.1557
31657ION     NA48505  12.141   2.663  10.710 -0.1860  0.2657 -0.0709
31658ION     NA48506   6.362  11.681   6.270 -0.0747 -0.2461  0.0279
31659ION     NA48507   6.646  12.593  15.276 -0.4856 -0.2951  0.4272
31660ION     NA48508  15.794   6.153   5.569 -0.0529  0.0336  0.0411
31661ION     NA48509  14.027  12.936   1.849 -0.1603  0.2230  0.1496
31662ION     NA48510   2.299  12.282   3.193  0.2088 -0.0045  0.2511
31663ION     NA48511  11.853   6.257  10.002 -0.0046 -0.0189  0.0174
31664ION     NA48512   7.934  13.924  15.101  0.2096  0.0236 -0.0931
31665ION     NA48513   9.519  10.953  10.429 -0.1501 -0.0597 -0.2822
31666ION     NA48514  14.064   9.754   2.977  0.1102 -0.0106 -0.3386
31667ION     NA48515  12.260  10.911  14.691  0.1279 -0.1321  0.0455
31668ION     NA48516  17.281  12.950  10.219 -0.2150  0.1412 -0.2943
31669ION     NA48517   0.211   9.721  14.696 -0.0526 -0.0493  0.2040
31670ION     NA48518  10.756   0.584  10.803 -0.3748 -0.1608 -0.0429
31671ION     NA48519   5.657  12.789  10.566  0.1641  0.2094 -0.2364
31672ION     NA48520  13.891   1.179   2.051 -0.4496  0.1675  0.3174
31673ION     NA48521   6.909   2.915   6.012 -0.1581 -0.0882  0.0613
31674ION     NA48522   8.712  14.753   4.406 -0.1318  0.0510  0.1657
31675ION     NA48523   0.681   2.637  12.613  0.1976 -0.0129  0.0555
31676ION     NA48524   1.884  15.532  14.353 -0.0842  0.1454 -0.1761
31677ION     NA48525  16.662   1.117  10.177  0.1543  0.0598 -0.1862
31678ION     NA48526   3.210   4.823   6.023  0.1367 -0.0023 -0.3017
31679ION     NA48527  11.180   9.745  15.421 -0.2300  0.3191  0.2247
31680ION     NA48528   4.105  13.103  10.274  0.0227  0.1523  0.1175
31681ION     NA48529   0.096   5.968   4.937 -0.1274  0.0178  0.2119
31682ION     NA48530  14.123  10.706   5.678  0.2463 -0.1368 -0.1378
31683ION     NA48531   1.552   9.020  10.261 -0.2902 -0.0670 -0.3097
31684ION     NA48532   6.410  15.337   1.496 -0.4728 -0.2924  0.0903
31685ION     NA48533   7.892   2.023  14.079 -0.0740 -0.0257  0.1145
31686ION     NA48534   1.069  10.443  15.751  0.2054  0.1016  0.0314
31687ION     NA48535  12.829   7.996  11.525 -0.3122  0.0407  0.0889
31688ION     NA48536   6.018   2.320  12.191  0.1280  0.0002  0.0649
31689ION     NA48537   9.747  16.310  14.050 -0.1111 -0.1348  0.1211
31690ION     NA48538  12.855  14.720   5.849 -0.1098  0.2753  0.3739
31691ION     NA48539  14.870   4.931  14.905  0.0269  0.1089  0.1409
31692ION     NA48540   8.027   0.638   2.722 -0.2938 -0.1817  0.1123
31693ION     NA48541  11.244   0.810   4.326 -0.5546  0.1141  0.1071
31694ION     NA48542   2.145   7.312   0.403  0.2278  0.0644  0.3303
31695ION     NA48543  16.134  13.375  15.495  0.3857 -0.0636  0.0598
31696ION     NA48544  12.501  11.076  10.309 -0.1154 -0.1320  0.3782
31697ION     NA48545   2.103   6.788  13.254  0.0558 -0.2743  0.0084
31698ION     NA48546   6.063   5.880  10.766 -0.0255 -0.1276 -0.0366
31699ION     NA48547   2.993  17.696   6.172 -0.0474 -0.0820 -0.1724
31700ION     NA48548   2.541   6.944   2.084  0.3552  0.0624  0.2022
31701ION     NA48549  17.083  11.239  11.387  0.0056 -0.1856  0.0576
31702ION     NA48550  16.008   8.801  10.345 -0.3176  0.2354  0.1789
31703ION     NA48551  10.779   3.842  11.194  0.0073 -0.2203 -0.1448
31704ION     NA48552  16.641   6.325   5.855  0.2356 -0.0577 -0.4463
31705ION     NA48553   2.203  12.932   5.330 -0.2501  0.0553 -0.0889
31706ION     NA48554  17.869   9.118   0.043  0.3348 -0.0861 -0.1071
31707ION     NA48555  15.755  12.278   3.534  0.2522 -0.2069  0.3569
31708ION     NA48556  14.122  11.796  10.688 -0.2564  0.0280  0.0055
31709ION     NA48557   6.159  12.617  13.451  0.1087  0.0629 -0.1137
31710ION     NA48558  12.374   6.745   5.646 -0.2216 -0.0094 -0.2113
31711ION     NA48559   2.154  17.430   6.042 -0.0618  0.0203  0.0003
31712ION     NA48560   3.712   9.268   1.909 -0.0751  0.0241  0.0297
31713ION     NA48561  11.638  12.450  10.553 -0.0127  0.0711  0.3459
31714ION     NA48562   6.841  17.043  10.573  0.0287  0.0348  0.0223
31715ION     NA48563  11.547   0.928   5.823  0.1732  0.1939 -0.0135
31716ION     NA48564   0.409  16.661   5.905  0.1847  0.0200  0.1967
31717ION     NA48565  13.918  14.312  10.396 -0.1032 -0.0612  0.1404
31718ION     NA48566   9.811   6.645   2.861 -0.0918  0.2451 -0.0492
  18.04832  18.04832  16.27740
